Title
82350
    1SAPS     N    1   3.522   3.843   9.893  0.4905  0.6484  0.2788
    1SAPS   HN1    2   3.615   3.798   9.879 -0.2847 -0.4979 -1.2976
    1SAPS   HN2    3   3.460   3.809   9.817 -0.1857 -2.3297  2.0864
    1SAPS   HN3    4   3.535   3.946   9.891 -2.5872  1.0610 -0.5536
    1SAPS   C12    5   3.459   3.789  10.022  0.1090 -0.4553 -0.4190
    1SAPS  H12A    6   3.512   3.696  10.039  0.3350  0.4344  4.2623
    1SAPS   C13    7   3.501   3.866  10.152  0.6614  0.1376 -0.0636
    1SAPS  O13A    8   3.574   3.971  10.140  0.1189 -0.1408 -0.0387
    1SAPS  O13B    9   3.482   3.810  10.261 -0.1842 -0.0510 -0.0845
    1SAPS   C11   10   3.307   3.768   9.999 -0.8238  0.2932 -1.1287
    1SAPS  H11A   11   3.259   3.864   9.970 -0.3244  0.9507  0.1503
    1SAPS  H11B   12   3.251   3.754  10.094 -3.1984  1.7261 -2.2643
    1SAPS     P   13   3.277   3.507   9.949 -0.3793  0.4754 -0.5267
    1SAPS   O13   14   3.380   3.480  10.050 -0.0512 -0.0191  0.7009
    1SAPS   O14   15   3.143   3.468  10.002  0.2608 -0.0262  0.0506
    1SAPS   O12   16   3.279   3.667   9.912  0.3324  0.0631 -0.0808
    1SAPS   O11   17   3.305   3.426   9.814  0.0126 -0.0168  0.0982
    1SAPS    C1   18   3.344   3.491   9.691 -0.0672 -0.1518 -0.1076
    1SAPS    HA   19   3.296   3.425   9.616 -0.3218  0.0435 -0.1149
    1SAPS    HB   20   3.302   3.593   9.680 -0.5664 -0.1821  1.3951
    1SAPS    C2   21   3.498   3.507   9.685  0.0893  0.2791 -0.1788
    1SAPS    HS   22   3.531   3.568   9.772  0.7886 -0.6769  0.2362
    1SAPS   O21   23   3.545   3.556   9.556  0.5470 -0.0427 -0.1119
    1SAPS   C21   24   3.530   3.684   9.553 -0.6506  0.5091 -0.4053
    1SAPS   O22   25   3.494   3.753   9.644  0.1589 -0.1246 -0.4900
    1SAPS   C22   26   3.565   3.731   9.413 -0.5575 -0.3701  0.1132
    1SAPS   H2R   27   3.670   3.700   9.397 -0.2928 -0.0234  1.1155
    1SAPS   H2S   28   3.504   3.669   9.343  0.5058 -2.1834  0.7461
    1SAPS    C3   29   3.560   3.365   9.713 -0.4789 -0.5637  0.2518
    1SAPS    HX   30   3.559   3.345   9.822 -0.5202 -0.9575  0.1772
    1SAPS    HY   31   3.667   3.371   9.684 -0.9774  0.2938 -1.5120
    1SAPS   O31   32   3.491   3.265   9.638 -0.8031  0.2837 -0.0395
    1SAPS   C31   33   3.514   3.136   9.677  0.3308 -0.0960  0.4622
    1SAPS   O32   34   3.599   3.097   9.755  0.9992  0.0669  0.3061
    1SAPS   C32   35   3.414   3.046   9.603 -0.4676 -0.0142  0.1047
    1SAPS   H2X   36   3.433   2.946   9.649 -2.0233 -0.1079  0.5534
    1SAPS   H2Y   37   3.449   3.035   9.498 -0.7692 -1.8259  0.1737
    1SAPS   C23   38   3.562   3.879   9.384 -0.1139 -0.0459 -0.0609
    1SAPS   H3R   39   3.636   3.936   9.445 -1.5664  1.0110  0.7485
    1SAPS   H3S   40   3.465   3.920   9.417 -0.4363 -0.8076 -0.0663
    1SAPS   C24   41   3.596   3.904   9.230  0.7501 -0.1205 -0.7670
    1SAPS   H4R   42   3.580   4.013   9.211 -0.6696  0.0754  1.3429
    1SAPS   H4S   43   3.520   3.859   9.163 -1.1239 -0.8506  1.7589
    1SAPS   C25   44   3.737   3.862   9.194 -0.5814  0.5686 -0.1907
    1SAPS   H5R   45   3.803   3.861   9.282  1.6809 -0.0238 -1.8443
    1SAPS   C26   46   3.787   3.823   9.078  0.4551 -0.7987  0.6704
    1SAPS   H6R   47   3.895   3.809   9.068  0.4444  0.3122 -1.2493
    1SAPS   C27   48   3.716   3.815   8.941 -0.4896 -0.5491  0.3620
    1SAPS   H7R   49   3.642   3.734   8.960 -1.1244  0.5562  2.8759
    1SAPS   H7S   50   3.791   3.764   8.877 -0.9489 -0.6864 -0.0652
    1SAPS   C28   51   3.642   3.934   8.888  0.4446 -0.1008 -0.0398
    1SAPS   H8R   52   3.613   4.017   8.953 -0.4486  0.2240 -0.8282
    1SAPS   C29   53   3.608   3.956   8.758  0.2733 -0.0943  0.1873
    1SAPS   H9R   54   3.543   4.043   8.743 -0.8390 -0.9573 -0.1081
    1SAPS  C210   55   3.636   3.868   8.641 -0.6164 -0.3214 -0.9778
    1SAPS  H10R   56   3.690   3.785   8.692  0.7870  0.4836 -1.1246
    1SAPS  H10S   57   3.717   3.910   8.578  1.1531 -0.2026  1.2947
    1SAPS  C211   58   3.518   3.800   8.577  0.1418 -0.7394  0.9832
    1SAPS  H11R   59   3.452   3.743   8.644  0.4474  0.6033  2.4527
    1SAPS  C212   60   3.485   3.818   8.444  1.1929  0.4470  0.4341
    1SAPS  H12R   61   3.396   3.771   8.400  0.6898  1.9831 -0.2237
    1SAPS  C213   62   3.556   3.909   8.348  0.0391 -0.4319  0.1705
    1SAPS  H13R   63   3.663   3.908   8.378 -0.2174 -3.6528  1.1786
    1SAPS  H13S   64   3.512   4.010   8.354 -1.9107 -1.0726 -2.4555
    1SAPS  C214   65   3.541   3.870   8.208 -0.3297 -0.4314 -0.0847
    1SAPS  H14R   66   3.454   3.809   8.181  0.1156 -1.5451  0.9016
    1SAPS  C215   67   3.614   3.922   8.104 -0.4183  0.3971 -0.8150
    1SAPS  H15R   68   3.615   3.886   8.000  2.2523 -0.9822 -0.3751
    1SAPS  C216   69   3.717   4.032   8.131  0.2645  0.3040  0.0973
    1SAPS  H16R   70   3.763   4.038   8.232  0.3804 -1.5768  0.1716
    1SAPS  H16S   71   3.672   4.129   8.100  2.8485  1.3902 -0.3879
    1SAPS  C217   72   3.842   3.991   8.046  0.8064  0.2379 -0.7056
    1SAPS  H17R   73   3.912   4.077   8.032 -0.0023  1.0019 -0.0388
    1SAPS  H17S   74   3.813   3.974   7.940 -0.0101 -0.5241 -0.3603
    1SAPS  C218   75   3.926   3.885   8.109  0.5464 -0.2278  0.8956
    1SAPS  H18R   76   3.863   3.796   8.129  0.4772 -0.2813  0.4360
    1SAPS  H18S   77   3.975   3.920   8.202  0.3495 -2.2647  1.7811
    1SAPS  C219   78   4.038   3.839   8.009 -0.3482 -0.2916  0.0788
    1SAPS  H19R   79   4.120   3.914   8.009  0.2640 -0.9201 -2.2798
    1SAPS  H19S   80   3.982   3.831   7.914  1.9200 -0.3192 -1.2911
    1SAPS  C220   81   4.099   3.706   8.045 -0.0723  0.8645  0.0794
    1SAPS  H20R   82   4.160   3.680   7.956  1.1490  0.6516  0.9582
    1SAPS  H20S   83   4.025   3.623   8.055  0.8033  0.2314  1.6103
    1SAPS  H20T   84   4.160   3.714   8.138  3.3089 -2.4433 -1.6768
    1SAPS   C33   85   3.258   3.079   9.607 -0.0912  0.1022 -0.4368
    1SAPS   H3X   86   3.244   3.147   9.693 -1.6796  1.3820 -1.6728
    1SAPS   H3Y   87   3.197   2.986   9.605 -0.3320  0.2480  0.2023
    1SAPS   C34   88   3.202   3.144   9.483  0.0481  0.2575 -0.1815
    1SAPS   H4X   89   3.251   3.243   9.472 -1.6748  0.9828 -1.5584
    1SAPS   H4Y   90   3.095   3.172   9.494  0.6428  2.2192  0.8973
    1SAPS   C35   91   3.219   3.061   9.356  0.3364  1.2148  0.1094
    1SAPS   H5X   92   3.158   2.968   9.367  1.6072  0.4568  0.8078
    1SAPS   H5Y   93   3.325   3.038   9.335  0.1065 -0.0399  0.2751
    1SAPS   C36   94   3.170   3.136   9.229  0.3011  0.7845 -0.0555
    1SAPS   H6X   95   3.239   3.111   9.145  1.2429 -1.5379  1.3401
    1SAPS   H6Y   96   3.175   3.245   9.252 -0.9654  0.9980 -0.7609
    1SAPS   C37   97   3.034   3.099   9.181 -0.1905 -0.0900  0.3221
    1SAPS   H7X   98   2.961   3.146   9.250 -0.8267  0.7597 -0.9048
    1SAPS   H7Y   99   3.022   2.989   9.183 -2.7717  0.1713  1.4891
    1SAPS   C38  100   3.007   3.144   9.031 -0.4470 -0.1171  0.6286
    1SAPS   H8X  101   3.025   3.251   9.011 -0.9746 -0.1507 -0.0186
    1SAPS   H8Y  102   2.900   3.121   9.012  0.0050 -0.9629 -1.1097
    1SAPS   C39  103   3.092   3.065   8.923 -0.0509 -0.2551  0.8591
    1SAPS   H9X  104   3.112   2.959   8.947 -0.1877 -0.0765  1.7822
    1SAPS   H9Y  105   3.192   3.112   8.934 -0.6241  1.6930 -1.8373
    1SAPS  C310  106   3.033   3.069   8.784  0.3099  0.2158 -0.0073
    1SAPS  H10X  107   3.004   3.172   8.757 -1.0336 -0.5902 -1.7602
    1SAPS  H10Y  108   2.945   3.003   8.772  1.7614 -1.6317 -0.8016
    1SAPS  C311  109   3.139   3.011   8.693 -0.7247 -0.7104 -0.9447
    1SAPS  H11X  110   3.172   2.909   8.722 -3.9872 -0.9592  2.3185
    1SAPS  H11Y  111   3.227   3.079   8.690  1.8210 -3.9247 -1.6458
    1SAPS  C312  112   3.084   3.013   8.556  0.3965  0.4120 -0.7290
    1SAPS  H12X  113   3.090   3.118   8.521  1.8384  0.4233 -0.4868
    1SAPS  H12Y  114   2.979   2.977   8.554  0.4356  0.3379 -1.9622
    1SAPS  C313  115   3.169   2.927   8.454 -0.3610 -0.2402  0.5428
    1SAPS  H13X  116   3.156   2.820   8.482 -0.5529 -0.7714 -1.4704
    1SAPS  H13Y  117   3.275   2.955   8.467  0.4631 -2.8049 -0.4975
    1SAPS  C314  118   3.118   2.952   8.314  0.0849  0.0139  0.6160
    1SAPS  H14X  119   3.204   2.907   8.260  0.0111 -0.3483  0.7925
    1SAPS  H14Y  120   3.112   3.058   8.285  2.4397  0.0979  0.3760
    1SAPS  C315  121   2.977   2.884   8.276 -0.5252  0.2345  0.1049
    1SAPS  H15X  122   2.908   2.933   8.347 -1.5813  0.7390 -1.2390
    1SAPS  H15Y  123   2.980   2.773   8.282  1.8883  0.1970 -1.1464
    1SAPS  C316  124   2.931   2.929   8.132 -0.7013 -0.3191  0.5403
    1SAPS  H16X  125   2.998   2.875   8.061  0.0939  2.6141 -1.0265
    1SAPS  H16Y  126   2.956   3.035   8.109 -1.2207 -1.2391 -5.0404
    1SAPS  C317  127   2.787   2.895   8.105  0.1625 -0.3904 -0.0764
    1SAPS  H17X  128   2.769   2.915   7.997  2.2149 -3.4690 -1.0777
    1SAPS  H17Y  129   2.723   2.950   8.177 -1.5228 -2.1494 -0.1678
    1SAPS  C318  130   2.751   2.754   8.143  0.0500  0.5713  0.7167
    1SAPS  H18X  131   2.668   2.704   8.088  1.2924 -0.8617  0.1077
    1SAPS  H18Y  132   2.722   2.746   8.250 -0.6631  0.7388  0.5390
    1SAPS  H18Z  133   2.837   2.686   8.126 -0.1087  0.3707  0.7048
    2SAPS     N  134   2.295   3.273  10.213  0.2364 -0.5081 -0.0552
    2SAPS   HN1  135   2.308   3.268  10.316 -0.6202 -1.7901  0.0012
    2SAPS   HN2  136   2.292   3.178  10.170  1.3095  0.3200 -2.0360
    2SAPS   HN3  137   2.380   3.322  10.178 -0.4403  1.7581  1.3790
    2SAPS   C12  138   2.170   3.350  10.192 -0.3772 -1.1005 -0.5090
    2SAPS  H12A  139   2.083   3.290  10.217 -1.8624 -0.2708 -3.4803
    2SAPS   C13  140   2.168   3.476  10.274 -0.4780  0.1415  0.0288
    2SAPS  O13A  141   2.258   3.505  10.354 -0.4285 -0.8177  0.2391
    2SAPS  O13B  142   2.064   3.551  10.280  0.1356  0.0030  0.3625
    2SAPS   C11  143   2.161   3.390  10.037 -0.4261  0.1264  0.1117
    2SAPS  H11A  144   2.176   3.290   9.992  0.1207  1.1369 -2.0224
    2SAPS  H11B  145   2.246   3.454  10.006  1.1924 -0.9206  2.2912
    2SAPS     P  146   1.904   3.388   9.952 -0.1441  0.7051 -0.5887
    2SAPS   O13  147   1.905   3.252  10.007 -0.2078 -0.4271 -0.4190
    2SAPS   O14  148   1.799   3.484   9.993 -0.6067  0.3516  0.2410
    2SAPS   O12  149   2.043   3.455   9.992  0.1246  0.5105  0.3574
    2SAPS   O11  150   1.902   3.382   9.793 -0.0950  0.2396  0.4798
    2SAPS    C1  151   1.992   3.306   9.718  0.2302  0.0235 -0.3823
    2SAPS    HA  152   2.039   3.225   9.779  0.7022 -0.9423 -1.9924
    2SAPS    HB  153   1.946   3.244   9.638 -1.6204  2.6735 -1.4417
    2SAPS    C2  154   2.106   3.387   9.655 -0.0787 -0.2338  0.2824
    2SAPS    HS  155   2.168   3.439   9.732  0.7572  0.6816 -0.9872
    2SAPS   O21  156   2.051   3.480   9.559 -0.3460 -0.3078  0.3438
    2SAPS   C21  157   2.021   3.603   9.598  0.2231  0.1446  0.0292
    2SAPS   O22  158   2.065   3.660   9.697  0.2001 -0.0145 -0.4283
    2SAPS   C22  159   1.926   3.673   9.506 -0.1570 -0.1379 -0.3929
    2SAPS   H2R  160   1.929   3.782   9.530  0.3192 -0.1912 -0.2199
    2SAPS   H2S  161   1.963   3.658   9.402  1.9506 -0.4155  0.3859
    2SAPS    C3  162   2.210   3.305   9.587 -0.1177  0.7284  0.0066
    2SAPS    HX  163   2.236   3.228   9.662 -0.9878  0.6319  0.2086
    2SAPS    HY  164   2.300   3.370   9.578 -1.2003  1.8434 -4.1964
    2SAPS   O31  165   2.168   3.259   9.458  0.1176  0.2437  0.2770
    2SAPS   C31  166   2.225   3.324   9.358  0.1289 -0.6386  0.0413
    2SAPS   O32  167   2.309   3.414   9.366  0.6141 -0.0720 -0.0291
    2SAPS   C32  168   2.192   3.257   9.226  0.4741 -0.7080  0.2892
    2SAPS   H2X  169   2.144   3.163   9.260 -2.5356  0.8089  0.3997
    2SAPS   H2Y  170   2.285   3.238   9.168 -0.7246  0.1600 -1.9867
    2SAPS   C23  171   1.780   3.623   9.524 -0.1528  0.5952  0.3967
    2SAPS   H3R  172   1.741   3.632   9.628 -3.8459  1.8715 -0.9994
    2SAPS   H3S  173   1.782   3.515   9.498 -0.7165  0.5877  0.3722
    2SAPS   C24  174   1.684   3.721   9.445 -0.1700 -0.2394  0.3721
    2SAPS   H4R  175   1.703   3.824   9.482 -0.0828 -0.0609 -0.1675
    2SAPS   H4S  176   1.579   3.712   9.482  0.3741  1.1581  2.3297
    2SAPS   C25  177   1.680   3.721   9.296 -0.0666 -0.3284 -0.3640
    2SAPS   H5R  178   1.656   3.620   9.258  1.2887  0.4306 -3.3988
    2SAPS   C26  179   1.702   3.822   9.206 -0.1665  0.1868  0.0399
    2SAPS   H6R  180   1.711   3.805   9.098 -2.0284 -1.5830  0.1287
    2SAPS   C27  181   1.733   3.958   9.254 -0.5981 -1.0847 -0.0395
    2SAPS   H7R  182   1.675   3.986   9.344  1.8182  3.5342  0.2105
    2SAPS   H7S  183   1.702   4.028   9.173  2.0941  0.4764  0.2309
    2SAPS   C28  184   1.881   3.984   9.295  0.2492 -0.4335 -0.5001
    2SAPS   H8R  185   1.912   3.937   9.389  1.3351  3.1337  0.9827
    2SAPS   C29  186   1.960   4.070   9.236 -0.3319 -0.7615 -0.6951
    2SAPS   H9R  187   2.065   4.079   9.270 -0.4916  1.0243 -0.6301
    2SAPS  C210  188   1.927   4.155   9.118  0.3387  0.2724  0.6544
    2SAPS  H10R  189   1.849   4.232   9.137 -0.2517  0.0499 -0.8327
    2SAPS  H10S  190   1.868   4.091   9.049 -1.4507  3.5214 -0.9588
    2SAPS  C211  191   2.043   4.229   9.058  0.1144  0.5097  0.5938
    2SAPS  H11R  192   2.092   4.299   9.127  0.6075  1.3939 -0.6348
    2SAPS  C212  193   2.095   4.217   8.940 -0.3330  0.1494 -0.0645
    2SAPS  H12R  194   2.185   4.278   8.920  1.0123 -1.0766  2.1050
    2SAPS  C213  195   2.055   4.119   8.835  0.2765 -0.2121 -0.1634
    2SAPS  H13R  196   1.945   4.102   8.833  0.0054  1.4568 -0.2685
    2SAPS  H13S  197   2.099   4.024   8.870  0.0089 -0.5743 -0.8011
    2SAPS  C214  198   2.085   4.169   8.695 -0.1137  0.3167  0.8549
    2SAPS  H14R  199   2.074   4.277   8.675  1.0479  0.2814 -0.0178
    2SAPS  C215  200   2.145   4.097   8.597  0.0435 -0.0217 -0.5414
    2SAPS  H15R  201   2.172   4.151   8.505  0.5088 -1.2674 -1.1563
    2SAPS  C216  202   2.191   3.951   8.611 -0.0027 -0.3904 -0.1612
    2SAPS  H16R  203   2.154   3.899   8.520 -2.1887  0.3022  0.3062
    2SAPS  H16S  204   2.141   3.902   8.697 -3.7513 -0.5189 -2.2750
    2SAPS  C217  205   2.340   3.937   8.618 -0.7707 -0.3185 -0.5585
    2SAPS  H17R  206   2.386   3.994   8.702  1.1988  1.1869 -2.6039
    2SAPS  H17S  207   2.397   3.989   8.538  0.7471 -1.6182 -0.3431
    2SAPS  C218  208   2.377   3.784   8.620  0.1501 -1.1193  0.1931
    2SAPS  H18R  209   2.344   3.737   8.525  0.8230 -1.8234  0.3067
    2SAPS  H18S  210   2.312   3.727   8.689 -2.2035 -0.2636 -1.2428
    2SAPS  C219  211   2.524   3.756   8.640 -0.0878  0.1728  0.3529
    2SAPS  H19R  212   2.543   3.649   8.615  1.8076 -0.3345  3.6713
    2SAPS  H19S  213   2.551   3.780   8.744  3.1828  0.2363 -0.4451
    2SAPS  C220  214   2.618   3.841   8.549  0.1474  0.7394  0.2898
    2SAPS  H20R  215   2.619   3.805   8.444  0.6842  1.9963 -0.1447
    2SAPS  H20S  216   2.721   3.832   8.593 -0.5561  0.6725  1.9841
    2SAPS  H20T  217   2.610   3.951   8.553 -2.5304  0.5589  0.1881
    2SAPS   C33  218   2.089   3.327   9.126 -0.2783 -0.1986  0.5108
    2SAPS   H3X  219   1.990   3.345   9.174 -0.9905 -1.1699 -0.5763
    2SAPS   H3Y  220   2.068   3.259   9.040 -0.1721  0.3961  0.0103
    2SAPS   C34  221   2.135   3.460   9.062 -0.6728  0.0687 -0.6198
    2SAPS   H4X  222   2.233   3.462   9.009  1.3002 -0.5028  2.8216
    2SAPS   H4Y  223   2.145   3.536   9.143  2.2291 -2.2428  1.2915
    2SAPS   C35  224   2.035   3.519   8.965  0.9106  0.2251  0.5874
    2SAPS   H5X  225   1.941   3.520   9.024  0.9028 -0.1785  0.5830
    2SAPS   H5Y  226   2.008   3.454   8.879  0.7028  0.4398  0.4876
    2SAPS   C36  227   2.064   3.656   8.900  0.7343 -1.0970 -0.2607
    2SAPS   H6X  228   2.165   3.656   8.854 -0.2085 -3.3725 -2.4318
    2SAPS   H6Y  229   2.070   3.729   8.984  0.6281 -2.5931  1.0710
    2SAPS   C37  230   1.954   3.694   8.807 -0.4046  0.1026 -0.5164
    2SAPS   H7X  231   1.949   3.804   8.793  0.2219 -0.1515 -2.9495
    2SAPS   H7Y  232   1.858   3.660   8.853 -1.2975  1.4413 -1.3655
    2SAPS   C38  233   1.955   3.625   8.677  0.0541 -0.0555  0.8120
    2SAPS   H8X  234   1.945   3.515   8.680 -0.2966 -0.0332  0.5618
    2SAPS   H8Y  235   2.050   3.648   8.623 -1.5266 -0.5939 -2.2840
    2SAPS   C39  236   1.841   3.663   8.582 -0.0685  1.2362  0.2910
    2SAPS   H9X  237   1.740   3.646   8.625 -1.2045 -2.0534 -3.4232
    2SAPS   H9Y  238   1.849   3.595   8.495  1.6263  1.3904  0.2950
    2SAPS  C310  239   1.865   3.808   8.528 -1.0362 -0.6071 -0.1311
    2SAPS  H10X  240   1.974   3.817   8.512 -0.8320 -0.9350  1.0782
    2SAPS  H10Y  241   1.835   3.885   8.602  1.9118 -0.6304  1.1251
    2SAPS  C311  242   1.799   3.823   8.391 -0.6582  0.1765 -0.0003
    2SAPS  H11X  243   1.692   3.793   8.397 -1.3013  2.6220  1.3590
    2SAPS  H11Y  244   1.843   3.764   8.307 -0.2581  3.5048 -2.2353
    2SAPS  C312  245   1.808   3.969   8.340 -0.4718 -0.2605 -0.3571
    2SAPS  H12X  246   1.771   4.040   8.417  0.2202 -1.3292  0.9716
    2SAPS  H12Y  247   1.747   3.993   8.250  1.6924  0.1044 -1.7448
    2SAPS  C313  248   1.953   3.990   8.298 -0.2830  0.1467 -0.1628
    2SAPS  H13X  249   1.978   3.919   8.216 -2.7144 -0.8459 -0.0607
    2SAPS  H13Y  250   2.018   3.971   8.386 -0.2756 -1.3922 -0.4929
    2SAPS  C314  251   1.973   4.126   8.229 -0.3918 -0.0109 -0.5408
    2SAPS  H14X  252   1.927   4.212   8.282  1.5066  0.2890  0.6610
    2SAPS  H14Y  253   1.913   4.119   8.136 -2.4667 -0.6760  0.7973
    2SAPS  C315  254   2.121   4.155   8.195 -0.0605 -0.2083 -0.0293
    2SAPS  H15X  255   2.156   4.073   8.128  0.9752 -0.5878  0.9641
    2SAPS  H15Y  256   2.189   4.158   8.283 -1.4096 -1.8445  1.1093
    2SAPS  C316  257   2.158   4.285   8.120 -0.1953 -0.2541 -0.1356
    2SAPS  H16X  258   2.263   4.287   8.084  1.0004  0.0509  3.2464
    2SAPS  H16Y  259   2.147   4.365   8.195  0.1762 -0.0539 -0.2932
    2SAPS  C317  260   2.066   4.324   8.000  0.1989 -0.4368 -0.9254
    2SAPS  H17X  261   1.959   4.318   8.028 -0.1325 -1.8465 -2.4202
    2SAPS  H17Y  262   2.074   4.261   7.909  0.2906  0.0388 -1.2495
    2SAPS  C318  263   2.096   4.463   7.943 -0.7973  0.2808 -0.8466
    2SAPS  H18X  264   2.041   4.539   8.002  0.0496  0.1558  0.1076
    2SAPS  H18Y  265   2.073   4.476   7.835  0.0309  1.5169 -0.8711
    2SAPS  H18Z  266   2.206   4.476   7.949 -0.4952 -1.4791 -2.1091
    3SAPS     N  267   2.057   5.538  10.094 -0.0842 -0.4448 -0.1695
    3SAPS   HN1  268   2.076   5.610  10.166 -0.1675 -0.5988  0.0045
    3SAPS   HN2  269   2.124   5.458  10.090  1.4123  0.7963 -0.6993
    3SAPS   HN3  270   2.066   5.596  10.008 -0.7080  0.7426  0.5462
    3SAPS   C12  271   1.913   5.503  10.102 -0.6258  0.4108 -0.2196
    3SAPS  H12A  272   1.887   5.460  10.197  0.6645 -0.9886 -0.4872
    3SAPS   C13  273   1.816   5.626  10.083 -0.3328 -0.5676 -0.2506
    3SAPS  O13A  274   1.867   5.742  10.063  0.2480 -0.3658 -0.2143
    3SAPS  O13B  275   1.695   5.610  10.112  0.1556  0.1181 -0.3516
    3SAPS   C11  276   1.887   5.397   9.987 -0.2550  0.0557 -0.8125
    3SAPS  H11A  277   1.931   5.439   9.894  0.2272  3.9408  1.0833
    3SAPS  H11B  278   1.778   5.377   9.980  0.0803 -1.6520 -1.5323
    3SAPS     P  279   1.936   5.142   9.932  0.1972  0.0889 -0.0167
    3SAPS   O13  280   2.032   5.130   9.827  0.1128 -0.2739 -0.0886
    3SAPS   O14  281   1.937   5.027  10.022  0.2010  0.6964  0.7590
    3SAPS   O12  282   1.956   5.271  10.021  0.0742 -0.2598 -0.1922
    3SAPS   O11  283   1.787   5.165   9.864 -0.9257  0.1785 -0.3024
    3SAPS    C1  284   1.674   5.121   9.948  0.0289 -0.5735  0.1497
    3SAPS    HA  285   1.696   5.015   9.975  0.5128 -0.4338  0.3124
    3SAPS    HB  286   1.657   5.187  10.036  0.2426  0.1036 -0.3219
    3SAPS    C2  287   1.539   5.143   9.878 -0.6382  0.8287 -0.2203
    3SAPS    HS  288   1.463   5.085   9.934 -0.1153 -0.9871 -1.3670
    3SAPS   O21  289   1.538   5.111   9.735  0.2798 -0.4424  0.5598
    3SAPS   C21  290   1.570   4.979   9.707 -0.3263 -0.2073 -0.2828
    3SAPS   O22  291   1.572   4.887   9.782 -0.0563  0.1043  0.7418
    3SAPS   C22  292   1.622   4.968   9.564  0.2254 -0.0705 -0.7290
    3SAPS   H2R  293   1.558   5.026   9.495 -1.9656 -1.1225  0.3577
    3SAPS   H2S  294   1.726   5.007   9.573 -0.8458  2.8641 -0.4589
    3SAPS    C3  295   1.489   5.287   9.885 -0.4991  0.1753  0.1774
    3SAPS    HX  296   1.496   5.328   9.988 -1.9020 -0.0650  0.3830
    3SAPS    HY  297   1.379   5.285   9.869 -0.4724 -0.0326  0.0238
    3SAPS   O31  298   1.553   5.371   9.784  0.5987 -0.4087  0.8007
    3SAPS   C31  299   1.476   5.444   9.707  0.9408 -0.3376  0.2033
    3SAPS   O32  300   1.356   5.465   9.716 -0.0040 -0.4583 -0.0484
    3SAPS   C32  301   1.568   5.526   9.613 -0.0490  0.6257  0.3154
    3SAPS   H2X  302   1.664   5.546   9.665  0.0606  0.9311  0.0024
    3SAPS   H2Y  303   1.523   5.625   9.589 -0.6802  0.5942  1.3464
    3SAPS   C23  304   1.634   4.828   9.512 -1.0379 -0.4153 -0.4716
    3SAPS   H3R  305   1.542   4.766   9.523  0.9637 -3.0505  2.0334
    3SAPS   H3S  306   1.718   4.775   9.562 -0.6581  0.2862 -0.3616
    3SAPS   C24  307   1.656   4.826   9.359 -0.2110  0.2070  1.1415
    3SAPS   H4R  308   1.570   4.878   9.312  1.6490  2.6201  0.2523
    3SAPS   H4S  309   1.663   4.725   9.313  0.6089  0.9108 -0.3416
    3SAPS   C25  310   1.785   4.904   9.332 -0.3109 -0.0140  0.0208
    3SAPS   H5R  311   1.786   5.009   9.366  2.5084  1.0487 -3.0892
    3SAPS   C26  312   1.897   4.863   9.271  0.6398 -0.2007 -0.8650
    3SAPS   H6R  313   1.968   4.945   9.257 -1.1750  1.7820  1.1480
    3SAPS   C27  314   1.919   4.729   9.201 -0.2160 -0.2390  0.3848
    3SAPS   H7R  315   1.875   4.652   9.268 -2.4660 -1.5337 -2.4422
    3SAPS   H7S  316   2.027   4.702   9.194  0.1435  0.4923  2.6794
    3SAPS   C28  317   1.865   4.736   9.061 -0.0743 -0.8572  0.3850
    3SAPS   H8R  318   1.784   4.811   9.057  2.3628  1.9724  1.9979
    3SAPS   C29  319   1.899   4.682   8.948  0.1881 -0.4902  0.5065
    3SAPS   H9R  320   1.854   4.718   8.854 -0.3100  0.2839  1.0318
    3SAPS  C210  321   2.013   4.587   8.924  0.1766 -0.3488 -0.1174
    3SAPS  H10R  322   1.992   4.495   8.865  1.1217  0.3910 -1.6345
    3SAPS  H10S  323   2.047   4.552   9.023  1.7179  1.0368 -0.1342
    3SAPS  C211  324   2.129   4.650   8.849  0.4465  0.0506 -0.0662
    3SAPS  H11R  325   2.208   4.685   8.918 -0.1901 -1.1175  1.2689
    3SAPS  C212  326   2.136   4.690   8.723  0.3570 -0.5461  0.6281
    3SAPS  H12R  327   2.236   4.720   8.688  0.6722 -1.5502  0.6299
    3SAPS  C213  328   2.028   4.670   8.620  0.2026 -0.0335  0.2075
    3SAPS  H13R  329   1.928   4.704   8.657  0.8528 -0.6635  2.6731
    3SAPS  H13S  330   2.035   4.561   8.601  0.7445  0.3983 -2.2338
    3SAPS  C214  331   2.062   4.744   8.489  0.4343  0.0815 -0.5825
    3SAPS  H14R  332   2.125   4.834   8.486 -0.7771  1.0724  2.3162
    3SAPS  C215  333   2.013   4.687   8.369 -0.1514  0.0459  0.0502
    3SAPS  H15R  334   2.043   4.735   8.275 -1.2686 -0.6239 -0.6631
    3SAPS  C216  335   1.929   4.562   8.348 -0.0010  0.5097  0.5650
    3SAPS  H16R  336   1.963   4.485   8.421  0.5913 -0.5267 -0.7696
    3SAPS  H16S  337   1.945   4.518   8.247  0.0303 -0.0329  0.8007
    3SAPS  C217  338   1.784   4.575   8.370  0.0798  0.1645 -0.1930
    3SAPS  H17R  339   1.745   4.661   8.312  0.4660 -0.9666 -2.1919
    3SAPS  H17S  340   1.765   4.596   8.477 -0.3861  2.1537 -0.6614
    3SAPS  C218  341   1.704   4.441   8.345 -0.1415 -0.1670 -0.0245
    3SAPS  H18R  342   1.606   4.450   8.396  0.5562 -1.6033  1.6088
    3SAPS  H18S  343   1.751   4.351   8.389  1.8752  0.5166 -0.7333
    3SAPS  C219  344   1.671   4.423   8.196 -0.5581 -0.4158 -1.4888
    3SAPS  H19R  345   1.757   4.447   8.129  0.7595 -2.4714 -0.5849
    3SAPS  H19S  346   1.595   4.490   8.151 -0.9652  0.3954  0.3622
    3SAPS  C220  347   1.627   4.282   8.159  0.0870  0.1036 -0.1322
    3SAPS  H20R  348   1.703   4.205   8.184 -0.7583 -0.2673  1.3629
    3SAPS  H20S  349   1.610   4.268   8.050  0.6527  1.3044 -0.3824
    3SAPS  H20T  350   1.530   4.254   8.205  1.2955  0.1040  2.4739
    3SAPS   C33  351   1.593   5.458   9.478  0.0458  0.1814 -0.0900
    3SAPS   H3X  352   1.648   5.525   9.408  1.6327 -0.8005  0.1986
    3SAPS   H3Y  353   1.496   5.427   9.434  0.7978  1.6526 -2.8841
    3SAPS   C34  354   1.690   5.337   9.494 -0.2280 -0.1505 -0.1823
    3SAPS   H4X  355   1.641   5.243   9.529  0.5109 -0.8470 -1.0057
    3SAPS   H4Y  356   1.760   5.362   9.577  1.5803  1.3531 -2.1078
    3SAPS   C35  357   1.774   5.306   9.364 -0.1546  0.1957  1.0584
    3SAPS   H5X  358   1.860   5.243   9.395  0.4910 -0.4005 -1.7982
    3SAPS   H5Y  359   1.817   5.403   9.331 -0.9109  0.2141  0.1267
    3SAPS   C36  360   1.683   5.257   9.247  0.2891 -0.8330  0.6877
    3SAPS   H6X  361   1.631   5.348   9.210  1.0580 -0.3331  0.8296
    3SAPS   H6Y  362   1.614   5.173   9.270  0.1094 -0.9777 -0.3702
    3SAPS   C37  363   1.779   5.207   9.136 -0.5384 -0.5447 -0.6185
    3SAPS   H7X  364   1.861   5.149   9.184 -2.7159 -1.3110  2.3589
    3SAPS   H7Y  365   1.820   5.294   9.081 -0.8799 -0.9108 -1.4588
    3SAPS   C38  366   1.697   5.131   9.036 -0.5493  0.5139  0.0818
    3SAPS   H8X  367   1.608   5.188   9.003 -0.8269 -1.3498 -2.5446
    3SAPS   H8Y  368   1.661   5.040   9.088 -0.2594  0.2149 -0.2438
    3SAPS   C39  369   1.764   5.093   8.906 -0.4272  0.2584  0.1807
    3SAPS   H9X  370   1.856   5.036   8.930 -0.1010  0.4527 -0.5787
    3SAPS   H9Y  371   1.809   5.186   8.864 -0.3877 -0.9376 -2.5804
    3SAPS  C310  372   1.665   5.035   8.803 -0.0100 -0.1288  0.1839
    3SAPS  H10X  373   1.572   5.096   8.813  0.3427  0.7355 -1.5653
    3SAPS  H10Y  374   1.632   4.931   8.821  0.0939 -0.0344  0.9179
    3SAPS  C311  375   1.717   5.030   8.651 -0.4809  0.0481  0.1286
    3SAPS  H11X  376   1.816   4.980   8.658  0.8406  2.7214  1.3732
    3SAPS  H11Y  377   1.731   5.136   8.620  0.3905 -0.1835 -0.2887
    3SAPS  C312  378   1.626   4.962   8.551  0.8809 -0.8363 -0.1070
    3SAPS  H12X  379   1.539   5.029   8.536  2.7790  0.8601 -4.3912
    3SAPS  H12Y  380   1.598   4.864   8.596  2.1621 -0.8493  0.6942
    3SAPS  C313  381   1.690   4.941   8.405  0.6068 -0.2166 -0.2806
    3SAPS  H13X  382   1.610   4.901   8.339  1.0513 -1.0010 -0.3417
    3SAPS  H13Y  383   1.763   4.858   8.416  0.0873 -0.4666  1.3559
    3SAPS  C314  384   1.761   5.062   8.338 -0.6759  0.2166 -0.3652
    3SAPS  H14X  385   1.821   5.098   8.425 -0.5673  0.6839 -0.6269
    3SAPS  H14Y  386   1.693   5.146   8.310 -0.4063  0.5050 -0.1658
    3SAPS  C315  387   1.871   5.024   8.238 -0.2065 -0.7107  0.5296
    3SAPS  H15X  388   1.824   4.947   8.173  0.9400 -0.5186 -0.5442
    3SAPS  H15Y  389   1.950   4.965   8.289  1.3737  0.8168 -0.1252
    3SAPS  C316  390   1.932   5.133   8.151  0.0976  0.1069 -0.5600
    3SAPS  H16X  391   1.992   5.203   8.213 -2.0897  1.0822  0.5108
    3SAPS  H16Y  392   1.856   5.193   8.096  0.8791  0.0851 -1.6786
    3SAPS  C317  393   2.042   5.078   8.048  0.2584 -0.0818  0.9950
    3SAPS  H17X  394   1.994   5.010   7.974  0.3081  2.8463 -1.8210
    3SAPS  H17Y  395   2.121   5.027   8.108  0.3522  1.0185  1.8257
    3SAPS  C318  396   2.115   5.188   7.968  0.3490 -0.4211 -0.0401
    3SAPS  H18X  397   2.173   5.255   8.035  1.3103 -0.6861 -0.6005
    3SAPS  H18Y  398   2.055   5.251   7.899  1.5406 -1.8826 -2.4658
    3SAPS  H18Z  399   2.192   5.143   7.902 -1.0147  0.0016 -1.9495
    4SAPS     N  400   3.907   6.786   9.828  0.0293  0.3850  0.7357
    4SAPS   HN1  401   3.852   6.791   9.917  1.1391  0.2521  1.4396
    4SAPS   HN2  402   3.844   6.811   9.750  0.5860 -1.2603 -0.2613
    4SAPS   HN3  403   3.953   6.694   9.816  2.6889  1.6490  0.9096
    4SAPS   C12  404   4.012   6.894   9.845  0.1347  0.0460 -0.2536
    4SAPS  H12A  405   4.057   6.902   9.748 -1.6126 -0.4966 -1.1374
    4SAPS   C13  406   3.949   7.029   9.870  0.2639  0.0515 -0.1081
    4SAPS  O13A  407   3.825   7.037   9.897  0.0613 -0.0960  0.3239
    4SAPS  O13B  408   4.024   7.130   9.890  0.1804 -0.3838 -0.5872
    4SAPS   C11  409   4.110   6.865   9.967 -0.0830 -0.8061 -0.6212
    4SAPS  H11A  410   4.058   6.862  10.065  1.1532  2.8190  0.2533
    4SAPS  H11B  411   4.177   6.954   9.965  0.0270 -0.8363  0.8657
    4SAPS     P  412   4.306   6.690  10.011 -0.4033 -0.0319 -0.2902
    4SAPS   O13  413   4.414   6.788  10.002  0.6547  0.7459 -0.1395
    4SAPS   O14  414   4.262   6.661  10.149  0.5280  0.5876 -0.0397
    4SAPS   O12  415   4.182   6.747   9.930 -0.7132  0.4522 -0.1263
    4SAPS   O11  416   4.358   6.564   9.933  0.0430  0.0913  0.1979
    4SAPS    C1  417   4.325   6.427   9.971 -0.1346  0.0733  0.8174
    4SAPS    HA  418   4.422   6.375   9.984  1.4194  2.2457 -1.5326
    4SAPS    HB  419   4.277   6.419  10.071  1.1133  0.7576  1.4902
    4SAPS    C2  420   4.245   6.349   9.866 -0.9568  0.4261 -0.1921
    4SAPS    HS  421   4.245   6.241   9.893  0.3958  1.3387  3.7444
    4SAPS   O21  422   4.303   6.385   9.737  0.1889  0.1518  0.7015
    4SAPS   C21  423   4.427   6.358   9.724 -0.7341 -0.5476  0.1268
    4SAPS   O22  424   4.482   6.265   9.785  0.5520  0.5632  0.6526
    4SAPS   C22  425   4.498   6.460   9.626 -0.6411  0.4171  0.6477
    4SAPS   H2R  426   4.541   6.395   9.546 -0.4063  1.2466  0.0909
    4SAPS   H2S  427   4.417   6.510   9.568 -0.5039 -1.1296 -0.9519
    4SAPS    C3  428   4.099   6.405   9.877  0.7794  0.7241 -0.2576
    4SAPS    HX  429   4.108   6.499   9.818 -3.1292 -0.1936 -2.5346
    4SAPS    HY  430   4.059   6.436   9.976 -0.8213 -2.1374  0.0484
    4SAPS   O31  431   3.998   6.322   9.813  0.0285 -0.3791 -0.0016
    4SAPS   C31  432   3.907   6.393   9.751 -0.0955  0.9090  0.6442
    4SAPS   O32  433   3.902   6.514   9.731 -0.1020 -0.3078 -0.2896
    4SAPS   C32  434   3.800   6.290   9.704  0.0663 -0.1496  0.3913
    4SAPS   H2X  435   3.745   6.265   9.797  2.1033 -0.2073  1.6173
    4SAPS   H2Y  436   3.854   6.199   9.670 -2.4775 -1.6290  0.1856
    4SAPS   C23  437   4.600   6.552   9.682  0.2945  0.4103  0.0316
    4SAPS   H3R  438   4.686   6.496   9.726  0.5994  0.0839 -0.9755
    4SAPS   H3S  439   4.560   6.616   9.764  1.2369  0.7967  0.1945
    4SAPS   C24  440   4.680   6.646   9.580  0.3428  0.3163  0.1050
    4SAPS   H4R  441   4.718   6.577   9.503 -1.3275 -2.2665  1.5015
    4SAPS   H4S  442   4.760   6.690   9.643 -0.4566 -0.6896  1.8590
    4SAPS   C25  443   4.593   6.754   9.515  0.4099 -0.7052  0.3131
    4SAPS   H5R  444   4.567   6.834   9.585  0.0257 -1.2869  0.8374
    4SAPS   C26  445   4.557   6.767   9.381  1.0551 -0.4320  0.4108
    4SAPS   H6R  446   4.496   6.854   9.352  0.2939 -0.7882  0.9224
    4SAPS   C27  447   4.600   6.670   9.266 -0.3034  0.6024 -0.0923
    4SAPS   H7R  448   4.565   6.570   9.299  0.2668  1.2792  2.6601
    4SAPS   H7S  449   4.709   6.657   9.251 -0.6680 -0.9202 -1.6013
    4SAPS   C28  450   4.538   6.682   9.132 -0.0277  0.0450  0.8978
    4SAPS   H8R  451   4.439   6.730   9.131  1.1037  2.4791  1.8722
    4SAPS   C29  452   4.584   6.640   9.016  0.4053 -0.3332 -0.5817
    4SAPS   H9R  453   4.515   6.650   8.931  1.6336  3.4456 -1.2519
    4SAPS  C210  454   4.711   6.565   8.979 -0.0321 -0.0523 -0.1531
    4SAPS  H10R  455   4.691   6.458   8.997  0.3393  0.1812  1.7331
    4SAPS  H10S  456   4.790   6.578   9.056  0.3620 -3.2961  0.0349
    4SAPS  C211  457   4.771   6.585   8.836  0.1337 -0.1211 -1.2221
    4SAPS  H11R  458   4.787   6.691   8.810  0.5130 -0.2297 -1.4380
    4SAPS  C212  459   4.801   6.496   8.741 -0.2580 -0.4797  0.0528
    4SAPS  H12R  460   4.841   6.530   8.644 -0.7114 -1.4338 -0.4884
    4SAPS  C213  461   4.787   6.351   8.748 -1.3792 -0.3023 -0.9490
    4SAPS  H13R  462   4.699   6.329   8.683 -1.2494  0.8165 -1.5246
    4SAPS  H13S  463   4.762   6.329   8.854 -2.4817 -1.6175 -1.4599
    4SAPS  C214  464   4.905   6.271   8.701 -0.0298 -0.5250 -0.2275
    4SAPS  H14R  465   5.000   6.298   8.749 -0.5929  0.4171  0.3671
    4SAPS  C215  466   4.895   6.174   8.607  0.2026  0.1140  0.5349
    4SAPS  H15R  467   4.983   6.119   8.572 -1.0531  0.0991 -2.7851
    4SAPS  C216  468   4.771   6.124   8.534  0.3888 -0.7175  0.3779
    4SAPS  H16R  469   4.760   6.189   8.445 -1.5336 -2.1390 -0.4614
    4SAPS  H16S  470   4.680   6.143   8.594 -1.1024  0.6860 -2.2503
    4SAPS  C217  471   4.772   5.977   8.481 -0.3183 -0.5948  0.3931
    4SAPS  H17R  472   4.776   5.908   8.568  0.5311 -2.4512 -1.0907
    4SAPS  H17S  473   4.859   5.961   8.413 -1.4339 -1.1873 -0.9372
    4SAPS  C218  474   4.636   5.928   8.414 -0.0128  0.1013  0.3084
    4SAPS  H18R  475   4.631   5.983   8.318 -0.5562  1.0053  0.8542
    4SAPS  H18S  476   4.551   5.952   8.480  0.2844 -2.1358  1.5534
    4SAPS  C219  477   4.646   5.780   8.379  0.3524 -0.1343 -0.4075
    4SAPS  H19R  478   4.561   5.738   8.322  0.6764 -1.0050 -0.2523
    4SAPS  H19S  479   4.635   5.706   8.461  0.9952 -0.6771 -0.8052
    4SAPS  C220  480   4.769   5.746   8.297 -0.3389  0.6915  0.6517
    4SAPS  H20R  481   4.774   5.810   8.206 -0.0944  0.2636  0.3615
    4SAPS  H20S  482   4.774   5.638   8.272 -1.3706  0.2878  2.0948
    4SAPS  H20T  483   4.860   5.755   8.359 -0.2014  0.8369  0.4282
    4SAPS   C33  484   3.713   6.344   9.593 -0.0455  0.1373  0.9908
    4SAPS   H3X  485   3.693   6.453   9.602  1.6349  0.4908  0.6288
    4SAPS   H3Y  486   3.611   6.300   9.600 -0.5780  1.1808  0.0508
    4SAPS   C34  487   3.770   6.325   9.453  0.2949  0.2601  0.0776
    4SAPS   H4X  488   3.814   6.229   9.419  1.4224  0.8624 -0.1907
    4SAPS   H4Y  489   3.849   6.403   9.450  1.0134 -0.4889 -1.1970
    4SAPS   C35  490   3.660   6.364   9.348 -0.1374 -0.3568  0.1272
    4SAPS   H5X  491   3.625   6.461   9.387 -0.4617 -0.3614 -0.1534
    4SAPS   H5Y  492   3.570   6.299   9.359  0.1208 -0.2267  3.7247
    4SAPS   C36  493   3.721   6.379   9.208 -0.0305 -0.0730 -0.1614
    4SAPS   H6X  494   3.642   6.378   9.131  1.5813 -2.2256 -1.8333
    4SAPS   H6Y  495   3.786   6.293   9.183  0.0814  0.2812 -1.0865
    4SAPS   C37  496   3.802   6.510   9.193 -0.3984 -0.3255 -0.1272
    4SAPS   H7X  497   3.873   6.515   9.278 -0.0400 -1.1017 -0.3827
    4SAPS   H7Y  498   3.741   6.602   9.203 -0.7965 -0.2491 -2.9162
    4SAPS   C38  499   3.883   6.514   9.065 -0.4656  0.6389  0.4523
    4SAPS   H8X  500   3.815   6.541   8.982 -1.0244  2.0936  1.3670
    4SAPS   H8Y  501   3.936   6.418   9.043  0.7104  1.5657 -0.8882
    4SAPS   C39  502   3.987   6.632   9.065  0.0450 -0.0317 -0.6428
    4SAPS   H9X  503   4.062   6.593   9.137  0.9986 -1.1399 -2.2177
    4SAPS   H9Y  504   3.956   6.729   9.110 -1.0593  0.2921 -2.0644
    4SAPS  C310  505   4.072   6.651   8.941 -0.2951 -0.9139 -0.0442
    4SAPS  H10X  506   4.132   6.745   8.944  1.2517 -1.8882  0.2980
    4SAPS  H10Y  507   3.986   6.660   8.872 -0.4668 -0.8899  0.1725
    4SAPS  C311  508   4.154   6.535   8.899 -0.1832  0.8563  0.0583
    4SAPS  H11X  509   4.091   6.455   8.854 -0.4393  1.1011 -0.0185
    4SAPS  H11Y  510   4.199   6.481   8.985  1.1258 -1.1636 -1.8438
    4SAPS  C312  511   4.259   6.569   8.796  0.5888  0.2685  0.3217
    4SAPS  H12X  512   4.313   6.663   8.823 -0.2949  0.6703  0.7119
    4SAPS  H12Y  513   4.211   6.587   8.697 -0.7146  0.0738  0.9174
    4SAPS  C313  514   4.369   6.467   8.771 -0.2636 -0.2349 -0.1381
    4SAPS  H13X  515   4.415   6.443   8.869 -0.4289  1.8273  0.4590
    4SAPS  H13Y  516   4.443   6.509   8.700 -1.2404  3.0004  0.7062
    4SAPS  C314  517   4.316   6.332   8.719 -0.0043 -0.4807  0.6323
    4SAPS  H14X  518   4.253   6.274   8.790  0.7739 -2.5020 -0.2974
    4SAPS  H14Y  519   4.406   6.271   8.694 -1.2915 -0.9676 -3.1445
    4SAPS  C315  520   4.237   6.348   8.588  0.1070 -0.1761  0.5820
    4SAPS  H15X  521   4.305   6.383   8.508  0.2284 -2.0299 -0.1616
    4SAPS  H15Y  522   4.160   6.427   8.603 -0.2573  0.0320 -2.2452
    4SAPS  C316  523   4.169   6.216   8.563 -0.1667  0.3370 -0.3029
    4SAPS  H16X  524   4.132   6.215   8.458 -0.7624  1.3705 -0.1142
    4SAPS  H16Y  525   4.073   6.209   8.619 -0.0753 -0.9734 -0.2952
    4SAPS  C317  526   4.242   6.076   8.568 -0.3708  0.2242 -0.3268
    4SAPS  H17X  527   4.287   6.057   8.668 -3.9249 -0.7412  1.1586
    4SAPS  H17Y  528   4.334   6.080   8.506 -0.9189 -0.6666 -1.2149
    4SAPS  C318  529   4.148   5.962   8.519 -1.1120 -0.1344  0.1971
    4SAPS  H18X  530   4.113   5.983   8.416 -0.9344 -0.0308  0.1581
    4SAPS  H18Y  531   4.072   5.954   8.600 -0.5861 -0.0200  0.7059
    4SAPS  H18Z  532   4.207   5.868   8.515  0.2560  0.6997  0.3237
    5SAPS     N  533   6.132   5.264  10.276  0.2655  0.4591  0.6055
    5SAPS   HN1  534   6.096   5.244  10.181 -0.8865  0.9280  0.9446
    5SAPS   HN2  535   6.162   5.171  10.312 -1.0061 -1.2578 -2.5442
    5SAPS   HN3  536   6.055   5.296  10.338 -1.5552 -0.8738 -0.9275
    5SAPS   C12  537   6.247   5.358  10.263  0.0651 -0.8853  0.4518
    5SAPS  H12A  538   6.195   5.451  10.242  0.9173 -0.3716  0.6098
    5SAPS   C13  539   6.343   5.378  10.388  0.1884  0.2690  0.3200
    5SAPS  O13A  540   6.318   5.329  10.500 -1.0470  1.0815  0.0448
    5SAPS  O13B  541   6.437   5.461  10.368 -0.0393  0.1346 -0.2015
    5SAPS   C11  542   6.337   5.316  10.142  0.4333  0.0757  0.2429
    5SAPS  H11A  543   6.374   5.212  10.157  2.4490  1.0027  2.0676
    5SAPS  H11B  544   6.429   5.376  10.126  1.1495 -1.2378 -0.6965
    5SAPS     P  545   6.278   5.220   9.896 -0.2178  0.0805  0.2988
    5SAPS   O13  546   6.226   5.082   9.939 -0.0296 -0.3495  0.0446
    5SAPS   O14  547   6.244   5.265   9.763 -0.0693  0.2832  0.0683
    5SAPS   O12  548   6.259   5.326  10.022  0.0618 -0.6510  0.7696
    5SAPS   O11  549   6.440   5.210   9.903 -0.2651  0.3837 -0.1781
    5SAPS    C1  550   6.498   5.158   9.786  0.2993 -0.3642 -0.0312
    5SAPS    HA  551   6.459   5.055   9.772 -1.7398  0.1844  1.4708
    5SAPS    HB  552   6.477   5.228   9.702 -0.3381 -3.1793 -2.3280
    5SAPS    C2  553   6.655   5.144   9.801  0.0365  0.0733 -0.3043
    5SAPS    HS  554   6.702   5.238   9.837  0.0440  0.7054 -1.9454
    5SAPS   O21  555   6.706   5.097   9.676  0.1251 -0.0347 -0.0886
    5SAPS   C21  556   6.711   5.189   9.585 -0.2919  0.1074  0.6077
    5SAPS   O22  557   6.672   5.303   9.590 -0.3393 -0.1063 -0.3382
    5SAPS   C22  558   6.785   5.122   9.464  0.5391  0.5382  0.4770
    5SAPS   H2R  559   6.893   5.139   9.484  0.9641 -1.3735 -0.1414
    5SAPS   H2S  560   6.760   5.014   9.459  1.2452  0.3760  0.4120
    5SAPS    C3  561   6.689   5.050   9.925  0.1510  0.6705  0.0561
    5SAPS    HX  562   6.632   5.103  10.005  0.2726 -0.2001  0.7288
    5SAPS    HY  563   6.797   5.058   9.947  0.1506  0.2141  0.2319
    5SAPS   O31  564   6.645   4.917   9.900  0.7793 -0.1073  0.4782
    5SAPS   C31  565   6.739   4.825   9.882  0.4899  0.3448  0.5051
    5SAPS   O32  566   6.850   4.831   9.924 -0.8730  0.2641  0.2484
    5SAPS   C32  567   6.683   4.691   9.816 -0.2670  0.5146  0.9059
    5SAPS   H2X  568   6.576   4.683   9.787  0.1439  0.3880 -0.6039
    5SAPS   H2Y  569   6.700   4.613   9.893 -0.9563  0.8646  1.4180
    5SAPS   C23  570   6.745   5.209   9.335 -0.4983 -0.4439 -0.4073
    5SAPS   H3R  571   6.773   5.313   9.363  1.0374 -0.9469 -0.0275
    5SAPS   H3S  572   6.634   5.205   9.336 -0.5154 -0.0190 -0.0758
    5SAPS   C24  573   6.803   5.153   9.209 -0.4830 -0.1861 -0.2740
    5SAPS   H4R  574   6.910   5.142   9.238 -0.6679  0.5277  0.7240
    5SAPS   H4S  575   6.808   5.235   9.134  1.5574 -0.6612 -0.7071
    5SAPS   C25  576   6.754   5.023   9.159  0.0356  0.8121  0.0546
    5SAPS   H5R  577   6.681   4.971   9.224  0.8846  0.2691  0.5789
    5SAPS   C26  578   6.783   4.970   9.038  0.6707  0.1930  0.5107
    5SAPS   H6R  579   6.751   4.871   9.001  0.1780  0.7781 -0.6499
    5SAPS   C27  580   6.872   5.039   8.936  0.0613 -0.2429 -0.3516
    5SAPS   H7R  581   6.976   5.004   8.955 -0.1698  0.7726  3.1757
    5SAPS   H7S  582   6.868   5.150   8.949  0.5725 -0.3218  0.5753
    5SAPS   C28  583   6.836   5.022   8.786  0.3302 -0.5224  0.0642
    5SAPS   H8R  584   6.760   5.093   8.750 -0.1672 -2.0046 -1.8690
    5SAPS   C29  585   6.884   4.929   8.705  0.8000 -0.2187 -1.3852
    5SAPS   H9R  586   6.851   4.924   8.600  2.3612 -1.1867 -1.8589
    5SAPS  C210  587   6.984   4.828   8.755 -0.7220  0.0342  0.0409
    5SAPS  H10R  588   6.976   4.815   8.865 -0.8660 -0.6241 -0.0462
    5SAPS  H10S  589   7.087   4.866   8.737 -1.2830  0.5809 -2.1443
    5SAPS  C211  590   6.959   4.689   8.693 -0.1088  0.2343  0.3870
    5SAPS  H11R  591   6.861   4.685   8.642 -0.6368  2.0012  1.1962
    5SAPS  C212  592   7.057   4.593   8.682  0.5376  0.5444  0.1163
    5SAPS  H12R  593   7.018   4.501   8.637  0.4021 -1.0097  3.2877
    5SAPS  C213  594   7.196   4.604   8.729  0.5915  0.5099 -0.5690
    5SAPS  H13R  595   7.225   4.693   8.789  2.9788 -0.6721  0.0588
    5SAPS  H13S  596   7.243   4.637   8.633 -2.7056  2.3388 -1.6327
    5SAPS  C214  597   7.260   4.482   8.789 -0.0878  0.5655 -0.1030
    5SAPS  H14R  598   7.270   4.491   8.898  0.0463 -2.3899  0.1594
    5SAPS  C215  599   7.315   4.379   8.721  0.0426  0.6652  0.1192
    5SAPS  H15R  600   7.350   4.291   8.778  1.2553  1.0431 -0.0172
    5SAPS  C216  601   7.316   4.370   8.570 -0.1576  0.5716 -0.2193
    5SAPS  H16R  602   7.249   4.438   8.512 -0.3311 -1.6020 -2.6451
    5SAPS  H16S  603   7.271   4.271   8.546  0.7792 -0.3034  1.4944
    5SAPS  C217  604   7.462   4.381   8.520 -0.3346 -0.4181 -0.7294
    5SAPS  H17R  605   7.523   4.308   8.577 -0.2823 -0.3644 -0.7175
    5SAPS  H17S  606   7.501   4.483   8.536  0.3949 -1.0947  2.0275
    5SAPS  C218  607   7.472   4.323   8.375 -0.5868 -0.2954  0.1222
    5SAPS  H18R  608   7.579   4.321   8.344 -0.9509 -0.4689 -1.1785
    5SAPS  H18S  609   7.442   4.217   8.366  0.1029 -0.7906  3.3634
    5SAPS  C219  610   7.416   4.420   8.273  0.3145 -0.0802  0.4210
    5SAPS  H19R  611   7.472   4.515   8.287  1.8246 -0.7343 -1.0770
    5SAPS  H19S  612   7.307   4.429   8.291  0.1112 -1.7352  0.0660
    5SAPS  C220  613   7.435   4.373   8.126 -0.2550  0.4841 -0.0892
    5SAPS  H20R  614   7.539   4.364   8.089 -0.5810 -2.3658 -0.4347
    5SAPS  H20S  615   7.379   4.445   8.062 -0.3133  0.8828  0.4046
    5SAPS  H20T  616   7.381   4.276   8.119 -0.9107  0.8018  0.5066
    5SAPS   C33  617   6.773   4.650   9.698  0.2041 -0.3224 -0.6159
    5SAPS   H3X  618   6.751   4.543   9.680  0.1067 -0.2575 -0.8870
    5SAPS   H3Y  619   6.877   4.655   9.737  0.0781 -0.3565 -0.2708
    5SAPS   C34  620   6.741   4.735   9.568  0.0637  0.2387  0.0629
    5SAPS   H4X  621   6.759   4.845   9.570 -0.0944  0.2705 -0.1709
    5SAPS   H4Y  622   6.631   4.725   9.561 -0.0289 -0.8289  2.6222
    5SAPS   C35  623   6.799   4.680   9.427  0.1740  0.2302 -0.2316
    5SAPS   H5X  624   6.717   4.712   9.359 -1.5295  3.0619  3.0184
    5SAPS   H5Y  625   6.790   4.570   9.437  1.7297  0.1689  0.5970
    5SAPS   C36  626   6.936   4.735   9.385  1.0379 -0.0491 -0.7405
    5SAPS   H6X  627   7.014   4.708   9.459 -1.1105  0.4328  1.7826
    5SAPS   H6Y  628   6.923   4.846   9.385 -0.6986 -0.2321 -0.7731
    5SAPS   C37  629   6.964   4.705   9.240  0.3101  0.1172  0.0125
    5SAPS   H7X  630   6.877   4.728   9.176  1.1430 -1.2963 -1.6661
    5SAPS   H7Y  631   6.977   4.596   9.224 -1.7423 -0.3204  1.1521
    5SAPS   C38  632   7.083   4.787   9.187  0.5005  0.3262  0.3465
    5SAPS   H8X  633   7.076   4.894   9.216 -0.7351 -0.1011  1.6641
    5SAPS   H8Y  634   7.072   4.777   9.077  0.5981 -0.1730  0.3787
    5SAPS   C39  635   7.219   4.744   9.247  0.0909  0.2229 -0.1853
    5SAPS   H9X  636   7.233   4.637   9.222  0.2644  0.2031  0.0007
    5SAPS   H9Y  637   7.214   4.766   9.356  2.8919  0.9720 -0.1788
    5SAPS  C310  638   7.350   4.818   9.197  0.1053  0.1543  0.4054
    5SAPS  H10X  639   7.437   4.783   9.256 -1.6281 -2.1742  1.6523
    5SAPS  H10Y  640   7.345   4.927   9.214 -1.1754  0.1307  0.1906
    5SAPS  C311  641   7.365   4.797   9.045 -0.4606  0.4679 -0.0901
    5SAPS  H11X  642   7.277   4.835   8.988 -0.5697  2.1900  1.1647
    5SAPS  H11Y  643   7.357   4.688   9.026  2.4242  0.6046 -2.4355
    5SAPS  C312  644   7.501   4.850   8.991  0.1364  0.1918  0.2361
    5SAPS  H12X  645   7.588   4.820   9.054  0.3210  3.4705  1.6714
    5SAPS  H12Y  646   7.497   4.961   8.988 -0.0087  0.1920  0.3844
    5SAPS  C313  647   7.525   4.799   8.846  0.3617 -0.8221 -0.0179
    5SAPS  H13X  648   7.486   4.696   8.833 -1.9257 -0.2031  1.4955
    5SAPS  H13Y  649   7.635   4.798   8.831  0.0957  0.0375 -2.0873
    5SAPS  C314  650   7.461   4.892   8.733  0.4014  0.5344 -0.0553
    5SAPS  H14X  651   7.497   4.994   8.757 -0.4301  1.1155 -1.1946
    5SAPS  H14Y  652   7.350   4.893   8.741  0.5447  0.8022  2.0322
    5SAPS  C315  653   7.502   4.854   8.593 -0.7738  0.5931 -0.7290
    5SAPS  H15X  654   7.441   4.766   8.564 -1.7953  0.6361  1.2088
    5SAPS  H15Y  655   7.610   4.829   8.590 -0.8623  0.4094 -2.9432
    5SAPS  C316  656   7.466   4.962   8.493 -0.4421  1.1293  0.2828
    5SAPS  H16X  657   7.504   5.057   8.536  0.0174  0.9324  0.3128
    5SAPS  H16Y  658   7.357   4.980   8.494 -0.6184  0.3894 -2.1315
    5SAPS  C317  659   7.524   4.937   8.355  0.0540  0.2394  0.0989
    5SAPS  H17X  660   7.631   4.965   8.355  0.5215 -1.4934  0.5837
    5SAPS  H17Y  661   7.480   5.013   8.287  0.0167  1.6537  1.6590
    5SAPS  C318  662   7.512   4.802   8.276  0.1893 -0.4250  0.0870
    5SAPS  H18X  663   7.579   4.734   8.332 -2.2360 -1.6336  1.6322
    5SAPS  H18Y  664   7.541   4.813   8.170 -1.4629  0.4278 -0.2914
    5SAPS  H18Z  665   7.409   4.760   8.273 -1.3451  3.1576 -1.2092
    6SAPS     N  666   0.242   4.151  10.257  0.8439  0.2004 -0.2521
    6SAPS   HN1  667   0.325   4.203  10.222  0.9886 -0.1541 -0.4430
    6SAPS   HN2  668   0.158   4.168  10.199 -0.1525 -0.7774  0.8669
    6SAPS   HN3  669   0.232   4.183  10.356 -0.9058  1.1315 -0.7220
    6SAPS   C12  670   0.275   4.008  10.254  0.8138  0.3390  0.1443
    6SAPS  H12A  671   0.296   3.981  10.151 -1.5271 -1.1905  0.0307
    6SAPS   C13  672   0.389   3.965  10.354  0.0106  0.5306  0.4585
    6SAPS  O13A  673   0.450   4.049  10.421 -0.2806  0.5629 -0.3673
    6SAPS  O13B  674   0.429   3.848  10.345 -0.4392  0.4331 -0.2615
    6SAPS   C11  675   0.141   3.938  10.293 -0.2923 -0.3469  0.1697
    6SAPS  H11A  676   0.124   3.967  10.399  1.4434 -2.5566  1.1065
    6SAPS  H11B  677   0.159   3.828  10.288 -2.4711 -0.7341  0.4222
    6SAPS     P  678  -0.085   3.877  10.186 -0.1990  0.0680  0.0743
    6SAPS   O13  679  -0.022   3.746  10.152  0.1514 -0.2653  0.8107
    6SAPS   O14  680  -0.177   3.883  10.294  0.1411  0.3540  0.5019
    6SAPS   O12  681   0.028   3.985  10.217 -0.0821  0.4594  0.1532
    6SAPS   O11  682  -0.152   3.942  10.058 -0.3566  0.5807 -0.2290
    6SAPS    C1  683  -0.224   4.060  10.062 -0.2098  0.4089  0.2424
    6SAPS    HA  684  -0.330   4.035  10.086 -1.2890  3.5658 -0.9968
    6SAPS    HB  685  -0.189   4.133  10.139  4.1641 -0.9554 -0.3399
    6SAPS    C2  686  -0.222   4.131   9.927  0.1787  0.2886  0.0215
    6SAPS    HS  687  -0.271   4.069   9.849  0.6833  0.1772 -0.2093
    6SAPS   O21  688  -0.090   4.147   9.882 -0.0925  0.8358  0.2915
    6SAPS   C21  689  -0.035   4.054   9.812 -0.2957  0.3898  0.3136
    6SAPS   O22  690  -0.093   3.956   9.776  0.3292 -0.0502 -0.5301
    6SAPS   C22  691   0.112   4.096   9.772 -0.5496  0.2710 -0.2339
    6SAPS   H2R  692   0.109   4.199   9.731  3.2007 -0.2919 -2.1215
    6SAPS   H2S  693   0.169   4.096   9.867  0.4142  1.6799 -0.7930
    6SAPS    C3  694  -0.297   4.269   9.928  0.5638  0.3381  0.1921
    6SAPS    HX  695  -0.256   4.315  10.021  1.2258 -0.1039  0.1180
    6SAPS    HY  696  -0.406   4.256   9.944  0.2326 -0.1953 -2.3396
    6SAPS   O31  697  -0.287   4.350   9.812 -0.1485 -0.6812 -0.5057
    6SAPS   C31  698  -0.179   4.423   9.801  0.5425  0.5112  0.0004
    6SAPS   O32  699  -0.085   4.435   9.880 -0.5012  0.0007  0.1538
    6SAPS   C32  700  -0.191   4.505   9.675 -0.8098  0.6385 -0.1478
    6SAPS   H2X  701  -0.204   4.614   9.692  1.3492  1.1771 -1.7561
    6SAPS   H2Y  702  -0.289   4.470   9.637 -1.0714  1.6542 -0.4200
    6SAPS   C23  703   0.175   4.003   9.666  0.3799  0.2154  0.5470
    6SAPS   H3R  704   0.106   4.003   9.579 -0.6157 -0.2287  1.3312
    6SAPS   H3S  705   0.183   3.901   9.710 -1.7309 -0.6004 -0.8669
    6SAPS   C24  706   0.308   4.041   9.608  0.1315  0.6140  0.3488
    6SAPS   H4R  707   0.343   3.946   9.561 -1.0058  0.7692 -0.8494
    6SAPS   H4S  708   0.380   4.053   9.692  1.8255  1.2948 -1.1597
    6SAPS   C25  709   0.313   4.153   9.507  0.6389 -0.6947 -0.0779
    6SAPS   H5R  710   0.313   4.254   9.550  1.0494 -0.9493  0.5190
    6SAPS   C26  711   0.311   4.146   9.376  0.6659 -0.0007  0.5186
    6SAPS   H6R  712   0.313   4.243   9.324  0.3175 -1.2954 -1.9768
    6SAPS   C27  713   0.296   4.025   9.293 -0.0965  0.3325 -0.5130
    6SAPS   H7R  714   0.296   3.929   9.349  1.8723  0.3130 -0.5029
    6SAPS   H7S  715   0.391   3.999   9.242 -0.1087 -0.7287 -0.0056
    6SAPS   C28  716   0.176   4.020   9.200 -0.1399  0.3327 -0.8214
    6SAPS   H8R  717   0.087   4.058   9.252  0.5827  2.1112 -0.8553
    6SAPS   C29  718   0.168   3.983   9.071  0.3459 -0.2186 -0.3330
    6SAPS   H9R  719   0.074   3.988   9.015  1.6124  1.9283 -2.3523
    6SAPS  C210  720   0.278   3.934   8.987  0.8990  0.3290  0.3962
    6SAPS  H10R  721   0.237   3.841   8.943 -0.3370  1.0367  0.0402
    6SAPS  H10S  722   0.367   3.903   9.047  1.4080 -1.7340 -1.3749
    6SAPS  C211  723   0.327   4.027   8.873  0.1426 -0.2239 -0.5957
    6SAPS  H11R  724   0.418   4.084   8.897 -0.6634  0.5211  0.7660
    6SAPS  C212  725   0.270   4.045   8.749  0.1768 -0.1802  0.7675
    6SAPS  H12R  726   0.307   4.125   8.685  0.6684  0.8905  2.3548
    6SAPS  C213  727   0.138   3.983   8.698 -0.5522  0.0601  0.1492
    6SAPS  H13R  728   0.077   4.071   8.671  0.7510  0.8766 -0.2066
    6SAPS  H13S  729   0.080   3.939   8.782 -4.3212  3.7021 -0.4137
    6SAPS  C214  730   0.153   3.884   8.585  0.8302  0.1018 -0.0974
    6SAPS  H14R  731   0.254   3.859   8.548  1.1040  1.1253 -0.0392
    6SAPS  C215  732   0.041   3.830   8.527 -0.3171  0.3107 -0.4953
    6SAPS  H15R  733   0.054   3.769   8.436  0.0473 -1.5048  0.7493
    6SAPS  C216  734  -0.102   3.864   8.569  0.0934 -0.8692  0.1974
    6SAPS  H16R  735  -0.106   3.961   8.624  1.7441  0.1956 -1.4732
    6SAPS  H16S  736  -0.151   3.779   8.620 -0.5249 -0.6637 -0.0493
    6SAPS  C217  737  -0.187   3.897   8.443 -0.5085  0.4145 -0.3067
    6SAPS  H17R  738  -0.296   3.885   8.463 -0.7795  1.0390 -1.3549
    6SAPS  H17S  739  -0.171   3.835   8.353 -1.0049  0.1492 -0.2130
    6SAPS  C218  740  -0.153   4.040   8.403  0.4403  0.2213  0.4257
    6SAPS  H18R  741  -0.048   4.044   8.368  0.6726  0.2673  1.1191
    6SAPS  H18S  742  -0.164   4.104   8.493 -2.7209  2.7170 -1.6103
    6SAPS  C219  743  -0.245   4.103   8.303  0.1864  0.2297  0.0215
    6SAPS  H19R  744  -0.201   4.197   8.266 -0.0878 -0.0069 -0.9251
    6SAPS  H19S  745  -0.334   4.128   8.365  1.1145  0.7510  1.1657
    6SAPS  C220  746  -0.294   4.012   8.184 -0.5784  0.5268 -0.0305
    6SAPS  H20R  747  -0.343   3.921   8.224  1.2382 -0.4393  0.0515
    6SAPS  H20S  748  -0.213   3.985   8.112 -2.1365 -1.3240 -1.1289
    6SAPS  H20T  749  -0.370   4.071   8.129  0.9278  1.7884 -0.8279
    6SAPS   C33  750  -0.074   4.489   9.581  0.0147 -0.3738  0.2014
    6SAPS   H3X  751   0.024   4.509   9.630  0.0500 -0.2066  0.0598
    6SAPS   H3Y  752  -0.084   4.571   9.508  0.1027 -1.2025 -0.7477
    6SAPS   C34  753  -0.066   4.342   9.520  0.5470 -0.1787 -0.5879
    6SAPS   H4X  754  -0.162   4.290   9.541 -0.1596  1.1375 -0.5053
    6SAPS   H4Y  755   0.026   4.296   9.563 -0.9521  0.0106  3.0146
    6SAPS   C35  756  -0.060   4.348   9.366  0.4712 -0.7342  0.3416
    6SAPS   H5X  757  -0.150   4.393   9.318  1.1586 -1.1923 -1.4430
    6SAPS   H5Y  758  -0.053   4.241   9.336  1.4313  0.1453 -2.8308
    6SAPS   C36  759   0.063   4.424   9.312  0.1198 -0.6883  0.1677
    6SAPS   H6X  760   0.135   4.385   9.386 -1.6145 -1.4241  1.5147
    6SAPS   H6Y  761   0.054   4.534   9.330  1.2496  0.3854 -5.0411
    6SAPS   C37  762   0.092   4.392   9.168  0.4696 -0.7842 -0.1994
    6SAPS   H7X  763   0.003   4.405   9.103  0.3926  1.4144  0.3260
    6SAPS   H7Y  764   0.116   4.283   9.173  1.6946 -0.4576  1.6868
    6SAPS   C38  765   0.217   4.461   9.118  0.7194  0.1615 -1.1216
    6SAPS   H8X  766   0.299   4.435   9.188  0.3421  0.2181 -0.6553
    6SAPS   H8Y  767   0.217   4.572   9.123  0.7940  0.0938  0.4899
    6SAPS   C39  768   0.257   4.416   8.981 -0.2040 -0.1918  0.2254
    6SAPS   H9X  769   0.174   4.436   8.910 -0.4163 -2.0108 -0.0590
    6SAPS   H9Y  770   0.270   4.306   8.988 -0.0618 -0.1540  0.5872
    6SAPS  C310  771   0.380   4.483   8.918 -0.0673 -0.3257  0.9074
    6SAPS  H10X  772   0.473   4.450   8.970  0.0651 -2.3260 -0.5350
    6SAPS  H10Y  773   0.363   4.592   8.924 -1.0943 -0.2740 -2.1659
    6SAPS  C311  774   0.391   4.423   8.773 -0.3960  1.0209 -0.4970
    6SAPS  H11X  775   0.307   4.458   8.709  0.1881 -0.8656 -2.3276
    6SAPS  H11Y  776   0.378   4.313   8.770  2.3987  0.5642  2.1862
    6SAPS  C312  777   0.521   4.449   8.693 -0.3338  0.0045 -0.4318
    6SAPS  H12X  778   0.498   4.418   8.589  0.4148 -1.0489 -0.2888
    6SAPS  H12Y  779   0.616   4.416   8.739 -0.1555 -0.6824 -1.2730
    6SAPS  C313  780   0.550   4.602   8.676 -0.4687 -1.4069 -0.2617
    6SAPS  H13X  781   0.557   4.656   8.772 -1.8842 -0.2281 -0.8023
    6SAPS  H13Y  782   0.473   4.646   8.609  0.1826  1.0819  0.5915
    6SAPS  C314  783   0.684   4.624   8.599 -0.1190 -0.1567 -0.3696
    6SAPS  H14X  784   0.771   4.589   8.659  0.9029  1.0124 -1.1314
    6SAPS  H14Y  785   0.698   4.735   8.594 -2.1852  0.2324  1.8360
    6SAPS  C315  786   0.687   4.569   8.459 -0.5729  0.1628  0.0159
    6SAPS  H15X  787   0.588   4.578   8.409  0.0551  0.9921 -1.1123
    6SAPS  H15Y  788   0.702   4.459   8.464  1.6064  0.4848  0.9579
    6SAPS  C316  789   0.788   4.632   8.364 -0.0362 -0.5117  0.0392
    6SAPS  H16X  790   0.893   4.640   8.401  0.6098  0.6446 -1.9388
    6SAPS  H16Y  791   0.762   4.739   8.357  0.6804 -0.4023 -1.1562
    6SAPS  C317  792   0.795   4.548   8.235 -0.4029 -0.3682  0.8988
    6SAPS  H17X  793   0.690   4.528   8.204 -0.2270  1.6714 -1.1942
    6SAPS  H17Y  794   0.853   4.453   8.246  2.2455  0.6750 -2.7821
    6SAPS  C318  795   0.848   4.644   8.121 -0.8075  0.1420  0.0078
    6SAPS  H18X  796   0.950   4.683   8.142 -0.7664  1.3023 -2.1998
    6SAPS  H18Y  797   0.790   4.737   8.102 -0.3608  0.1095 -1.6283
    6SAPS  H18Z  798   0.864   4.595   8.022 -0.8249  1.5019 -0.6813
    7SAPS     N  799   1.694   7.051  10.113 -0.3343  0.3986 -0.4062
    7SAPS   HN1  800   1.622   7.071  10.041  0.8571 -0.6237 -1.9149
    7SAPS   HN2  801   1.697   6.949  10.134  1.7850  0.6949  0.8799
    7SAPS   HN3  802   1.665   7.101  10.199 -0.5331 -2.9082  1.5557
    7SAPS   C12  803   1.833   7.090  10.065  0.3047  0.1039  0.3517
    7SAPS  H12A  804   1.844   7.074   9.959  1.4023 -1.1550  0.6374
    7SAPS   C13  805   1.850   7.243  10.089 -0.7670  0.8587  0.6785
    7SAPS  O13A  806   1.761   7.310  10.148 -0.1069 -0.4778  0.3173
    7SAPS  O13B  807   1.951   7.295  10.029  0.2455 -0.2756 -0.6493
    7SAPS   C11  808   1.948   7.013  10.138  0.6011 -0.3632 -0.4202
    7SAPS  H11A  809   1.937   7.029  10.247  0.9629 -0.9314 -0.2946
    7SAPS  H11B  810   2.034   7.064  10.089  1.5629 -0.6929  0.9066
    7SAPS     P  811   2.031   6.815   9.984  0.0744  0.6817 -0.2039
    7SAPS   O13  812   2.157   6.887   9.981 -0.5616  0.3886  0.3402
    7SAPS   O14  813   2.035   6.666   9.998 -0.6864  0.2906  0.1838
    7SAPS   O12  814   1.940   6.871  10.106  0.4594 -0.4219 -0.6370
    7SAPS   O11  815   1.944   6.853   9.856  0.1427  0.0065 -0.7512
    7SAPS    C1  816   1.848   6.761   9.805  0.2246 -0.3646  1.0305
    7SAPS    HA  817   1.886   6.657   9.790 -1.7570 -0.8699 -0.7729
    7SAPS    HB  818   1.762   6.754   9.874  0.2021 -0.6638  0.9786
    7SAPS    C2  819   1.787   6.823   9.675  0.1521 -0.1259 -0.8302
    7SAPS    HS  820   1.760   6.739   9.608 -2.2736  0.4132 -0.6026
    7SAPS   O21  821   1.881   6.903   9.603 -0.5517 -0.1702  0.1108
    7SAPS   C21  822   1.976   6.842   9.533  0.3649 -0.1917 -0.6317
    7SAPS   O22  823   1.984   6.721   9.520 -0.2326 -0.2295 -0.0748
    7SAPS   C22  824   2.076   6.941   9.489  0.0410  0.9391 -0.4044
    7SAPS   H2R  825   2.144   6.966   9.573 -1.9683 -0.7346  1.7953
    7SAPS   H2S  826   2.126   6.896   9.401  0.7213 -0.9471  0.9231
    7SAPS    C3  827   1.664   6.899   9.711  0.0252 -0.2305 -0.0594
    7SAPS    HX  828   1.690   6.984   9.778 -0.6236 -0.6421  0.7161
    7SAPS    HY  829   1.589   6.833   9.759  0.1150 -0.5977 -0.4277
    7SAPS   O31  830   1.613   6.953   9.587  0.4710 -0.6219  0.4860
    7SAPS   C31  831   1.525   6.874   9.526 -0.1150 -0.4059  0.2011
    7SAPS   O32  832   1.480   6.772   9.568  0.2423  0.0990  0.1496
    7SAPS   C32  833   1.474   6.939   9.392 -0.3708 -0.0454 -0.8424
    7SAPS   H2X  834   1.562   7.000   9.365  1.9241 -1.6574  2.6977
    7SAPS   H2Y  835   1.380   6.998   9.383 -0.4585  0.1179  0.9352
    7SAPS   C23  836   2.020   7.086   9.456 -0.0546 -0.3867  0.2190
    7SAPS   H3R  837   2.106   7.155   9.467 -0.2124 -0.0306 -0.7350
    7SAPS   H3S  838   1.941   7.118   9.527 -0.9618 -2.6199  0.2592
    7SAPS   C24  839   1.978   7.094   9.305 -0.0997 -0.1868  0.5602
    7SAPS   H4R  840   1.894   7.022   9.298  0.6227 -1.3763  3.5852
    7SAPS   H4S  841   2.067   7.053   9.254 -1.1320  0.5509 -1.9434
    7SAPS   C25  842   1.946   7.234   9.269 -0.0056  0.2865 -0.4666
    7SAPS   H5R  843   1.895   7.294   9.347 -0.6835 -2.4617  1.2681
    7SAPS   C26  844   1.974   7.293   9.149  0.6102  0.0369  0.0359
    7SAPS   H6R  845   1.929   7.393   9.135 -4.1015 -1.9249  0.2064
    7SAPS   C27  846   2.032   7.225   9.027  0.3422 -0.0654 -0.2426
    7SAPS   H7R  847   2.057   7.117   9.032 -2.8003 -0.8080  0.3181
    7SAPS   H7S  848   2.129   7.279   9.015  1.1308 -0.8920  2.1226
    7SAPS   C28  849   1.947   7.257   8.900 -0.3643  0.3426  0.2096
    7SAPS   H8R  850   1.904   7.358   8.902  1.8870  1.3618 -0.3893
    7SAPS   C29  851   1.952   7.175   8.795 -0.2815  0.1358 -0.1591
    7SAPS   H9R  852   1.907   7.203   8.699  0.4234  0.3301 -0.4355
    7SAPS  C210  853   2.036   7.050   8.790  0.2796  0.1768 -0.5418
    7SAPS  H10R  854   1.989   6.971   8.852  1.0217  0.0722 -0.1072
    7SAPS  H10S  855   2.138   7.062   8.832 -0.7198 -1.8370  2.6681
    7SAPS  C211  856   2.060   7.008   8.645 -0.0546  0.0553 -0.3517
    7SAPS  H11R  857   2.162   7.025   8.607  0.2763  1.3758  1.0938
    7SAPS  C212  858   1.971   6.947   8.563  0.1372  0.3661 -0.3952
    7SAPS  H12R  859   2.006   6.916   8.464  1.1078  0.0473  0.0448
    7SAPS  C213  860   1.829   6.911   8.596  0.5161  0.2034 -0.0890
    7SAPS  H13R  861   1.803   6.939   8.701 -0.0711 -1.3355  0.1870
    7SAPS  H13S  862   1.823   6.802   8.612 -0.1281  0.3772  0.9016
    7SAPS  C214  863   1.720   6.942   8.492 -0.4996  0.2744  0.1524
    7SAPS  H14R  864   1.670   7.036   8.517  2.1193  1.0318  2.8961
    7SAPS  C215  865   1.684   6.869   8.385 -0.1444  0.4206  0.5006
    7SAPS  H15R  866   1.596   6.898   8.327  1.0091  1.3562 -0.8362
    7SAPS  C216  867   1.738   6.734   8.347 -0.2103 -0.4376 -0.5155
    7SAPS  H16R  868   1.673   6.656   8.390 -1.1721 -0.3032 -1.7057
    7SAPS  H16S  869   1.841   6.719   8.387 -0.6899  1.7373  1.6990
    7SAPS  C217  870   1.745   6.710   8.191 -0.3394 -1.1659  0.6804
    7SAPS  H17R  871   1.816   6.786   8.154 -0.4256 -1.9557 -1.1760
    7SAPS  H17S  872   1.644   6.730   8.150 -1.3309 -1.4857  2.8667
    7SAPS  C218  873   1.803   6.579   8.151  0.3629 -0.3315 -0.1454
    7SAPS  H18R  874   1.724   6.502   8.146  1.5222 -1.4788 -1.2405
    7SAPS  H18S  875   1.886   6.552   8.220  1.9197  1.2471 -1.3184
    7SAPS  C219  876   1.867   6.571   8.012  0.4634  0.0272  0.5901
    7SAPS  H19R  877   1.915   6.471   8.009 -2.7256 -1.5422 -1.9681
    7SAPS  H19S  878   1.948   6.645   7.998 -1.8499  2.2653 -1.4205
    7SAPS  C220  879   1.768   6.599   7.896  0.5319 -0.3953  0.0417
    7SAPS  H20R  880   1.811   6.567   7.798 -2.6530  1.1422 -1.9276
    7SAPS  H20S  881   1.745   6.708   7.893  4.9758  0.6632 -0.1901
    7SAPS  H20T  882   1.682   6.534   7.921 -0.0576  2.1196  5.0065
    7SAPS   C33  883   1.449   6.828   9.293 -0.6134  0.1348 -0.5747
    7SAPS   H3X  884   1.396   6.882   9.211 -1.0130  0.0395 -0.3827
    7SAPS   H3Y  885   1.388   6.744   9.333 -1.6941  2.1510  2.1301
    7SAPS   C34  886   1.570   6.762   9.218  0.2950  0.1977  0.7043
    7SAPS   H4X  887   1.525   6.693   9.143  2.0559 -0.3761  0.1572
    7SAPS   H4Y  888   1.637   6.710   9.289 -0.6244 -1.7617  0.1724
    7SAPS   C35  889   1.653   6.872   9.137 -0.0353  0.5632 -0.3225
    7SAPS   H5X  890   1.687   6.945   9.214 -0.0856 -0.4586  0.6730
    7SAPS   H5Y  891   1.587   6.925   9.065 -0.2254  0.5212 -0.1786
    7SAPS   C36  892   1.774   6.828   9.058 -0.1492 -0.7059  0.8192
    7SAPS   H6X  893   1.835   6.916   9.030 -0.4788  0.1781  2.7614
    7SAPS   H6Y  894   1.745   6.781   8.962  0.1065 -1.5176  1.1339
    7SAPS   C37  895   1.873   6.735   9.135  0.7317  0.6721  0.0984
    7SAPS   H7X  896   1.834   6.632   9.125  2.5734 -0.0828  0.5325
    7SAPS   H7Y  897   1.863   6.764   9.241 -0.1089 -0.0562  0.2230
    7SAPS   C38  898   2.017   6.739   9.090  0.1619 -0.2144  0.0882
    7SAPS   H8X  899   2.079   6.671   9.152  1.7448  0.7844 -0.3528
    7SAPS   H8Y  900   2.061   6.841   9.094 -1.6303  0.5449  1.2657
    7SAPS   C39  901   2.020   6.690   8.944  0.2415 -0.1301 -0.0555
    7SAPS   H9X  902   1.977   6.766   8.875  0.9206  0.5743  0.3007
    7SAPS   H9Y  903   1.977   6.587   8.940 -2.7705  0.9387  2.6233
    7SAPS  C310  904   2.166   6.688   8.906  0.4757  0.4497  0.1753
    7SAPS  H10X  905   2.228   6.627   8.976 -0.6709  0.7422  1.4778
    7SAPS  H10Y  906   2.193   6.796   8.914  1.5713  0.1099  1.3657
    7SAPS  C311  907   2.197   6.667   8.760  0.8291  0.1783  0.4614
    7SAPS  H11X  908   2.151   6.749   8.700  0.3755  1.3116  2.3062
    7SAPS  H11Y  909   2.151   6.575   8.718 -0.3604  0.3815  1.3093
    7SAPS  C312  910   2.345   6.657   8.730  0.0036  0.3618 -0.7466
    7SAPS  H12X  911   2.383   6.574   8.793 -2.4363 -2.2840 -2.6086
    7SAPS  H12Y  912   2.403   6.749   8.752 -1.7586  1.5113 -0.8139
    7SAPS  C313  913   2.380   6.617   8.589 -0.0621  0.4843  0.0456
    7SAPS  H13X  914   2.313   6.543   8.540 -1.6859  2.7656 -1.2852
    7SAPS  H13Y  915   2.486   6.583   8.593 -0.1130  0.4024  0.7364
    7SAPS  C314  916   2.375   6.743   8.504 -0.8101 -0.0371  0.3846
    7SAPS  H14X  917   2.435   6.826   8.548 -1.4155  2.6177 -3.5470
    7SAPS  H14Y  918   2.269   6.772   8.487 -0.7570  0.5507  1.0155
    7SAPS  C315  919   2.444   6.730   8.367 -0.7502 -0.3018  0.3167
    7SAPS  H15X  920   2.547   6.695   8.392 -0.6054 -0.5252 -0.5965
    7SAPS  H15Y  921   2.457   6.827   8.315 -1.0260  0.7027  2.0888
    7SAPS  C316  922   2.393   6.620   8.271 -0.3528 -0.1676  0.2229
    7SAPS  H16X  923   2.383   6.528   8.332  2.0009 -0.0850  0.7709
    7SAPS  H16Y  924   2.457   6.594   8.184  0.1494  2.1987 -0.1492
    7SAPS  C317  925   2.245   6.646   8.220 -0.2356  0.4708 -0.7412
    7SAPS  H17X  926   2.176   6.646   8.307  0.7924 -1.0839  0.1168
    7SAPS  H17Y  927   2.207   6.569   8.150 -3.2799  0.4723  0.8476
    7SAPS  C318  928   2.241   6.789   8.156 -0.3029 -0.5362 -0.0068
    7SAPS  H18X  929   2.176   6.780   8.066 -1.7043 -1.8733  1.1120
    7SAPS  H18Y  930   2.342   6.823   8.125  1.1299 -2.0276  2.8631
    7SAPS  H18Z  931   2.196   6.867   8.220  0.8901  0.6317 -0.5568
    8SAPS     N  932   6.552   6.215   9.836 -0.0050 -0.7447 -0.0129
    8SAPS   HN1  933   6.450   6.197   9.846  0.3679 -2.8823  0.2466
    8SAPS   HN2  934   6.560   6.316   9.812 -3.3591  0.2044  2.5604
    8SAPS   HN3  935   6.601   6.169   9.756  0.4734  0.6436 -0.5366
    8SAPS   C12  936   6.635   6.186   9.965  0.1242 -0.0877  0.0411
    8SAPS  H12A  937   6.738   6.211   9.939 -0.3018  1.8811  0.1500
    8SAPS   C13  938   6.581   6.285  10.077 -0.2142  0.4962 -0.0790
    8SAPS  O13A  939   6.481   6.367  10.053  0.2040  0.6039  0.8139
    8SAPS  O13B  940   6.643   6.289  10.188  0.3371 -0.5399  0.2407
    8SAPS   C11  941   6.606   6.044  10.023  0.7270  0.5185  0.0675
    8SAPS  H11A  942   6.502   6.029  10.060  0.6427  0.6602 -0.1052
    8SAPS  H11B  943   6.676   6.015  10.103  0.4294  0.2995  0.2496
    8SAPS     P  944   6.760   5.908   9.850  0.4234  0.0134 -0.0205
    8SAPS   O13  945   6.860   5.978   9.923  0.0611  0.0911 -0.0685
    8SAPS   O14  946   6.769   5.762   9.844  0.0394  1.0599  0.3941
    8SAPS   O12  947   6.613   5.946   9.918 -0.0738 -0.1070  0.5750
    8SAPS   O11  948   6.742   5.954   9.706  0.4247 -0.1348  0.2073
    8SAPS    C1  949   6.816   5.903   9.597 -0.8070  0.4041  0.8431
    8SAPS    HA  950   6.920   5.886   9.633 -1.5305 -0.7465  2.4849
    8SAPS    HB  951   6.765   5.808   9.570 -2.0999  1.2038  0.4506
    8SAPS    C2  952   6.829   6.001   9.473 -0.0202  0.0592 -0.0503
    8SAPS    HS  953   6.873   6.100   9.496  2.1094 -0.4852 -1.6294
    8SAPS   O21  954   6.701   6.026   9.418  0.5525 -0.5847  0.2206
    8SAPS   C21  955   6.624   6.119   9.470 -0.1435  0.6566 -0.2926
    8SAPS   O22  956   6.648   6.183   9.573  0.1310  0.0078 -0.5728
    8SAPS   C22  957   6.496   6.147   9.388 -0.1981  0.4749 -0.0397
    8SAPS   H2R  958   6.522   6.139   9.281 -0.2572 -0.0973 -0.0132
    8SAPS   H2S  959   6.419   6.077   9.426  0.9075 -0.9625 -0.4346
    8SAPS    C3  960   6.909   5.945   9.348 -0.6858  0.5946 -0.0419
    8SAPS    HX  961   6.857   5.847   9.336  1.4248 -0.6146  0.5688
    8SAPS    HY  962   7.008   5.922   9.391 -1.2464 -3.1292 -0.5463
    8SAPS   O31  963   6.913   6.024   9.225 -0.3782 -0.0273 -0.1317
    8SAPS   C31  964   6.912   5.961   9.107 -0.5004  0.6910 -0.2396
    8SAPS   O32  965   6.925   5.840   9.099  0.1416 -0.0886  0.2535
    8SAPS   C32  966   6.892   6.068   8.997 -0.3358 -0.3225  0.4342
    8SAPS   H2X  967   6.972   6.139   9.027  0.4214 -1.7685  1.9688
    8SAPS   H2Y  968   6.795   6.121   9.007  0.6642  2.1132 -2.2395
    8SAPS   C23  969   6.443   6.297   9.422  0.5493 -0.3265  0.2672
    8SAPS   H3R  970   6.526   6.360   9.385 -0.6652  0.3509 -1.3554
    8SAPS   H3S  971   6.421   6.307   9.531  0.5002 -4.3410  0.7257
    8SAPS   C24  972   6.312   6.319   9.356 -0.0127 -0.0414  0.2841
    8SAPS   H4R  973   6.238   6.267   9.421 -0.0889  0.4372  0.5808
    8SAPS   H4S  974   6.293   6.284   9.252  2.5339 -1.0743  0.1529
    8SAPS   C25  975   6.285   6.465   9.351  0.0749  0.5800 -0.1959
    8SAPS   H5R  976   6.229   6.503   9.438 -1.6356  0.0776 -1.0417
    8SAPS   C26  977   6.308   6.552   9.258 -0.0123 -0.2061  0.2926
    8SAPS   H6R  978   6.276   6.657   9.271  0.8054  0.2840 -1.4336
    8SAPS   C27  979   6.375   6.523   9.125  0.4245  0.1292  0.1417
    8SAPS   H7R  980   6.369   6.618   9.068 -2.5673 -0.2770 -0.3158
    8SAPS   H7S  981   6.318   6.446   9.069 -0.1051  2.6673 -2.9353
    8SAPS   C28  982   6.522   6.497   9.152 -0.1159  0.4695 -0.2657
    8SAPS   H8R  983   6.558   6.544   9.246 -0.8469  1.3081 -0.4016
    8SAPS   C29  984   6.615   6.438   9.075 -0.3024  0.6026  0.0355
    8SAPS   H9R  985   6.718   6.435   9.114  0.3273  3.1265 -1.3453
    8SAPS  C210  986   6.585   6.382   8.941  0.6464 -0.6928 -0.5165
    8SAPS  H10R  987   6.521   6.456   8.888  1.2919 -0.6258 -1.2107
    8SAPS  H10S  988   6.534   6.285   8.960 -0.1418 -0.1703  0.0287
    8SAPS  C211  989   6.704   6.339   8.855  0.5156 -0.6864  0.0456
    8SAPS  H11R  990   6.788   6.314   8.921  0.8150  0.6835  0.1981
    8SAPS  C212  991   6.712   6.351   8.719 -0.1840  0.2619 -0.3608
    8SAPS  H12R  992   6.805   6.303   8.685 -0.2742 -0.1526 -0.0276
    8SAPS  C213  993   6.602   6.399   8.620 -0.1806 -0.4589 -0.1483
    8SAPS  H13R  994   6.610   6.510   8.616  1.3526 -0.5433 -0.0204
    8SAPS  H13S  995   6.501   6.377   8.660 -0.8101  2.0491 -0.2711
    8SAPS  C214  996   6.609   6.330   8.489  1.1297  0.2233 -0.2234
    8SAPS  H14R  997   6.512   6.289   8.457  0.6177  1.5828 -0.4624
    8SAPS  C215  998   6.709   6.321   8.401  0.3241 -0.0735 -0.2222
    8SAPS  H15R  999   6.701   6.269   8.304 -2.8893 -2.9013  1.4578
    8SAPS  C216 1000   6.842   6.384   8.415 -0.1174  0.2571  0.7400
    8SAPS  H16R 1001   6.849   6.438   8.512 -0.0857  2.8762 -0.6882
    8SAPS  H16S 1002   6.867   6.456   8.335  0.7121  1.7717  2.3251
    8SAPS  C217 1003   6.947   6.273   8.405  0.4459 -0.0029  0.4501
    8SAPS  H17R 1004   6.927   6.208   8.494  0.2380  1.2528  1.3352
    8SAPS  H17S 1005   7.052   6.306   8.417  0.1806  1.0188  0.0144
    8SAPS  C218 1006   6.939   6.185   8.275 -0.6752  0.4278  0.3567
    8SAPS  H18R 1007   6.841   6.137   8.259  1.1945 -3.3116 -0.4994
    8SAPS  H18S 1008   7.009   6.099   8.288 -0.1660  0.7277 -0.3403
    8SAPS  C219 1009   6.982   6.263   8.150 -0.4405 -0.6519 -0.1802
    8SAPS  H19R 1010   7.057   6.203   8.095  0.6865 -0.7241  1.3891
    8SAPS  H19S 1011   7.028   6.363   8.167 -0.4751 -0.0216 -3.4268
    8SAPS  C220 1012   6.868   6.264   8.054  0.7979 -0.4296 -0.7806
    8SAPS  H20R 1013   6.883   6.322   7.961 -1.0536  1.4448  0.0425
    8SAPS  H20S 1014   6.775   6.290   8.110  0.2608 -2.1797 -0.8497
    8SAPS  H20T 1015   6.843   6.166   8.010 -1.5776 -0.8048  1.2821
    8SAPS   C33 1016   6.925   6.032   8.853 -0.0866 -0.0844  0.1305
    8SAPS   H3X 1017   7.028   5.989   8.853 -0.3772 -0.7959 -0.1785
    8SAPS   H3Y 1018   6.933   6.119   8.784  0.5174 -2.7120 -3.2509
    8SAPS   C34 1019   6.836   5.925   8.788  0.1249  0.3978 -0.6437
    8SAPS   H4X 1020   6.741   5.953   8.839  0.1797 -1.5866  0.6137
    8SAPS   H4Y 1021   6.856   5.820   8.820  0.8164  0.6421 -0.2752
    8SAPS   C35 1022   6.835   5.932   8.635 -0.3036  0.2013 -0.4341
    8SAPS   H5X 1023   6.943   5.916   8.615  0.1003  1.7988  0.3451
    8SAPS   H5Y 1024   6.794   6.030   8.600  0.8106  0.3036 -1.4984
    8SAPS   C36 1025   6.747   5.825   8.577 -0.3063 -0.8533 -0.1211
    8SAPS   H6X 1026   6.649   5.857   8.617 -0.0738 -0.8654  0.4720
    8SAPS   H6Y 1027   6.760   5.717   8.601  1.2056 -0.2440  2.0365
    8SAPS   C37 1028   6.743   5.849   8.425 -0.7263 -0.5888 -0.7292
    8SAPS   H7X 1029   6.735   5.960   8.414  1.8354 -0.0969  1.9007
    8SAPS   H7Y 1030   6.646   5.801   8.401  0.1513 -1.2775 -3.0342
    8SAPS   C38 1031   6.861   5.796   8.345 -0.6061  0.4212  1.3453
    8SAPS   H8X 1032   6.896   5.698   8.381  0.8965  0.4720  0.0646
    8SAPS   H8Y 1033   6.942   5.872   8.351 -0.0647 -0.2269  2.1405
    8SAPS   C39 1034   6.835   5.795   8.189 -0.5052 -0.6800  0.2699
    8SAPS   H9X 1035   6.918   5.810   8.116 -0.2295 -1.7811  0.3425
    8SAPS   H9Y 1036   6.766   5.881   8.177  0.9869  0.6437  1.0805
    8SAPS  C310 1037   6.754   5.668   8.142 -0.4649  0.5696 -0.2993
    8SAPS  H10X 1038   6.675   5.641   8.215  0.2902 -0.8013  0.0101
    8SAPS  H10Y 1039   6.822   5.582   8.130  0.5598  1.1973  0.8065
    8SAPS  C311 1040   6.686   5.689   8.004 -0.6280 -0.3351 -0.5695
    8SAPS  H11X 1041   6.769   5.705   7.931 -0.0016 -0.7640  0.0379
    8SAPS  H11Y 1042   6.640   5.789   8.019  1.4750  0.2429  2.7299
    8SAPS  C312 1043   6.584   5.581   7.977 -0.0367 -0.0909  0.2670
    8SAPS  H12X 1044   6.485   5.616   8.013 -2.1774 -0.5915 -4.7233
    8SAPS  H12Y 1045   6.617   5.482   8.015  2.0008  0.4113 -0.1026
    8SAPS  C313 1046   6.560   5.555   7.823  0.3462  0.1380 -0.6039
    8SAPS  H13X 1047   6.632   5.479   7.786  1.2503 -0.8901  3.0419
    8SAPS  H13Y 1048   6.575   5.654   7.775  0.9541 -0.8485 -2.5099
    8SAPS  C314 1049   6.420   5.518   7.774  0.1147 -0.9479  0.7242
    8SAPS  H14X 1050   6.345   5.599   7.776  0.7142 -0.2316 -2.6625
    8SAPS  H14Y 1051   6.384   5.432   7.834 -2.2848  0.0616  0.7811
    8SAPS  C315 1052   6.428   5.459   7.631 -1.1312  0.2331  0.5078
    8SAPS  H15X 1053   6.505   5.380   7.644 -0.6950  0.9329  2.3243
    8SAPS  H15Y 1054   6.465   5.529   7.553 -1.7987  1.1636  1.0166
    8SAPS  C316 1055   6.295   5.395   7.586  0.5496 -0.3326  0.1100
    8SAPS  H16X 1056   6.297   5.376   7.477  0.7143  2.5419 -0.4359
    8SAPS  H16Y 1057   6.210   5.466   7.602  1.9220  1.0865  1.3387
    8SAPS  C317 1058   6.257   5.262   7.662 -0.3337  0.6642  0.3534
    8SAPS  H17X 1059   6.227   5.269   7.769 -0.1461 -0.9057  0.5112
    8SAPS  H17Y 1060   6.335   5.184   7.656  1.7715  2.6590  0.8378
    8SAPS  C318 1061   6.132   5.201   7.589  0.6733 -0.4753  0.2058
    8SAPS  H18X 1062   6.085   5.121   7.650 -0.7415 -0.8017 -1.2940
    8SAPS  H18Y 1063   6.154   5.164   7.487  1.8320 -1.1500  0.6847
    8SAPS  H18Z 1064   6.047   5.272   7.584  0.4422 -0.6929  0.9833
    9SAPS     N 1065   4.069   3.669   6.188 -0.0080 -0.0493  0.8839
    9SAPS   HN1 1066   4.113   3.744   6.246 -0.2577 -0.0870  1.1245
    9SAPS   HN2 1067   3.983   3.712   6.148 -0.7488 -0.2122  2.2806
    9SAPS   HN3 1068   4.049   3.593   6.256 -0.6744 -0.2310  0.4934
    9SAPS   C12 1069   4.155   3.616   6.085  0.3449 -0.0579 -0.4659
    9SAPS  H12A 1070   4.096   3.542   6.032  0.8013 -0.6922 -0.0965
    9SAPS   C13 1071   4.203   3.713   5.987  0.1882  0.1299  0.1267
    9SAPS  O13A 1072   4.195   3.836   6.015 -0.1698 -0.0880  0.3119
    9SAPS  O13B 1073   4.248   3.674   5.876  0.1820  1.0341  0.2929
    9SAPS   C11 1074   4.269   3.532   6.152 -0.7985  0.2505 -0.1231
    9SAPS  H11A 1075   4.225   3.469   6.232  0.8220  1.2914  1.6277
    9SAPS  H11B 1076   4.337   3.604   6.203  2.4969 -2.9167  0.1471
    9SAPS     P 1077   4.308   3.306   6.008 -0.1685 -0.0445 -0.1266
    9SAPS   O13 1078   4.162   3.292   6.002 -0.3927 -1.0236  0.2766
    9SAPS   O14 1079   4.387   3.280   5.882  0.0625 -0.2951  0.2687
    9SAPS   O12 1080   4.339   3.456   6.049 -0.1252 -0.4656 -0.3531
    9SAPS   O11 1081   4.370   3.227   6.130 -0.0190 -0.3536  0.5339
    9SAPS    C1 1082   4.512   3.207   6.162 -0.0549 -1.0814 -0.4420
    9SAPS    HA 1083   4.525   3.107   6.207  3.3682 -0.5230 -0.1007
    9SAPS    HB 1084   4.573   3.222   6.070  0.6475  1.9106  0.4586
    9SAPS    C2 1085   4.570   3.323   6.253 -0.7640  0.6617 -0.1714
    9SAPS    HS 1086   4.657   3.281   6.308 -0.3015 -0.1855 -1.5454
    9SAPS   O21 1087   4.470   3.371   6.344 -0.7426 -0.0074 -0.0207
    9SAPS   C21 1088   4.418   3.279   6.420 -0.2563  0.3041  0.1539
    9SAPS   O22 1089   4.460   3.165   6.433  0.0526  0.2120  0.1290
    9SAPS   C22 1090   4.296   3.341   6.489  0.0253  0.3455  0.8626
    9SAPS   H2R 1091   4.243   3.398   6.410  3.8846  1.9107 -0.7534
    9SAPS   H2S 1092   4.234   3.257   6.526 -0.5810  0.8748  1.0393
    9SAPS    C3 1093   4.623   3.445   6.179 -0.0192  0.7268  0.1692
    9SAPS    HX 1094   4.538   3.509   6.147 -1.7740 -1.0074  1.3233
    9SAPS    HY 1095   4.681   3.411   6.090 -0.4881  1.0451 -0.2664
    9SAPS   O31 1096   4.715   3.510   6.264 -0.1842  0.7456  0.6168
    9SAPS   C31 1097   4.677   3.622   6.330 -0.8557 -0.2876 -0.1883
    9SAPS   O32 1098   4.585   3.696   6.296  0.3983  0.3374 -0.5062
    9SAPS   C32 1099   4.780   3.659   6.434 -0.0710 -0.2348  0.0957
    9SAPS   H2X 1100   4.871   3.685   6.375 -0.4921 -0.4031 -0.6472
    9SAPS   H2Y 1101   4.791   3.569   6.497  1.4359  0.0083  0.1902
    9SAPS   C23 1102   4.332   3.427   6.615  0.1039 -0.1734 -0.1458
    9SAPS   H3R 1103   4.273   3.519   6.594 -0.0346 -0.8228 -2.7297
    9SAPS   H3S 1104   4.442   3.447   6.612  0.1567 -0.2425  1.0357
    9SAPS   C24 1105   4.287   3.374   6.751  1.0817 -0.7076  0.2454
    9SAPS   H4R 1106   4.177   3.360   6.750  0.9463  0.3804  0.2744
    9SAPS   H4S 1107   4.310   3.457   6.821  2.8132 -1.6584  0.8517
    9SAPS   C25 1108   4.366   3.254   6.796  0.4428  0.4678 -0.0319
    9SAPS   H5R 1109   4.368   3.170   6.725 -2.0695 -0.7678  1.2912
    9SAPS   C26 1110   4.437   3.233   6.910 -0.1072  0.5189 -0.2127
    9SAPS   H6R 1111   4.498   3.143   6.923  1.0934  0.8303 -3.3701
    9SAPS   C27 1112   4.444   3.330   7.023  0.2221  0.3354 -0.4154
    9SAPS   H7R 1113   4.390   3.424   6.995  1.0357  0.3648 -1.9177
    9SAPS   H7S 1114   4.550   3.357   7.040  0.1658 -0.8353  2.0287
    9SAPS   C28 1115   4.385   3.253   7.142  0.5561  0.6097 -0.0494
    9SAPS   H8R 1116   4.391   3.143   7.135 -1.5450  0.3741  1.3318
    9SAPS   C29 1117   4.298   3.306   7.234  0.4803  0.4272  0.1016
    9SAPS   H9R 1118   4.254   3.235   7.306 -1.6643  0.9638 -0.6651
    9SAPS  C210 1119   4.238   3.440   7.243 -0.1385  0.7588 -0.3531
    9SAPS  H10R 1120   4.226   3.480   7.140 -0.1809  0.5446 -0.4312
    9SAPS  H10S 1121   4.306   3.516   7.287  0.0411 -1.3262  3.1216
    9SAPS  C211 1122   4.111   3.454   7.314 -0.0801  0.4087 -0.3081
    9SAPS  H11R 1123   4.032   3.388   7.273 -0.1509  0.4927 -0.3070
    9SAPS  C212 1124   4.083   3.529   7.425  0.0388  0.6687 -0.2108
    9SAPS  H12R 1125   3.981   3.517   7.465  0.4157  0.2785  0.6612
    9SAPS  C213 1126   4.186   3.618   7.498 -0.3911 -0.7091  0.1206
    9SAPS  H13R 1127   4.250   3.659   7.417  1.1753 -3.8417 -0.2659
    9SAPS  H13S 1128   4.247   3.549   7.560  0.4958  0.0001  0.0429
    9SAPS  C214 1129   4.132   3.726   7.584  0.0037  0.4462  0.3956
    9SAPS  H14R 1130   4.034   3.698   7.626  0.0549 -0.2490  0.0460
    9SAPS  C215 1131   4.177   3.852   7.589 -0.0811  0.2434  1.2840
    9SAPS  H15R 1132   4.134   3.924   7.660  1.5458  0.9157  1.6123
    9SAPS  C216 1133   4.297   3.913   7.515 -0.1234 -0.9328  0.1845
    9SAPS  H16R 1134   4.255   3.992   7.448  1.8272 -1.8153 -2.1529
    9SAPS  H16S 1135   4.350   3.842   7.448 -0.2933 -0.2212 -0.7285
    9SAPS  C217 1136   4.389   3.991   7.609 -0.7553 -0.6775 -0.0981
    9SAPS  H17R 1137   4.428   3.917   7.682 -1.2450 -0.5303  0.3104
    9SAPS  H17S 1138   4.326   4.068   7.657 -0.0284  1.3768 -2.3714
    9SAPS  C218 1139   4.497   4.071   7.540  0.5359  0.6109 -0.9206
    9SAPS  H18R 1140   4.447   4.149   7.479 -3.0536  1.4459  2.8475
    9SAPS  H18S 1141   4.560   4.007   7.474  1.1481 -1.0347  1.1973
    9SAPS  C219 1142   4.592   4.136   7.638  0.4457  0.6362 -0.4891
    9SAPS  H19R 1143   4.631   4.049   7.696  1.0874 -0.0807 -1.9423
    9SAPS  H19S 1144   4.542   4.205   7.709  0.2947 -0.3113  0.3434
    9SAPS  C220 1145   4.710   4.210   7.576 -0.5773 -0.0685  0.0196
    9SAPS  H20R 1146   4.765   4.151   7.499 -0.9267  1.5419 -1.4902
    9SAPS  H20S 1147   4.781   4.244   7.655 -2.3242  0.0866  1.5563
    9SAPS  H20T 1148   4.665   4.289   7.513 -0.3359 -0.8038 -1.0928
    9SAPS   C33 1149   4.744   3.779   6.520 -0.0304 -0.4488 -0.2731
    9SAPS   H3X 1150   4.722   3.877   6.474 -0.0112 -0.8414 -1.1340
    9SAPS   H3Y 1151   4.835   3.793   6.582 -1.2220 -0.5743  1.5257
    9SAPS   C34 1152   4.636   3.752   6.630 -0.4083 -0.3282  0.8347
    9SAPS   H4X 1153   4.543   3.712   6.585 -1.4072  2.2110  0.5316
    9SAPS   H4Y 1154   4.621   3.854   6.671 -1.5495 -0.9337  1.9681
    9SAPS   C35 1155   4.670   3.662   6.751  0.3793 -0.9145 -0.3143
    9SAPS   H5X 1156   4.767   3.691   6.797  0.3652 -2.1408  0.5151
    9SAPS   H5Y 1157   4.679   3.556   6.718  1.0289 -0.8609 -0.3243
    9SAPS   C36 1158   4.563   3.669   6.861 -0.1167  0.9801 -0.1478
    9SAPS   H6X 1159   4.548   3.564   6.895  0.6963  0.2944 -1.8044
    9SAPS   H6Y 1160   4.472   3.704   6.807 -0.4651  2.0996  1.1404
    9SAPS   C37 1161   4.615   3.759   6.973  0.1164  0.2174  0.4250
    9SAPS   H7X 1162   4.624   3.862   6.933 -1.8103  0.8903  1.6623
    9SAPS   H7Y 1163   4.715   3.719   6.999 -0.3255 -1.0202  0.2541
    9SAPS   C38 1164   4.522   3.759   7.094 -0.0791  0.2487 -0.1539
    9SAPS   H8X 1165   4.484   3.661   7.130 -2.6483  0.2255 -2.7922
    9SAPS   H8Y 1166   4.429   3.817   7.073 -0.4474 -0.7214 -1.2467
    9SAPS   C39 1167   4.590   3.824   7.216  0.3682  0.1965  0.1456
    9SAPS   H9X 1168   4.514   3.838   7.296 -0.3414  1.8367 -0.7816
    9SAPS   H9Y 1169   4.632   3.923   7.189 -1.0045  0.8159  0.2383
    9SAPS  C310 1170   4.673   3.724   7.291  0.2215  0.1052 -0.3188
    9SAPS  H10X 1171   4.779   3.731   7.261  1.0969 -2.1908  2.0700
    9SAPS  H10Y 1172   4.634   3.621   7.274  0.3162 -0.1165  0.7571
    9SAPS  C311 1173   4.677   3.734   7.444 -0.5334  0.6570 -0.2031
    9SAPS  H11X 1174   4.577   3.761   7.485 -1.2243 -1.0427 -0.7452
    9SAPS  H11Y 1175   4.733   3.828   7.464 -1.3590  1.5493 -2.0346
    9SAPS  C312 1176   4.719   3.614   7.528  0.4751  0.2249  0.1556
    9SAPS  H12X 1177   4.784   3.544   7.471  0.3302  2.2700 -2.6263
    9SAPS  H12Y 1178   4.628   3.557   7.554  0.2809 -0.1243 -1.2303
    9SAPS  C313 1179   4.787   3.658   7.650 -0.3725 -0.4533 -0.3375
    9SAPS  H13X 1180   4.876   3.723   7.636 -0.9857  0.3956 -0.3812
    9SAPS  H13Y 1181   4.822   3.577   7.716  2.2286  0.2029 -0.8560
    9SAPS  C314 1182   4.686   3.737   7.752 -0.0590  0.4072 -0.1294
    9SAPS  H14X 1183   4.601   3.669   7.774  0.1556  0.5832  1.2978
    9SAPS  H14Y 1184   4.648   3.834   7.713 -0.5236  0.0309 -0.6331
    9SAPS  C315 1185   4.757   3.766   7.888 -0.4216  0.0968  0.3773
    9SAPS  H15X 1186   4.784   3.668   7.932  4.5703  1.6956  1.2009
    9SAPS  H15Y 1187   4.683   3.809   7.960 -0.5655  1.4320 -0.5572
    9SAPS  C316 1188   4.881   3.864   7.883  0.5423  0.3071  0.1718
    9SAPS  H16X 1189   4.857   3.954   7.823 -0.4139 -0.1561 -0.1429
    9SAPS  H16Y 1190   4.968   3.815   7.834 -0.0392  0.8304 -1.4245
    9SAPS  C317 1191   4.944   3.902   8.026  0.3331 -0.3055  0.1879
    9SAPS  H17X 1192   4.963   3.805   8.077  1.6986 -0.7258 -1.0653
    9SAPS  H17Y 1193   4.862   3.952   8.082  0.2914 -0.9070  0.6632
    9SAPS  C318 1194   5.067   3.992   8.037  0.1050  0.3231 -0.1912
    9SAPS  H18X 1195   5.096   4.014   8.142  0.0637  1.5622 -0.4352
    9SAPS  H18Y 1196   5.035   4.089   7.993  0.1414  0.1495 -0.6009
    9SAPS  H18Z 1197   5.153   3.951   7.979 -0.1659 -2.4142  1.2738
   10SAPS     N 1198   6.428   2.172   5.857  0.1646 -1.2150  0.1091
   10SAPS   HN1 1199   6.478   2.187   5.767 -1.8931 -0.9166 -1.0078
   10SAPS   HN2 1200   6.470   2.236   5.928  0.2615  1.9686 -2.7111
   10SAPS   HN3 1201   6.441   2.073   5.888 -1.9746 -1.5890 -0.0742
   10SAPS   C12 1202   6.276   2.187   5.826  0.1961  0.2407  0.2904
   10SAPS  H12A 1203   6.261   2.285   5.784  0.0821 -0.5252 -1.5314
   10SAPS   C13 1204   6.213   2.083   5.724 -0.1329 -1.0166  0.0949
   10SAPS  O13A 1205   6.285   1.986   5.681  0.3117  0.7874  0.0267
   10SAPS  O13B 1206   6.099   2.116   5.676 -0.2391 -0.2334  0.4302
   10SAPS   C11 1207   6.201   2.167   5.966  0.1463  1.2509 -0.2395
   10SAPS  H11A 1208   6.218   2.065   6.008 -0.4502  0.1660 -2.5831
   10SAPS  H11B 1209   6.095   2.180   5.937 -0.0506  0.8129  0.2848
   10SAPS     P 1210   6.184   2.392   6.098  0.1646  0.3934 -0.3178
   10SAPS   O13 1211   6.276   2.454   6.195 -0.0784  0.0619 -0.0810
   10SAPS   O14 1212   6.179   2.455   5.966  0.3118  0.0726 -0.6488
   10SAPS   O12 1213   6.245   2.253   6.077 -0.3058 -0.0955  0.2881
   10SAPS   O11 1214   6.035   2.367   6.159  0.0870  0.0013 -0.1320
   10SAPS    C1 1215   6.021   2.286   6.279 -0.2122  0.0803 -0.7362
   10SAPS    HA 1216   6.079   2.191   6.270 -0.1465 -0.1908  1.9245
   10SAPS    HB 1217   6.060   2.333   6.372 -0.2014  1.5891 -1.4942
   10SAPS    C2 1218   5.874   2.233   6.292 -0.5642 -0.6180 -0.3291
   10SAPS    HS 1219   5.838   2.207   6.191  0.3217 -0.9022 -0.5749
   10SAPS   O21 1220   5.791   2.333   6.357 -0.6277 -0.1560 -0.2991
   10SAPS   C21 1221   5.666   2.325   6.312  0.3766 -0.2126 -0.2381
   10SAPS   O22 1222   5.618   2.246   6.232  0.0411 -0.2950 -0.4474
   10SAPS   C22 1223   5.581   2.426   6.395 -0.3111 -0.7514  0.0478
   10SAPS   H2R 1224   5.586   2.391   6.500 -1.6783 -0.6782  0.1482
   10SAPS   H2S 1225   5.624   2.529   6.396  0.4516 -1.0300 -1.8542
   10SAPS    C3 1226   5.871   2.099   6.370 -0.0669  0.7441  0.1843
   10SAPS    HX 1227   5.930   2.016   6.326 -1.0226 -0.5059  1.2238
   10SAPS    HY 1228   5.768   2.059   6.359  0.1379  0.5807 -1.3139
   10SAPS   O31 1229   5.899   2.106   6.518  0.7993  0.4635  0.8501
   10SAPS   C31 1230   5.797   2.116   6.601  0.4659 -0.2830 -0.0500
   10SAPS   O32 1231   5.679   2.106   6.574 -0.0765 -0.4970 -0.2603
   10SAPS   C32 1232   5.848   2.124   6.746 -0.4700 -0.1584  0.5242
   10SAPS   H2X 1233   5.955   2.099   6.760  0.1588  1.7856 -0.5157
   10SAPS   H2Y 1234   5.795   2.044   6.801  0.0972 -1.6415 -1.0306
   10SAPS   C23 1235   5.438   2.444   6.343 -0.4516  0.4394 -1.1233
   10SAPS   H3R 1236   5.400   2.348   6.302  0.9325 -0.2809 -0.7623
   10SAPS   H3S 1237   5.440   2.526   6.268  0.0121  0.1370 -1.4456
   10SAPS   C24 1238   5.337   2.463   6.460 -0.0256 -0.0599 -0.6163
   10SAPS   H4R 1239   5.351   2.379   6.531 -0.9547 -1.7641 -2.3790
   10SAPS   H4S 1240   5.234   2.458   6.418 -1.0091  2.0231  1.4367
   10SAPS   C25 1241   5.355   2.600   6.533  1.3123  0.0040 -0.5005
   10SAPS   H5R 1242   5.342   2.688   6.468  1.0985  1.4107  1.3964
   10SAPS   C26 1243   5.383   2.619   6.663 -0.4570  0.0595  0.2112
   10SAPS   H6R 1244   5.379   2.724   6.695  0.0549 -0.5912  2.5134
   10SAPS   C27 1245   5.408   2.528   6.776 -0.3778 -0.1111 -0.2759
   10SAPS   H7R 1246   5.476   2.445   6.745  0.7162  0.0545  1.5942
   10SAPS   H7S 1247   5.311   2.483   6.805  1.4878 -3.8877  0.5002
   10SAPS   C28 1248   5.474   2.593   6.893  0.2662 -0.3331  0.1832
   10SAPS   H8R 1249   5.477   2.702   6.877  1.1924 -0.4173 -0.2987
   10SAPS   C29 1250   5.519   2.541   7.015 -0.2754  1.0388  0.0663
   10SAPS   H9R 1251   5.574   2.602   7.087 -0.7919  0.4415  0.9729
   10SAPS  C210 1252   5.499   2.397   7.043 -0.3118  0.0633 -0.8219
   10SAPS  H10R 1253   5.595   2.341   7.049  0.1035  0.8128 -0.3685
   10SAPS  H10S 1254   5.436   2.344   6.968 -1.9487 -0.7542  1.0947
   10SAPS  C211 1255   5.424   2.371   7.176  1.0924  0.0046 -0.1081
   10SAPS  H11R 1256   5.315   2.359   7.168  1.0228 -1.3583  2.3749
   10SAPS  C212 1257   5.477   2.371   7.301  0.2193  0.3329  0.3044
   10SAPS  H12R 1258   5.416   2.342   7.388  1.9941  2.0247  2.1657
   10SAPS  C213 1259   5.620   2.398   7.326 -0.7620  0.6499 -0.1598
   10SAPS  H13R 1260   5.634   2.507   7.337  0.0832  0.4571  0.7538
   10SAPS  H13S 1261   5.672   2.387   7.228 -1.2056  0.9324 -0.4286
   10SAPS  C214 1262   5.691   2.317   7.432  0.7846  1.3559  0.0949
   10SAPS  H14R 1263   5.633   2.313   7.525 -1.2737  1.0417 -1.1905
   10SAPS  C215 1264   5.818   2.267   7.431 -0.4293  0.2454  0.0702
   10SAPS  H15R 1265   5.854   2.229   7.527  0.1925  2.0628  0.5787
   10SAPS  C216 1266   5.924   2.287   7.317  0.3486  0.2234  1.0939
   10SAPS  H16R 1267   5.937   2.392   7.282 -2.0385  0.2871  0.2778
   10SAPS  H16S 1268   5.872   2.244   7.228 -0.8821  0.4863  1.6710
   10SAPS  C217 1269   6.066   2.228   7.335 -0.1670  0.2701 -0.0638
   10SAPS  H17R 1270   6.113   2.223   7.235  0.6780  0.0855  0.3301
   10SAPS  H17S 1271   6.050   2.123   7.370 -2.2292  0.3426 -0.7078
   10SAPS  C218 1272   6.152   2.315   7.430 -0.0028 -0.6509 -0.1154
   10SAPS  H18R 1273   6.140   2.420   7.397 -1.6330 -0.3962  1.2334
   10SAPS  H18S 1274   6.259   2.284   7.419 -0.2500 -0.8306 -2.1199
   10SAPS  C219 1275   6.111   2.313   7.582  0.3980  0.2353 -0.0026
   10SAPS  H19R 1276   6.103   2.213   7.628  1.6846  0.1585  0.0832
   10SAPS  H19S 1277   6.018   2.372   7.595 -1.0247 -2.0684  0.5208
   10SAPS  C220 1278   6.221   2.386   7.666 -0.0449  0.3063  1.5524
   10SAPS  H20R 1279   6.200   2.385   7.775 -0.2744 -0.2346  1.5003
   10SAPS  H20S 1280   6.233   2.491   7.630 -2.5193 -0.1894 -0.8651
   10SAPS  H20T 1281   6.323   2.355   7.635 -1.7188 -3.8099 -0.1529
   10SAPS   C33 1282   5.821   2.267   6.797  0.0179  0.5655 -0.5304
   10SAPS   H3X 1283   5.857   2.256   6.901 -2.2466  0.3504  0.2539
   10SAPS   H3Y 1284   5.711   2.279   6.805 -0.1288 -1.5613  0.9591
   10SAPS   C34 1285   5.892   2.384   6.717  0.2923 -0.2810 -0.1786
   10SAPS   H4X 1286   5.844   2.370   6.618  1.7022 -1.6378 -0.6785
   10SAPS   H4Y 1287   6.002   2.377   6.711  0.2649 -2.2094  0.9331
   10SAPS   C35 1288   5.846   2.519   6.772  0.3360  0.7207 -0.1499
   10SAPS   H5X 1289   5.736   2.522   6.783  0.3549 -1.3297  0.8370
   10SAPS   H5Y 1290   5.863   2.589   6.687 -1.9409 -0.5654 -1.6881
   10SAPS   C36 1291   5.921   2.544   6.909 -0.6786 -0.2215 -0.4771
   10SAPS   H6X 1292   6.028   2.553   6.878 -0.6769  0.2274 -0.3382
   10SAPS   H6Y 1293   5.921   2.452   6.971  1.2686 -0.8916 -1.4227
   10SAPS   C37 1294   5.866   2.661   6.987  0.6943 -0.4735  0.3048
   10SAPS   H7X 1295   5.757   2.674   6.972  0.8500 -0.5786 -0.9520
   10SAPS   H7Y 1296   5.914   2.754   6.947  0.4054 -0.0812  0.8698
   10SAPS   C38 1297   5.884   2.648   7.141  0.4817  0.7669  0.3448
   10SAPS   H8X 1298   5.973   2.584   7.155  1.0674  0.6900 -3.3688
   10SAPS   H8Y 1299   5.796   2.594   7.182 -0.4097  0.7519 -1.5342
   10SAPS   C39 1300   5.892   2.778   7.209 -0.1411 -0.9806 -0.1509
   10SAPS   H9X 1301   5.794   2.831   7.210  1.2623  1.7289 -1.1472
   10SAPS   H9Y 1302   5.963   2.841   7.151 -1.1712 -1.1106 -1.5893
   10SAPS  C310 1303   5.947   2.765   7.350 -0.1461 -0.3821 -0.5245
   10SAPS  H10X 1304   5.957   2.865   7.397  0.0524 -0.7312  0.1825
   10SAPS  H10Y 1305   6.041   2.711   7.371 -0.7657 -0.5085  2.1748
   10SAPS  C311 1306   5.844   2.690   7.440  0.0308  0.2053  0.4203
   10SAPS  H11X 1307   5.857   2.581   7.425  1.2999  0.4291 -0.1408
   10SAPS  H11Y 1308   5.742   2.707   7.400 -0.7560 -1.2886  1.7367
   10SAPS  C312 1309   5.873   2.730   7.586 -0.1043 -0.1121 -0.0940
   10SAPS  H12X 1310   5.908   2.835   7.592 -0.0807  0.0135 -2.1962
   10SAPS  H12Y 1311   5.953   2.665   7.628  0.1350  0.7764  0.8583
   10SAPS  C313 1312   5.760   2.725   7.685 -0.4227 -0.4085 -0.1064
   10SAPS  H13X 1313   5.683   2.803   7.665  0.0139  0.0449 -0.0460
   10SAPS  H13Y 1314   5.805   2.761   7.780 -1.3105  0.5007 -0.0261
   10SAPS  C314 1315   5.700   2.591   7.677 -1.6747 -0.4273  0.2627
   10SAPS  H14X 1316   5.784   2.519   7.686 -1.2652 -0.1510 -1.3078
   10SAPS  H14Y 1317   5.659   2.568   7.577  0.3109 -1.3447 -0.3535
   10SAPS  C315 1318   5.604   2.564   7.793 -0.9378 -0.2124  0.0637
   10SAPS  H15X 1319   5.525   2.641   7.785 -1.7161 -0.8425  1.4062
   10SAPS  H15Y 1320   5.658   2.583   7.888  3.5503 -1.0138 -2.1968
   10SAPS  C316 1321   5.541   2.423   7.798 -0.2637 -0.1452 -0.5074
   10SAPS  H16X 1322   5.626   2.352   7.814  0.4594  1.0006  0.8101
   10SAPS  H16Y 1323   5.483   2.393   7.708 -1.8373 -0.2799  0.5357
   10SAPS  C317 1324   5.440   2.395   7.922 -0.3988 -0.3428 -0.4870
   10SAPS  H17X 1325   5.494   2.439   8.009  0.3873 -0.2817 -1.0021
   10SAPS  H17Y 1326   5.427   2.286   7.935  0.6876 -0.4500 -0.1904
   10SAPS  C318 1327   5.307   2.472   7.912  0.1847 -0.0683  0.2297
   10SAPS  H18X 1328   5.320   2.582   7.914 -2.1234  0.2358 -0.1760
   10SAPS  H18Y 1329   5.238   2.450   7.997 -0.9459  3.7802  0.4189
   10SAPS  H18Z 1330   5.261   2.432   7.819  1.2705  0.0523 -0.3629
   11SAPS     N 1331   6.070   3.867   5.790 -0.3292  0.2370 -0.4627
   11SAPS   HN1 1332   6.169   3.850   5.814 -0.3173 -2.1067 -2.0840
   11SAPS   HN2 1333   5.998   3.820   5.849  0.1983  0.3840  0.3032
   11SAPS   HN3 1334   6.060   3.836   5.691 -0.9755  1.4091 -0.7816
   11SAPS   C12 1335   6.035   4.015   5.788  0.1962  0.2993  0.4047
   11SAPS  H12A 1336   6.125   4.056   5.744 -0.7859  1.0494 -0.9558
   11SAPS   C13 1337   5.914   4.044   5.700 -0.2125  0.2837  1.1355
   11SAPS  O13A 1338   5.873   3.965   5.605  0.1930  0.4879 -0.0568
   11SAPS  O13B 1339   5.862   4.162   5.712  0.4771  0.2098  0.0346
   11SAPS   C11 1340   6.003   4.072   5.940  0.1939  0.5201  0.2539
   11SAPS  H11A 1341   5.932   3.997   5.980  0.7044 -0.5505 -0.8165
   11SAPS  H11B 1342   5.945   4.166   5.941 -0.3744  0.1666  0.5690
   11SAPS     P 1343   6.235   4.171   6.005  0.1479  0.3866 -0.1758
   11SAPS   O13 1344   6.320   4.159   6.127 -0.0141  0.5434 -0.3893
   11SAPS   O14 1345   6.304   4.161   5.873 -0.3311  0.1085  0.1703
   11SAPS   O12 1346   6.121   4.061   6.021  0.9651  0.2780 -0.0288
   11SAPS   O11 1347   6.146   4.303   6.005 -0.2518 -0.0422 -0.7093
   11SAPS    C1 1348   6.211   4.422   6.042 -0.6040 -0.0060 -0.5563
   11SAPS    HA 1349   6.282   4.414   6.126 -1.4367 -0.8037  0.0870
   11SAPS    HB 1350   6.272   4.451   5.954  1.2283  0.5240  0.8737
   11SAPS    C2 1351   6.113   4.533   6.089  1.0367  0.1835  0.0202
   11SAPS    HS 1352   6.043   4.550   6.004 -0.4392  0.4589  1.2739
   11SAPS   O21 1353   6.184   4.649   6.139 -0.1875  0.0039 -0.1775
   11SAPS   C21 1354   6.208   4.733   6.035  0.2488 -0.2653 -0.2817
   11SAPS   O22 1355   6.178   4.718   5.917  0.3423  0.6045 -0.0762
   11SAPS   C22 1356   6.290   4.849   6.085 -0.7944  0.4209  0.3784
   11SAPS   H2R 1357   6.294   4.839   6.196 -0.7148 -2.2452  0.1724
   11SAPS   H2S 1358   6.392   4.842   6.041 -1.9829  0.0169 -2.4410
   11SAPS    C3 1359   6.018   4.488   6.210  0.6493  0.1769 -0.0539
   11SAPS    HX 1360   5.966   4.400   6.167 -0.4849  0.1967  1.2466
   11SAPS    HY 1361   5.932   4.558   6.225  0.7433  0.6925 -1.7854
   11SAPS   O31 1362   6.087   4.449   6.330 -0.6712  0.3176 -0.5672
   11SAPS   C31 1363   6.082   4.527   6.435  0.8478 -0.3787 -0.4186
   11SAPS   O32 1364   6.036   4.637   6.436 -0.1812  0.0778 -0.2866
   11SAPS   C32 1365   6.134   4.446   6.561 -0.2083 -0.0785  0.3931
   11SAPS   H2X 1366   6.190   4.358   6.525 -0.9279  0.2020 -1.4765
   11SAPS   H2Y 1367   6.048   4.413   6.625 -0.6617 -1.3106 -0.8383
   11SAPS   C23 1368   6.227   4.985   6.048  0.3518  0.2113 -0.1203
   11SAPS   H3R 1369   6.214   4.993   5.938  1.9068 -1.5990 -0.4618
   11SAPS   H3S 1370   6.293   5.060   6.097 -1.1430  0.3161  1.7944
   11SAPS   C24 1371   6.086   5.012   6.104  0.2762  0.3158 -0.5821
   11SAPS   H4R 1372   6.001   4.964   6.051  0.8266  0.5999 -1.7540
   11SAPS   H4S 1373   6.067   5.118   6.075  4.4286  1.0163 -1.0386
   11SAPS   C25 1374   6.079   4.994   6.258  0.8714  0.3840  0.2987
   11SAPS   H5R 1375   6.044   4.896   6.293 -0.6393  0.1645 -1.7156
   11SAPS   C26 1376   6.083   5.088   6.352  0.0634 -0.6355  0.0650
   11SAPS   H6R 1377   6.065   5.054   6.455  1.5274  0.8485  0.8386
   11SAPS   C27 1378   6.100   5.230   6.326  0.5349 -0.1202 -0.2670
   11SAPS   H7R 1379   6.172   5.263   6.248  1.9348  1.2259  1.5494
   11SAPS   H7S 1380   6.148   5.272   6.416 -0.6366  1.6503 -0.4493
   11SAPS   C28 1381   5.956   5.277   6.315 -0.4843  0.0196  0.7611
   11SAPS   H8R 1382   5.903   5.218   6.238  1.6101  0.0217 -0.7452
   11SAPS   C29 1383   5.885   5.369   6.374 -0.2382  0.1169 -0.4988
   11SAPS   H9R 1384   5.779   5.382   6.346 -0.2008  0.5152 -0.4604
   11SAPS  C210 1385   5.933   5.460   6.481  0.1734  0.2028 -0.2982
   11SAPS  H10R 1386   5.942   5.560   6.432  0.3725  0.2252 -0.2146
   11SAPS  H10S 1387   6.035   5.432   6.514 -0.1697 -0.8877 -0.1558
   11SAPS  C211 1388   5.853   5.452   6.602  0.4758  0.1331  0.5512
   11SAPS  H11R 1389   5.776   5.529   6.617 -0.4593 -0.5234 -0.8157
   11SAPS  C212 1390   5.850   5.343   6.692  0.2605 -0.6637  0.4112
   11SAPS  H12R 1391   5.769   5.348   6.766 -0.1844 -3.0042  0.1328
   11SAPS  C213 1392   5.926   5.217   6.685  0.0503  0.6574 -0.7273
   11SAPS  H13R 1393   6.022   5.231   6.740  0.1217 -2.8648  0.1978
   11SAPS  H13S 1394   5.945   5.183   6.581  0.3746  0.9311 -0.7569
   11SAPS  C214 1395   5.854   5.101   6.751  0.2860 -0.4822 -0.2487
   11SAPS  H14R 1396   5.748   5.085   6.726 -0.1093  2.7998 -0.9994
   11SAPS  C215 1397   5.919   5.008   6.826  0.0915  0.6528 -0.2350
   11SAPS  H15R 1398   5.865   4.920   6.865 -1.1823  1.1324 -0.8747
   11SAPS  C216 1399   6.067   5.005   6.852  0.3564 -0.1326  0.9723
   11SAPS  H16R 1400   6.125   5.075   6.788 -0.2527 -1.7985 -1.4914
   11SAPS  H16S 1401   6.107   4.905   6.821 -0.2679 -0.3071  0.7287
   11SAPS  C217 1402   6.105   5.046   6.999 -0.4851  0.7062 -0.1173
   11SAPS  H17R 1403   6.213   5.022   7.005 -0.8672 -1.0948 -0.2028
   11SAPS  H17S 1404   6.048   4.997   7.080  1.4420  0.9660  1.4327
   11SAPS  C218 1405   6.084   5.201   7.016  0.0106  0.6575 -0.8287
   11SAPS  H18R 1406   5.978   5.227   6.998 -0.0226 -0.3635 -2.1635
   11SAPS  H18S 1407   6.155   5.242   6.940  1.8770 -2.3904 -0.8319
   11SAPS  C219 1408   6.128   5.245   7.151  0.6230  0.2885  0.1687
   11SAPS  H19R 1409   6.237   5.243   7.171  0.9864  2.1997 -1.4836
   11SAPS  H19S 1410   6.075   5.176   7.221 -0.1829  0.3516 -0.3666
   11SAPS  C220 1411   6.068   5.378   7.178 -0.0412  0.4319 -0.6343
   11SAPS  H20R 1412   6.094   5.393   7.285  2.3184  0.2474 -1.1526
   11SAPS  H20S 1413   5.964   5.368   7.142  0.7977 -2.5131 -2.4462
   11SAPS  H20T 1414   6.125   5.459   7.128  1.0215 -0.1473 -0.3761
   11SAPS   C33 1415   6.224   4.526   6.654  0.5160  0.4216  0.2561
   11SAPS   H3X 1416   6.152   4.588   6.711 -0.1414 -2.8740  3.2465
   11SAPS   H3Y 1417   6.287   4.591   6.590 -0.6304  0.1045 -1.1989
   11SAPS   C34 1418   6.303   4.440   6.757 -0.4791  0.0224 -0.4812
   11SAPS   H4X 1419   6.386   4.394   6.700 -1.8078 -0.5919 -1.9546
   11SAPS   H4Y 1420   6.242   4.361   6.806  1.2264  0.5577  2.6007
   11SAPS   C35 1421   6.354   4.543   6.860  0.0255 -0.0834 -0.3289
   11SAPS   H5X 1422   6.379   4.638   6.809 -0.8481  0.6839  0.6526
   11SAPS   H5Y 1423   6.449   4.500   6.898 -1.3077 -2.3984  0.5500
   11SAPS   C36 1424   6.251   4.572   6.968  0.0379 -0.3454 -0.4559
   11SAPS   H6X 1425   6.218   4.478   7.018  1.9495 -1.1641 -0.7050
   11SAPS   H6Y 1426   6.167   4.628   6.922 -0.6771 -1.0368 -0.0165
   11SAPS   C37 1427   6.302   4.667   7.078 -0.2271 -0.1420  0.3661
   11SAPS   H7X 1428   6.336   4.760   7.028 -3.8666  1.0440 -0.0650
   11SAPS   H7Y 1429   6.389   4.629   7.137  3.4501  0.7389 -4.1671
   11SAPS   C38 1430   6.185   4.700   7.175  0.0749  0.1615 -0.3970
   11SAPS   H8X 1431   6.166   4.605   7.229  2.2069  0.1922  0.4878
   11SAPS   H8Y 1432   6.098   4.722   7.110 -1.3862  0.8418  1.7428
   11SAPS   C39 1433   6.204   4.824   7.265  0.2522  0.6395  0.4551
   11SAPS   H9X 1434   6.218   4.918   7.208 -1.5749  2.4020  2.8003
   11SAPS   H9Y 1435   6.287   4.821   7.339  0.0256  0.5865  0.7091
   11SAPS  C310 1436   6.084   4.858   7.355 -0.0984 -0.4859 -0.1598
   11SAPS  H10X 1437   5.999   4.877   7.287 -0.2463 -0.0156  0.1508
   11SAPS  H10Y 1438   6.111   4.959   7.394 -2.3545 -1.0316  3.0137
   11SAPS  C311 1439   6.043   4.743   7.449 -0.5308 -0.0776  0.0459
   11SAPS  H11X 1440   6.020   4.643   7.408 -2.2157  0.7691 -1.1212
   11SAPS  H11Y 1441   5.943   4.769   7.491 -0.9735  1.1500 -1.7011
   11SAPS  C312 1442   6.142   4.724   7.559 -0.1902 -0.1082  0.1094
   11SAPS  H12X 1443   6.163   4.825   7.602  0.8948  0.1034 -0.8985
   11SAPS  H12Y 1444   6.241   4.692   7.519 -0.1711 -0.6939  0.6263
   11SAPS  C313 1445   6.094   4.615   7.661 -0.5060  0.0199  0.0619
   11SAPS  H13X 1446   6.084   4.520   7.604  0.3280  0.1984 -0.3971
   11SAPS  H13Y 1447   5.986   4.634   7.679  0.3879  2.9080  2.7293
   11SAPS  C314 1448   6.175   4.612   7.789  0.2764 -0.1336  0.4408
   11SAPS  H14X 1449   6.180   4.707   7.845  1.1021  1.8207 -2.7792
   11SAPS  H14Y 1450   6.280   4.587   7.761  0.3324  1.2491 -0.6330
   11SAPS  C315 1451   6.139   4.494   7.878 -0.5686 -1.0688 -0.4361
   11SAPS  H15X 1452   6.116   4.399   7.824  0.4715 -2.1155  0.9189
   11SAPS  H15Y 1453   6.041   4.515   7.928 -0.2448 -0.0707 -0.2157
   11SAPS  C316 1454   6.254   4.461   7.973  0.5802  0.1232 -0.3181
   11SAPS  H16X 1455   6.295   4.549   8.028  1.0052 -0.9651  1.1644
   11SAPS  H16Y 1456   6.337   4.423   7.910 -0.0889 -0.2644 -0.9699
   11SAPS  C317 1457   6.212   4.348   8.066  0.3102  0.5814 -0.1278
   11SAPS  H17X 1458   6.188   4.259   8.004 -1.6942  0.8647  0.2147
   11SAPS  H17Y 1459   6.130   4.391   8.126  2.8778  1.9194  2.5716
   11SAPS  C318 1460   6.326   4.315   8.163 -0.6111 -0.1879 -0.4422
   11SAPS  H18X 1461   6.309   4.217   8.212  0.5476  0.0556  0.4487
   11SAPS  H18Y 1462   6.326   4.387   8.247 -1.4967 -0.1974 -0.4329
   11SAPS  H18Z 1463   6.426   4.303   8.115 -1.5803  0.2300 -2.6270
   12SAPS     N 1464   4.928   6.389   5.747 -0.2836 -0.4031  0.0854
   12SAPS   HN1 1465   4.857   6.319   5.717 -1.0913  0.4823 -0.0832
   12SAPS   HN2 1466   5.015   6.343   5.715 -0.9827 -1.1785 -0.7313
   12SAPS   HN3 1467   4.927   6.411   5.849 -1.6267  1.4169 -0.2885
   12SAPS   C12 1468   4.875   6.500   5.662  0.1886 -0.2194  0.3772
   12SAPS  H12A 1469   4.958   6.566   5.642 -0.4751  0.2670 -0.7918
   12SAPS   C13 1470   4.817   6.467   5.522  0.1335 -0.3507 -0.3283
   12SAPS  O13A 1471   4.801   6.344   5.495 -0.0218  0.3154 -0.4545
   12SAPS  O13B 1472   4.758   6.555   5.460 -0.0704  0.2711  0.0132
   12SAPS   C11 1473   4.763   6.573   5.745 -0.5290 -0.3907  0.1496
   12SAPS  H11A 1474   4.669   6.515   5.738  0.9156 -2.6400 -1.1001
   12SAPS  H11B 1475   4.744   6.665   5.685  3.3016 -0.2492 -1.0048
   12SAPS     P 1476   4.769   6.542   6.011 -0.1971 -0.3117 -0.0819
   12SAPS   O13 1477   4.636   6.480   6.021  0.3718 -0.6890 -0.5039
   12SAPS   O14 1478   4.885   6.452   6.023 -0.3092 -0.0675  0.1268
   12SAPS   O12 1479   4.786   6.622   5.877 -0.7060 -0.2444 -0.1159
   12SAPS   O11 1480   4.767   6.657   6.123  0.3752 -0.0906  0.2846
   12SAPS    C1 1481   4.877   6.745   6.139  0.9110 -0.2223  0.3381
   12SAPS    HA 1482   4.928   6.764   6.042  0.5036 -0.6508  0.0402
   12SAPS    HB 1483   4.841   6.846   6.168  1.6727  0.2473 -0.3024
   12SAPS    C2 1484   4.988   6.686   6.236  0.0382 -0.6737 -0.0878
   12SAPS    HS 1485   5.013   6.585   6.198 -0.1943 -0.1848 -1.5507
   12SAPS   O21 1486   4.941   6.686   6.373 -0.9964 -1.0821 -0.0872
   12SAPS   C21 1487   4.999   6.592   6.447 -0.4509  0.6083 -0.6163
   12SAPS   O22 1488   5.087   6.515   6.411 -0.4957 -0.1339  0.2300
   12SAPS   C22 1489   4.953   6.600   6.587  0.2075 -0.7179 -0.2538
   12SAPS   H2R 1490   4.944   6.709   6.604  0.9354 -0.6922 -0.0572
   12SAPS   H2S 1491   4.849   6.561   6.582 -0.0704 -0.0526  0.3620
   12SAPS    C3 1492   5.121   6.772   6.217 -0.8658 -0.4667 -0.1464
   12SAPS    HX 1493   5.155   6.760   6.112 -3.5177 -0.3654 -1.0550
   12SAPS    HY 1494   5.197   6.733   6.288 -1.9610 -0.4890  1.0245
   12SAPS   O31 1495   5.099   6.913   6.244  0.4002 -0.7204 -0.1686
   12SAPS   C31 1496   5.115   6.961   6.366  0.3224  0.4150  0.3100
   12SAPS   O32 1497   5.144   6.898   6.466 -0.2986  0.0939 -0.1191
   12SAPS   C32 1498   5.096   7.112   6.365  0.5411 -0.7843 -0.8230
   12SAPS   H2X 1499   4.992   7.133   6.333  0.2216 -0.0381  0.6631
   12SAPS   H2Y 1500   5.174   7.137   6.289 -0.5871 -2.9079 -2.7425
   12SAPS   C23 1501   5.039   6.526   6.683  0.0552  0.1164  0.4189
   12SAPS   H3R 1502   5.145   6.532   6.649 -0.0462  0.7911  0.2075
   12SAPS   H3S 1503   5.011   6.419   6.684 -1.3499  0.4017 -3.0026
   12SAPS   C24 1504   5.039   6.595   6.824  0.0490 -0.2815 -0.4236
   12SAPS   H4R 1505   5.047   6.705   6.809  2.5305  0.0634  2.9767
   12SAPS   H4S 1506   5.129   6.560   6.878  0.1321  0.7247  0.0989
   12SAPS   C25 1507   4.923   6.565   6.916 -0.5906 -0.3934 -0.6930
   12SAPS   H5R 1508   4.865   6.476   6.888 -1.8867 -0.9280  3.3577
   12SAPS   C26 1509   4.896   6.622   7.036 -0.2634 -0.6480 -0.3083
   12SAPS   H6R 1510   4.824   6.573   7.102  0.9462 -0.9781  0.7752
   12SAPS   C27 1511   4.976   6.731   7.100  0.3772 -0.3975 -0.7339
   12SAPS   H7R 1512   5.080   6.726   7.062  0.7874  0.7710  0.2166
   12SAPS   H7S 1513   4.981   6.719   7.210  0.7883 -0.5858 -0.7717
   12SAPS   C28 1514   4.929   6.872   7.071  0.2001 -0.1855  0.3683
   12SAPS   H8R 1515   4.886   6.885   6.971 -1.2215 -0.0252  0.9893
   12SAPS   C29 1516   4.958   6.974   7.155 -0.8057 -0.4283  0.0442
   12SAPS   H9R 1517   4.948   7.077   7.118 -1.0173  0.1943  1.8012
   12SAPS  C210 1518   5.041   6.974   7.277  0.4345 -0.2039  0.5563
   12SAPS  H10R 1519   4.999   6.899   7.348  0.3107 -0.3073  0.3739
   12SAPS  H10S 1520   5.038   7.072   7.329  1.8196  1.4663 -2.3965
   12SAPS  C211 1521   5.186   6.951   7.254  0.0479  0.0632  0.1159
   12SAPS  H11R 1522   5.209   6.855   7.205  0.9720 -1.1306  2.8027
   12SAPS  C212 1523   5.286   7.025   7.294 -0.0330 -0.2652 -0.3642
   12SAPS  H12R 1524   5.389   6.989   7.290 -0.5201 -1.6078 -1.0119
   12SAPS  C213 1525   5.273   7.148   7.378 -0.0504  0.7110  0.4491
   12SAPS  H13R 1526   5.177   7.153   7.433 -0.5132 -0.5865 -0.2187
   12SAPS  H13S 1527   5.271   7.237   7.312  1.2525  0.8384  0.5732
   12SAPS  C214 1528   5.394   7.163   7.468 -0.1884 -0.3183 -0.0962
   12SAPS  H14R 1529   5.487   7.176   7.411 -0.1220  0.2929  0.1460
   12SAPS  C215 1530   5.398   7.173   7.605  0.0470  0.1935  0.0948
   12SAPS  H15R 1531   5.494   7.168   7.659  0.3621  1.8957 -0.2999
   12SAPS  C216 1532   5.280   7.170   7.689 -0.4123 -0.2680  0.5468
   12SAPS  H16R 1533   5.300   7.123   7.788  0.1796  1.4881  1.2720
   12SAPS  H16S 1534   5.202   7.105   7.643  0.9831 -0.6541 -1.3049
   12SAPS  C217 1535   5.224   7.307   7.734  0.9478 -0.0303 -0.8930
   12SAPS  H17R 1536   5.177   7.354   7.645 -0.2427  0.9904  0.2396
   12SAPS  H17S 1537   5.307   7.374   7.766  0.6033  0.2929 -0.6696
   12SAPS  C218 1538   5.111   7.306   7.842  0.3293  0.1305 -0.3904
   12SAPS  H18R 1539   5.060   7.207   7.833 -0.9151  0.6712  0.6576
   12SAPS  H18S 1540   5.043   7.390   7.816 -0.0587  0.0909  0.4881
   12SAPS  C219 1541   5.184   7.306   7.980  0.4049  0.3089  0.3136
   12SAPS  H19R 1542   5.233   7.404   7.997 -0.7887  1.2804 -1.6453
   12SAPS  H19S 1543   5.257   7.224   7.963  3.1977  2.6336  0.8118
   12SAPS  C220 1544   5.095   7.262   8.095 -0.2081  0.0051 -0.2987
   12SAPS  H20R 1545   5.024   7.188   8.053  0.2764 -0.5639 -0.1189
   12SAPS  H20S 1546   5.035   7.343   8.142  0.2475  0.7092 -0.9355
   12SAPS  H20T 1547   5.155   7.218   8.178 -3.5332 -1.7897  1.2717
   12SAPS   C33 1548   5.126   7.189   6.500 -0.2482  0.0870  0.4457
   12SAPS   H3X 1549   5.136   7.298   6.478  1.3675 -0.1529 -0.0810
   12SAPS   H3Y 1550   5.219   7.158   6.552  0.3791  1.1516 -0.0153
   12SAPS   C34 1551   5.009   7.180   6.604 -0.1815  0.2608  0.0968
   12SAPS   H4X 1552   5.006   7.076   6.643 -0.6514 -0.1686 -1.0555
   12SAPS   H4Y 1553   4.915   7.184   6.546 -0.3342 -0.2719  0.2982
   12SAPS   C35 1554   5.023   7.283   6.722  0.0021 -0.3023 -0.1989
   12SAPS   H5X 1555   5.047   7.385   6.686 -0.8042  0.6429  1.8712
   12SAPS   H5Y 1556   5.104   7.242   6.787 -0.6084 -2.4184 -0.7385
   12SAPS   C36 1557   4.903   7.284   6.820  0.1595  0.1590  0.2752
   12SAPS   H6X 1558   4.871   7.179   6.836  0.2444  0.1497  0.3824
   12SAPS   H6Y 1559   4.821   7.347   6.779  2.4049  1.7525 -1.8770
   12SAPS   C37 1560   4.939   7.351   6.962  0.0408  0.3708 -0.3408
   12SAPS   H7X 1561   4.968   7.455   6.940  0.8329  0.7218  2.2308
   12SAPS   H7Y 1562   5.034   7.298   6.985 -1.4187 -2.3487 -0.2607
   12SAPS   C38 1563   4.826   7.327   7.072 -0.4357  0.1045 -0.4296
   12SAPS   H8X 1564   4.797   7.220   7.073 -1.7921  0.4613 -0.1736
   12SAPS   H8Y 1565   4.728   7.377   7.051 -0.2897 -0.3024 -2.1432
   12SAPS   C39 1566   4.880   7.351   7.213  0.1337 -0.1018  0.2660
   12SAPS   H9X 1567   4.905   7.460   7.213 -1.4507  0.3082  3.1587
   12SAPS   H9Y 1568   4.978   7.299   7.216 -0.9757 -2.4066 -2.0324
   12SAPS  C310 1569   4.802   7.298   7.333 -0.5802 -0.0896 -0.2710
   12SAPS  H10X 1570   4.797   7.187   7.334 -2.1651 -0.0137  1.6443
   12SAPS  H10Y 1571   4.697   7.333   7.330 -0.0770  1.4337 -0.7507
   12SAPS  C311 1572   4.881   7.346   7.453 -0.0679  0.1516  0.6077
   12SAPS  H11X 1573   4.888   7.456   7.465  2.4778  0.2802 -1.4833
   12SAPS  H11Y 1574   4.989   7.318   7.449  0.5371  2.5924 -1.6419
   12SAPS  C312 1575   4.825   7.293   7.583  0.3782  0.2402  0.1646
   12SAPS  H12X 1576   4.714   7.303   7.577  0.5231  1.2559 -1.0521
   12SAPS  H12Y 1577   4.863   7.362   7.661  0.2643  0.1028  0.3435
   12SAPS  C313 1578   4.862   7.150   7.618 -0.0968 -0.1606  0.1425
   12SAPS  H13X 1579   4.972   7.147   7.637 -0.3296 -0.5637  1.4851
   12SAPS  H13Y 1580   4.842   7.089   7.527  1.7858  0.0788 -0.4629
   12SAPS  C314 1581   4.793   7.100   7.740  0.3924 -0.4856  0.2668
   12SAPS  H14X 1582   4.686   7.126   7.724  1.3308  2.5164 -1.5914
   12SAPS  H14Y 1583   4.841   7.148   7.828  0.7151  0.0113 -0.1733
   12SAPS  C315 1584   4.814   6.944   7.755 -0.6780 -0.7336  0.4753
   12SAPS  H15X 1585   4.921   6.914   7.742 -0.9880 -1.1812 -1.0253
   12SAPS  H15Y 1586   4.759   6.899   7.670  2.7804 -2.4073 -0.9618
   12SAPS  C316 1587   4.750   6.872   7.873 -1.1063 -0.6425  0.5479
   12SAPS  H16X 1588   4.755   6.763   7.851  0.8713 -0.3700 -0.4673
   12SAPS  H16Y 1589   4.644   6.904   7.890 -0.5262  1.1127  0.9534
   12SAPS  C317 1590   4.825   6.895   8.006  0.0412  0.2858 -0.3419
   12SAPS  H17X 1591   4.870   6.996   8.020  1.1185 -0.3208  0.6747
   12SAPS  H17Y 1592   4.916   6.833   7.990  1.1768  1.9258 -0.4500
   12SAPS  C318 1593   4.752   6.860   8.134  0.0972 -0.3516  0.3308
   12SAPS  H18X 1594   4.823   6.858   8.220 -0.7533 -0.4803  1.0435
   12SAPS  H18Y 1595   4.716   6.755   8.128  2.8008 -1.2672 -0.2400
   12SAPS  H18Z 1596   4.670   6.928   8.167  0.4069 -0.3239  1.0505
   13SAPS     N 1597   7.097   2.526   5.726  0.6284  0.0209  0.6565
   13SAPS   HN1 1598   7.116   2.599   5.654 -0.8528 -0.9287 -0.7306
   13SAPS   HN2 1599   7.145   2.561   5.811  3.1682 -0.4800 -0.5368
   13SAPS   HN3 1600   7.139   2.435   5.700  0.8181  0.8731 -2.2407
   13SAPS   C12 1601   6.951   2.515   5.736  0.4799  0.1592 -0.3833
   13SAPS  H12A 1602   6.916   2.612   5.768  0.6415 -0.5781  2.1177
   13SAPS   C13 1603   6.888   2.492   5.599  0.3052 -0.3130  0.0262
   13SAPS  O13A 1604   6.948   2.521   5.491 -0.1575 -0.0067 -0.4150
   13SAPS  O13B 1605   6.769   2.454   5.592  0.3281 -0.0724  0.1175
   13SAPS   C11 1606   6.920   2.406   5.844 -0.0059 -0.5335  0.0821
   13SAPS  H11A 1607   6.969   2.309   5.819  1.3195  0.5921 -1.7359
   13SAPS  H11B 1608   6.811   2.387   5.857 -0.0695 -1.0763 -1.1641
   13SAPS     P 1609   6.896   2.472   6.106 -0.2860  0.5438 -0.1606
   13SAPS   O13 1610   6.956   2.571   6.195  0.4088  0.2446 -0.6017
   13SAPS   O14 1611   6.756   2.511   6.074  0.9742 -0.0522  0.2924
   13SAPS   O12 1612   6.984   2.444   5.975 -0.5302  0.0206 -0.4674
   13SAPS   O11 1613   6.901   2.331   6.176  0.0793 -0.1549 -0.0806
   13SAPS    C1 1614   6.960   2.308   6.299  0.4500 -0.6371  0.0914
   13SAPS    HA 1615   7.036   2.384   6.329 -1.1394 -0.5347  4.2127
   13SAPS    HB 1616   6.873   2.304   6.368  0.4071  1.3868  0.1903
   13SAPS    C2 1617   7.032   2.173   6.309 -0.0841  0.2187 -0.3588
   13SAPS    HS 1618   7.107   2.160   6.229  0.4453 -1.4201  0.3821
   13SAPS   O21 1619   6.939   2.071   6.313  0.1885 -0.4473  0.2530
   13SAPS   C21 1620   6.976   1.945   6.321  0.6284  0.4080  0.2483
   13SAPS   O22 1621   7.087   1.900   6.298 -0.1445 -0.2873 -0.4942
   13SAPS   C22 1622   6.848   1.856   6.344  0.4172  0.4896  0.3850
   13SAPS   H2R 1623   6.757   1.919   6.353  0.8871  1.2567 -0.1503
   13SAPS   H2S 1624   6.840   1.790   6.254 -1.0100  0.8255  0.2661
   13SAPS    C3 1625   7.107   2.175   6.446  0.2837  0.2416 -0.5574
   13SAPS    HX 1626   7.181   2.257   6.439 -0.8543  1.3404  0.2418
   13SAPS    HY 1627   7.173   2.085   6.445 -0.7409 -0.5378  0.1939
   13SAPS   O31 1628   7.025   2.175   6.568 -0.5085  0.0154 -0.1906
   13SAPS   C31 1629   7.008   2.289   6.623  0.3180  0.4458 -0.0254
   13SAPS   O32 1630   7.048   2.397   6.585  0.0239  0.1797 -0.3702
   13SAPS   C32 1631   6.932   2.264   6.757  0.2241 -0.5203  1.3090
   13SAPS   H2X 1632   6.977   2.177   6.810  3.8728  0.0733 -0.6330
   13SAPS   H2Y 1633   6.833   2.235   6.716  0.5474  0.7247 -0.4420
   13SAPS   C23 1634   6.850   1.767   6.473  0.3553  0.1555  0.1695
   13SAPS   H3R 1635   6.936   1.696   6.477  0.8886  0.8286  0.9776
   13SAPS   H3S 1636   6.758   1.706   6.479  1.9020 -2.4290 -1.1511
   13SAPS   C24 1637   6.864   1.846   6.600  0.2888  0.2709  0.0622
   13SAPS   H4R 1638   6.945   1.922   6.597  1.7468 -1.3134 -1.0455
   13SAPS   H4S 1639   6.909   1.779   6.675  1.3140  1.0731  0.1791
   13SAPS   C25 1640   6.739   1.914   6.649  0.9981 -0.3980 -0.0759
   13SAPS   H5R 1641   6.658   1.929   6.576  0.0763 -1.3311  0.7290
   13SAPS   C26 1642   6.718   1.940   6.773 -0.1669  0.2118 -1.1912
   13SAPS   H6R 1643   6.625   1.993   6.800  0.5703 -0.5060  3.1798
   13SAPS   C27 1644   6.810   1.913   6.887 -0.5637  0.1183 -0.4755
   13SAPS   H7R 1645   6.827   2.012   6.933  1.0784  0.9770 -2.8143
   13SAPS   H7S 1646   6.910   1.876   6.854 -0.1173 -1.7428  2.8021
   13SAPS   C28 1647   6.752   1.821   6.990 -0.0745 -0.3405 -0.6298
   13SAPS   H8R 1648   6.742   1.715   6.963 -0.6810 -1.2946  3.0692
   13SAPS   C29 1649   6.721   1.857   7.115  1.2065  0.1765  0.2266
   13SAPS   H9R 1650   6.681   1.776   7.177 -0.1901 -0.3031 -1.2378
   13SAPS  C210 1651   6.737   1.996   7.172  0.3838  0.3328 -0.0142
   13SAPS  H10R 1652   6.653   2.016   7.241 -0.2280  1.0596 -0.9557
   13SAPS  H10S 1653   6.723   2.077   7.097 -4.6943  0.8349  1.3545
   13SAPS  C211 1654   6.876   2.019   7.228 -0.7782 -0.1345 -0.1934
   13SAPS  H11R 1655   6.957   2.031   7.155 -0.6083  2.3163  0.3407
   13SAPS  C212 1656   6.906   2.040   7.360  0.1547 -0.3862 -0.3797
   13SAPS  H12R 1657   7.011   2.062   7.386  0.2149 -0.0292 -0.9262
   13SAPS  C213 1658   6.818   2.053   7.483  0.5077 -0.3499 -0.2240
   13SAPS  H13R 1659   6.736   2.121   7.450  0.6461  1.0563  2.1839
   13SAPS  H13S 1660   6.861   2.105   7.571 -0.5424  0.5753 -0.2448
   13SAPS  C214 1661   6.778   1.920   7.527  0.1448 -0.1059  0.3584
   13SAPS  H14R 1662   6.767   1.843   7.450  0.8142 -0.1730  0.3272
   13SAPS  C215 1663   6.779   1.872   7.652  0.6536  0.1682  0.4220
   13SAPS  H15R 1664   6.741   1.770   7.669 -0.3028  0.5990  0.9076
   13SAPS  C216 1665   6.810   1.947   7.783  0.3649  0.5530  0.3530
   13SAPS  H16R 1666   6.741   1.910   7.862 -0.9685 -0.5823 -1.2993
   13SAPS  H16S 1667   6.781   2.053   7.769  1.9570  0.7274 -1.9617
   13SAPS  C217 1668   6.956   1.932   7.822  0.6102  0.0071 -0.5069
   13SAPS  H17R 1669   6.993   1.828   7.817 -2.6634 -1.2242 -0.2381
   13SAPS  H17S 1670   6.955   1.976   7.924 -0.9370  2.1330 -1.3920
   13SAPS  C218 1671   7.068   2.020   7.754  0.0062 -0.9986 -0.6545
   13SAPS  H18R 1672   7.039   2.120   7.795  0.2487 -1.9313  1.8958
   13SAPS  H18S 1673   7.058   2.017   7.643 -0.1241 -2.4627 -0.6061
   13SAPS  C219 1674   7.213   1.997   7.801  0.1815  0.3791 -0.5201
   13SAPS  H19R 1675   7.241   1.897   7.762  3.0035  1.1099 -0.5088
   13SAPS  H19S 1676   7.226   1.997   7.911 -0.6257  0.4931 -0.4226
   13SAPS  C220 1677   7.304   2.104   7.750 -0.0625 -0.2499 -1.0577
   13SAPS  H20R 1678   7.287   2.114   7.641 -0.3895 -2.7373 -1.2570
   13SAPS  H20S 1679   7.410   2.071   7.755  0.4343  1.4019 -0.2273
   13SAPS  H20T 1680   7.290   2.201   7.804  0.4704  0.4937 -2.2296
   13SAPS   C33 1681   6.922   2.386   6.854  0.4237 -0.0543 -0.1270
   13SAPS   H3X 1682   6.900   2.478   6.797  1.9450 -0.0440 -0.7167
   13SAPS   H3Y 1683   7.021   2.403   6.902 -0.1294  0.9848  0.6750
   13SAPS   C34 1684   6.810   2.368   6.964 -0.1927 -0.3624  0.1108
   13SAPS   H4X 1685   6.798   2.263   6.998 -1.9770 -0.2340 -0.0777
   13SAPS   H4Y 1686   6.713   2.410   6.930 -0.3037  0.9919  2.0115
   13SAPS   C35 1687   6.846   2.452   7.090  0.0179  0.2335  0.5362
   13SAPS   H5X 1688   6.850   2.562   7.076  0.8535  0.2104  0.5297
   13SAPS   H5Y 1689   6.951   2.430   7.120  0.2668 -0.6680 -0.9714
   13SAPS   C36 1690   6.771   2.413   7.220  0.4012  0.4403 -0.3117
   13SAPS   H6X 1691   6.808   2.315   7.258  0.1836  0.9263  1.1678
   13SAPS   H6Y 1692   6.664   2.416   7.193  0.1838 -1.7085  0.2074
   13SAPS   C37 1693   6.791   2.517   7.330 -0.1404 -0.1047 -0.2998
   13SAPS   H7X 1694   6.751   2.614   7.295  1.5817  1.0521  0.8205
   13SAPS   H7Y 1695   6.898   2.523   7.362 -0.5272 -1.6054  1.4313
   13SAPS   C38 1696   6.704   2.494   7.459 -0.3727 -0.7037  0.7899
   13SAPS   H8X 1697   6.770   2.413   7.497  1.8282  0.3747 -0.6295
   13SAPS   H8Y 1698   6.605   2.460   7.422  0.0945 -0.8817 -0.3173
   13SAPS   C39 1699   6.693   2.618   7.542  0.0572  0.0097 -0.6987
   13SAPS   H9X 1700   6.665   2.706   7.481 -2.4923 -0.5356 -0.3738
   13SAPS   H9Y 1701   6.797   2.642   7.573 -0.2989  1.6706 -0.7549
   13SAPS  C310 1702   6.597   2.589   7.659  0.0274 -0.1705 -0.0825
   13SAPS  H10X 1703   6.641   2.505   7.717 -1.0394 -0.0911  0.8531
   13SAPS  H10Y 1704   6.493   2.569   7.626 -0.2296 -2.4101  1.9147
   13SAPS  C311 1705   6.592   2.705   7.760  0.2981 -0.2754  0.0117
   13SAPS  H11X 1706   6.575   2.803   7.711 -2.2444 -0.6292  0.1090
   13SAPS  H11Y 1707   6.698   2.704   7.793  0.4248  1.0811 -0.3266
   13SAPS  C312 1708   6.490   2.693   7.882 -0.1390 -0.3803 -0.5045
   13SAPS  H12X 1709   6.394   2.691   7.827  0.7075  0.3950 -2.0295
   13SAPS  H12Y 1710   6.508   2.782   7.945 -0.4853  0.1088 -1.0917
   13SAPS  C313 1711   6.505   2.559   7.954  0.9862  0.1242 -0.5454
   13SAPS  H13X 1712   6.592   2.558   8.023  0.9620 -0.2937 -0.5211
   13SAPS  H13Y 1713   6.496   2.469   7.889 -0.4952  0.6590 -1.0971
   13SAPS  C314 1714   6.391   2.539   8.047 -1.1385 -0.9231 -0.3076
   13SAPS  H14X 1715   6.306   2.522   7.979 -0.5308 -3.3559 -0.4850
   13SAPS  H14Y 1716   6.389   2.638   8.098 -0.4630 -0.1729 -1.6943
   13SAPS  C315 1717   6.391   2.417   8.135  0.3332  0.2817 -0.7017
   13SAPS  H15X 1718   6.313   2.428   8.212  0.9216 -1.6739  0.2124
   13SAPS  H15Y 1719   6.491   2.425   8.183 -0.4936 -0.9171  1.2661
   13SAPS  C316 1720   6.384   2.286   8.058 -0.0250 -0.1636 -0.1044
   13SAPS  H16X 1721   6.446   2.284   7.965 -1.2598  0.2518 -0.9461
   13SAPS  H16Y 1722   6.278   2.264   8.031 -0.0153  0.5038 -0.7005
   13SAPS  C317 1723   6.423   2.172   8.157 -0.0282  0.0543 -0.0159
   13SAPS  H17X 1724   6.349   2.152   8.237  0.3448 -1.2960 -0.0058
   13SAPS  H17Y 1725   6.511   2.202   8.217  0.2635 -1.5932  0.3808
   13SAPS  C318 1726   6.448   2.034   8.089  0.1426 -0.1246 -0.2879
   13SAPS  H18X 1727   6.480   1.958   8.164 -1.9301 -1.3327 -0.5890
   13SAPS  H18Y 1728   6.522   2.039   8.006  0.8056  0.1842  0.3096
   13SAPS  H18Z 1729   6.356   1.993   8.042 -0.6065  2.1626 -0.8750
   14SAPS     N 1730   6.592   5.880   5.860  0.1746  0.2764 -0.0457
   14SAPS   HN1 1731   6.674   5.821   5.835  2.3065  3.8029 -1.7072
   14SAPS   HN2 1732   6.618   5.920   5.952  1.9881 -1.5749  0.3021
   14SAPS   HN3 1733   6.501   5.830   5.864  1.0053 -1.1960  1.2101
   14SAPS   C12 1734   6.581   5.995   5.771 -0.0728 -0.3423  0.2630
   14SAPS  H12A 1735   6.676   6.014   5.722  0.6713  1.5409  2.3212
   14SAPS   C13 1736   6.462   5.992   5.665 -0.2204  1.2454 -0.1913
   14SAPS  O13A 1737   6.385   5.897   5.664  0.1108  0.1840  0.1371
   14SAPS  O13B 1738   6.456   6.080   5.580 -0.3319  0.5569  0.2345
   14SAPS   C11 1739   6.560   6.113   5.868 -0.3920 -1.2147 -0.9318
   14SAPS  H11A 1740   6.471   6.091   5.932 -0.3901 -1.8695 -1.1584
   14SAPS  H11B 1741   6.535   6.199   5.802  1.4030 -0.8274 -1.1287
   14SAPS     P 1742   6.790   6.218   5.893  0.6123 -0.3356 -0.1995
   14SAPS   O13 1743   6.885   6.128   5.829 -0.2845  0.5776  0.5827
   14SAPS   O14 1744   6.745   6.330   5.803  0.2897 -0.1159 -0.1875
   14SAPS   O12 1745   6.671   6.143   5.952 -0.8404  0.1307 -0.0506
   14SAPS   O11 1746   6.863   6.283   6.016  0.0299  0.0705 -0.3304
   14SAPS    C1 1747   6.812   6.293   6.147 -0.5783 -0.3389 -0.4133
   14SAPS    HA 1748   6.840   6.392   6.189  0.1956 -0.7877  0.1530
   14SAPS    HB 1749   6.703   6.276   6.137 -1.0552  2.0553  0.4236
   14SAPS    C2 1750   6.870   6.180   6.237 -0.8148  0.0992  0.3099
   14SAPS    HS 1751   6.974   6.205   6.268 -1.4115  1.9169  0.8996
   14SAPS   O21 1752   6.863   6.054   6.163  0.3929  0.5008 -0.5553
   14SAPS   C21 1753   6.977   6.006   6.117 -0.0394 -0.1231 -0.0573
   14SAPS   O22 1754   7.087   6.059   6.139 -0.5830  0.6262  0.1276
   14SAPS   C22 1755   6.946   5.871   6.045 -0.9153 -0.5741  0.1698
   14SAPS   H2R 1756   6.846   5.826   6.059 -1.0606 -1.0117 -2.1793
   14SAPS   H2S 1757   6.957   5.879   5.935  1.4971  1.8779  0.5434
   14SAPS    C3 1758   6.803   6.169   6.374 -0.1654 -0.0825 -0.1828
   14SAPS    HX 1759   6.831   6.260   6.432  0.8874 -1.1631  1.0272
   14SAPS    HY 1760   6.847   6.079   6.421  1.2527  1.4602  1.5139
   14SAPS   O31 1761   6.663   6.148   6.365  0.0669  0.8540 -0.0381
   14SAPS   C31 1762   6.585   6.231   6.430 -0.3918  0.3050 -0.6776
   14SAPS   O32 1763   6.627   6.332   6.488  0.0380 -0.0267  0.4668
   14SAPS   C32 1764   6.443   6.186   6.433  0.3647  0.4041 -0.5081
   14SAPS   H2X 1765   6.431   6.099   6.366  1.0828 -0.5198  0.5458
   14SAPS   H2Y 1766   6.374   6.268   6.402 -0.4970 -0.5852 -1.2305
   14SAPS   C23 1767   7.042   5.757   6.088 -0.4541 -0.1172 -0.4182
   14SAPS   H3R 1768   7.151   5.780   6.083 -0.8878  1.8696 -0.9839
   14SAPS   H3S 1769   7.019   5.676   6.015 -2.6056  1.0062 -1.0154
   14SAPS   C24 1770   7.008   5.690   6.226  0.1516 -0.7125 -0.5803
   14SAPS   H4R 1771   7.060   5.592   6.230 -0.5481 -1.0806 -0.3360
   14SAPS   H4S 1772   6.899   5.668   6.229  0.0352 -0.1555 -0.8066
   14SAPS   C25 1773   7.059   5.766   6.347  0.2339 -0.0144 -0.1217
   14SAPS   H5R 1774   7.162   5.805   6.349  0.4134 -0.5249  1.4904
   14SAPS   C26 1775   6.983   5.801   6.453 -0.5165  0.0626  0.2405
   14SAPS   H6R 1776   7.022   5.880   6.519  1.0571 -0.7114  0.2747
   14SAPS   C27 1777   6.837   5.769   6.468  1.0151 -0.5375 -0.4622
   14SAPS   H7R 1778   6.839   5.658   6.468 -0.7298 -0.5763 -1.0469
   14SAPS   H7S 1779   6.766   5.806   6.392 -1.2093 -0.4007  1.6317
   14SAPS   C28 1780   6.774   5.821   6.597  0.0647 -0.3031 -0.3922
   14SAPS   H8R 1781   6.753   5.929   6.591 -1.0274 -0.4014  1.2471
   14SAPS   C29 1782   6.745   5.758   6.718  0.5536  0.4766 -0.3233
   14SAPS   H9R 1783   6.705   5.815   6.803 -0.4249  1.3702 -1.3598
   14SAPS  C210 1784   6.769   5.611   6.751 -0.3451 -0.5306  0.0121
   14SAPS  H10R 1785   6.770   5.544   6.663  1.8486  1.1332 -1.3114
   14SAPS  H10S 1786   6.695   5.569   6.822  1.1472 -2.7406  0.3181
   14SAPS  C211 1787   6.916   5.607   6.802 -0.1019 -0.1540 -0.0712
   14SAPS  H11R 1788   6.991   5.593   6.723 -2.0562 -0.0444 -1.9821
   14SAPS  C212 1789   6.946   5.627   6.931 -0.0717  0.1793 -0.5427
   14SAPS  H12R 1790   7.050   5.628   6.968 -0.8827 -0.6240  1.8397
   14SAPS  C213 1791   6.850   5.652   7.040 -0.0442  0.2481  0.7563
   14SAPS  H13R 1792   6.751   5.606   7.019  0.4684 -0.0630 -1.1322
   14SAPS  H13S 1793   6.834   5.762   7.044 -0.6261  0.3407 -2.6383
   14SAPS  C214 1794   6.908   5.606   7.174  0.0682  0.2456 -0.2408
   14SAPS  H14R 1795   6.908   5.499   7.201  1.5267 -0.8966 -4.3946
   14SAPS  C215 1796   6.944   5.690   7.272 -0.5118  0.1351 -0.8019
   14SAPS  H15R 1797   6.951   5.636   7.368  0.1316  0.6430 -0.5563
   14SAPS  C216 1798   6.950   5.843   7.280  0.2351  0.1761  0.2408
   14SAPS  H16R 1799   6.926   5.876   7.383 -0.4289 -2.1381  0.8579
   14SAPS  H16S 1800   6.863   5.879   7.220  0.0325 -0.9322 -0.1407
   14SAPS  C217 1801   7.074   5.929   7.241  0.0965  0.3287  0.8434
   14SAPS  H17R 1802   7.155   5.918   7.317 -0.2402  1.0974  1.3163
   14SAPS  H17S 1803   7.040   6.034   7.255  0.1903  0.3957  0.5775
   14SAPS  C218 1804   7.115   5.927   7.096 -0.7356 -0.8249 -0.2584
   14SAPS  H18R 1805   7.029   5.955   7.032 -0.5238 -0.8532 -0.5526
   14SAPS  H18S 1806   7.149   5.825   7.068 -0.4770 -0.8339  0.0807
   14SAPS  C219 1807   7.226   6.027   7.075  1.2938  0.8912 -0.1329
   14SAPS  H19R 1808   7.302   5.995   7.149 -1.8456 -2.4550  1.7852
   14SAPS  H19S 1809   7.183   6.125   7.104 -1.4070 -0.2647 -0.1427
   14SAPS  C220 1810   7.264   6.027   6.926 -0.0711 -0.3698 -0.1598
   14SAPS  H20R 1811   7.229   6.117   6.871  2.7559  1.1220  0.3684
   14SAPS  H20S 1812   7.221   5.939   6.874  1.0653 -0.6953 -0.5354
   14SAPS  H20T 1813   7.373   6.024   6.909 -0.5901 -0.7731 -3.7713
   14SAPS   C33 1814   6.401   6.157   6.577 -0.1228 -0.2067 -0.4228
   14SAPS   H3X 1815   6.291   6.144   6.574 -0.0869 -0.8515  0.7166
   14SAPS   H3Y 1816   6.417   6.251   6.633 -0.9350  1.2112 -2.5166
   14SAPS   C34 1817   6.464   6.035   6.648 -0.9526  0.0357  1.0085
   14SAPS   H4X 1818   6.573   6.053   6.657 -0.6529 -0.8945 -0.5395
   14SAPS   H4Y 1819   6.443   5.943   6.589 -2.5324 -1.2692  3.5160
   14SAPS   C35 1820   6.417   5.997   6.790 -0.1702 -0.4072  0.1559
   14SAPS   H5X 1821   6.487   5.935   6.850  3.4962  1.5241 -1.9581
   14SAPS   H5Y 1822   6.335   5.927   6.764  0.5513 -1.3279  0.3508
   14SAPS   C36 1823   6.385   6.112   6.888 -0.1274  0.5266  0.6003
   14SAPS   H6X 1824   6.310   6.175   6.835  0.7186  2.4521  1.6371
   14SAPS   H6Y 1825   6.476   6.174   6.899 -0.6137  1.2353  0.6993
   14SAPS   C37 1826   6.338   6.064   7.026  0.1102  0.2443 -0.6356
   14SAPS   H7X 1827   6.412   6.011   7.088 -1.6022  0.6242  1.7947
   14SAPS   H7Y 1828   6.254   5.992   7.012 -0.8165  1.0237  0.8447
   14SAPS   C38 1829   6.290   6.183   7.120 -0.1937  0.4508  0.6587
   14SAPS   H8X 1830   6.240   6.256   7.053 -0.7802  0.2042  0.8219
   14SAPS   H8Y 1831   6.379   6.226   7.171  0.6366 -2.1093  1.4628
   14SAPS   C39 1832   6.196   6.135   7.223  0.5834 -0.2265  0.1655
   14SAPS   H9X 1833   6.206   6.040   7.280 -0.5227  0.7741  2.0955
   14SAPS   H9Y 1834   6.102   6.140   7.164  0.2512  1.3378  0.8002
   14SAPS  C310 1835   6.206   6.238   7.329 -0.0037  0.3736 -0.1628
   14SAPS  H10X 1836   6.188   6.343   7.296 -1.5955  0.3085  0.4712
   14SAPS  H10Y 1837   6.311   6.232   7.364 -0.5712 -0.4456  1.4484
   14SAPS  C311 1838   6.101   6.210   7.436  0.2182 -0.0080 -0.5343
   14SAPS  H11X 1839   6.115   6.106   7.473  0.8677  0.0009 -0.7378
   14SAPS  H11Y 1840   5.995   6.230   7.409  0.5161  1.5015 -0.6371
   14SAPS  C312 1841   6.138   6.289   7.562  0.6261  0.6209  0.5224
   14SAPS  H12X 1842   6.248   6.298   7.579  0.6117 -1.0703  1.6207
   14SAPS  H12Y 1843   6.108   6.229   7.650 -0.2258 -0.2787 -0.3709
   14SAPS  C313 1844   6.091   6.433   7.551  0.8117 -0.6282 -0.3775
   14SAPS  H13X 1845   5.999   6.449   7.491 -0.5537  0.0737  1.8340
   14SAPS  H13Y 1846   6.161   6.493   7.489  0.9830  1.4430  1.7416
   14SAPS  C314 1847   6.082   6.498   7.693  0.2274 -0.0309 -0.2677
   14SAPS  H14X 1848   6.187   6.520   7.721  0.1270  1.2939 -0.8965
   14SAPS  H14Y 1849   6.032   6.426   7.762 -0.2772  1.0488  0.5100
   14SAPS  C315 1850   5.998   6.627   7.693  0.2049  0.0866  0.3677
   14SAPS  H15X 1851   5.891   6.602   7.678 -0.0642  2.0558 -1.2692
   14SAPS  H15Y 1852   6.033   6.668   7.595 -0.2141 -2.0911 -0.7141
   14SAPS  C316 1853   6.021   6.720   7.808 -0.3192 -0.2238  0.1450
   14SAPS  H16X 1854   5.967   6.815   7.787 -0.5899 -0.3597  0.2399
   14SAPS  H16Y 1855   6.130   6.743   7.816 -0.3329 -0.9529  3.1143
   14SAPS  C317 1856   5.990   6.664   7.950  0.2772  0.3235 -0.5604
   14SAPS  H17X 1857   6.047   6.574   7.980  2.1520  0.7374 -2.7779
   14SAPS  H17Y 1858   5.883   6.638   7.962  0.7966 -2.1606 -1.0661
   14SAPS  C318 1859   6.017   6.778   8.053 -0.2967  0.8073  0.4217
   14SAPS  H18X 1860   6.113   6.824   8.023  0.1275 -2.0029 -2.9028
   14SAPS  H18Y 1861   6.023   6.736   8.156  1.2589 -1.0626 -0.4017
   14SAPS  H18Z 1862   5.940   6.858   8.061 -0.3533  0.9877 -1.6866
   15SAPS     N 1863   0.324   5.695   5.729  0.2890  0.2936  0.3651
   15SAPS   HN1 1864   0.344   5.780   5.785 -0.8481  0.5369  0.4067
   15SAPS   HN2 1865   0.418   5.649   5.725 -0.1220 -0.5510  0.3083
   15SAPS   HN3 1866   0.304   5.723   5.631 -1.3432  1.1414  0.9264
   15SAPS   C12 1867   0.204   5.609   5.774 -0.1929 -0.5351 -0.4648
   15SAPS  H12A 1868   0.117   5.672   5.788  0.3381  0.6741 -2.5015
   15SAPS   C13 1869   0.149   5.497   5.683 -0.5395 -0.2482  0.1861
   15SAPS  O13A 1870   0.207   5.466   5.570 -0.1498  0.4992 -0.3732
   15SAPS  O13B 1871   0.041   5.450   5.724 -0.0131 -0.0026  0.4650
   15SAPS   C11 1872   0.253   5.553   5.908  0.6984 -0.1441 -0.7524
   15SAPS  H11A 1873   0.344   5.491   5.893  0.8307 -0.3476  0.8453
   15SAPS  H11B 1874   0.171   5.487   5.944  0.4020 -0.2733 -1.6477
   15SAPS     P 1875   0.315   5.636   6.155 -0.1170 -0.0445  0.7271
   15SAPS   O13 1876   0.450   5.577   6.154 -0.0617  0.0562  0.0506
   15SAPS   O14 1877   0.292   5.771   6.202 -0.3945  0.0494  0.2289
   15SAPS   O12 1878   0.264   5.652   6.008  0.0750 -0.4077 -0.5226
   15SAPS   O11 1879   0.207   5.523   6.203  0.1633 -0.4955 -0.1380
   15SAPS    C1 1880   0.082   5.565   6.260  0.4842  0.2320  0.2817
   15SAPS    HA 1881   0.052   5.666   6.226  0.6748  0.3108  0.3487
   15SAPS    HB 1882  -0.006   5.503   6.233 -1.3611  2.9918 -0.2949
   15SAPS    C2 1883   0.089   5.565   6.418 -0.3587  0.0575 -0.7028
   15SAPS    HS 1884  -0.007   5.605   6.458 -0.4950 -3.4008  2.7941
   15SAPS   O21 1885   0.209   5.643   6.464 -0.9119  0.3723 -0.2504
   15SAPS   C21 1886   0.182   5.762   6.514 -0.1777  0.3354 -0.0024
   15SAPS   O22 1887   0.083   5.822   6.507  0.1071  0.3987  0.2996
   15SAPS   C22 1888   0.306   5.816   6.597 -0.1269  0.1822 -0.7518
   15SAPS   H2R 1889   0.344   5.734   6.661  0.2188  1.8818  1.2453
   15SAPS   H2S 1890   0.393   5.840   6.532  0.2945 -2.7300 -1.3828
   15SAPS    C3 1891   0.092   5.429   6.481  0.0078 -0.2268  0.4897
   15SAPS    HX 1892   0.169   5.369   6.427  0.3615  1.2753 -0.7024
   15SAPS    HY 1893  -0.003   5.373   6.470  1.2085 -1.8871 -2.0044
   15SAPS   O31 1894   0.147   5.436   6.612  0.2497  0.0343  0.0590
   15SAPS   C31 1895   0.059   5.451   6.716  0.1592 -0.2490  0.1994
   15SAPS   O32 1896  -0.062   5.466   6.711  0.1437 -0.7638  0.0521
   15SAPS   C32 1897   0.145   5.472   6.838 -0.3348 -0.2995 -0.5807
   15SAPS   H2X 1898   0.251   5.488   6.807 -0.6338  1.7287 -0.6167
   15SAPS   H2Y 1899   0.144   5.377   6.895 -0.3949  0.1718  0.2033
   15SAPS   C23 1900   0.256   5.927   6.695  0.1505  0.0429 -0.2327
   15SAPS   H3R 1901   0.187   5.876   6.766  1.4018 -0.3934  0.6801
   15SAPS   H3S 1902   0.218   6.014   6.637 -1.0800  0.3518  1.0150
   15SAPS   C24 1903   0.362   5.981   6.797 -0.0159  0.0562  0.1616
   15SAPS   H4R 1904   0.457   5.999   6.742 -1.3351  2.6554 -1.3465
   15SAPS   H4S 1905   0.387   5.897   6.866 -0.7283  0.9827  1.5797
   15SAPS   C25 1906   0.315   6.113   6.862  0.2301  0.1027  0.3327
   15SAPS   H5R 1907   0.265   6.181   6.790  0.3075 -1.5225 -1.3076
   15SAPS   C26 1908   0.319   6.139   6.999  0.1328 -0.0977  0.3682
   15SAPS   H6R 1909   0.284   6.240   7.026 -0.4664 -0.6988  1.8390
   15SAPS   C27 1910   0.375   6.050   7.110  0.6532 -0.4011  0.2736
   15SAPS   H7R 1911   0.447   6.103   7.176  1.5481 -1.9844  0.5934
   15SAPS   H7S 1912   0.450   5.977   7.073  1.9665  0.6391  0.8233
   15SAPS   C28 1913   0.262   5.989   7.193  0.6624  0.2679 -0.3355
   15SAPS   H8R 1914   0.200   5.913   7.144  1.9045 -0.0268 -1.4543
   15SAPS   C29 1915   0.225   6.031   7.317 -0.2614 -0.1997 -1.0470
   15SAPS   H9R 1916   0.154   5.974   7.379  1.4622 -2.3454 -0.9949
   15SAPS  C210 1917   0.301   6.147   7.392 -0.0228  0.2447 -0.7559
   15SAPS  H10R 1918   0.319   6.229   7.320 -0.6314  0.8336 -0.2476
   15SAPS  H10S 1919   0.400   6.108   7.425  0.9028  0.5351 -3.1015
   15SAPS  C211 1920   0.217   6.207   7.507  0.0060  0.3470  0.6250
   15SAPS  H11R 1921   0.118   6.238   7.469  0.0575  0.0624  0.2569
   15SAPS  C212 1922   0.246   6.215   7.638  0.4744 -0.4885  0.0929
   15SAPS  H12R 1923   0.172   6.260   7.707 -0.5710  0.4125 -1.5922
   15SAPS  C213 1924   0.373   6.172   7.702 -0.3295 -0.5278 -0.0555
   15SAPS  H13R 1925   0.411   6.242   7.779  0.5965 -0.1702 -0.8258
   15SAPS  H13S 1926   0.451   6.168   7.623 -0.9270  1.3551 -0.7734
   15SAPS  C214 1927   0.351   6.029   7.753 -0.4647 -0.1502  0.5858
   15SAPS  H14R 1928   0.249   5.999   7.780 -1.0392  0.3931 -0.9207
   15SAPS  C215 1929   0.445   5.932   7.745  0.0642 -0.0991 -0.5197
   15SAPS  H15R 1930   0.411   5.834   7.784  3.4010 -0.6342  1.2442
   15SAPS  C216 1931   0.584   5.936   7.695  0.3665 -0.0360 -0.2430
   15SAPS  H16R 1932   0.654   5.942   7.781 -0.6407 -2.1803  0.7581
   15SAPS  H16S 1933   0.608   6.018   7.624  2.1320  0.0755  0.4521
   15SAPS  C217 1934   0.627   5.801   7.624 -0.3934 -0.1292  0.0232
   15SAPS  H17R 1935   0.622   5.722   7.702  1.9948 -3.1126 -2.6976
   15SAPS  H17S 1936   0.728   5.805   7.579 -0.9073 -0.0787 -1.1410
   15SAPS  C218 1937   0.539   5.756   7.505 -0.8529 -0.3453 -0.5181
   15SAPS  H18R 1938   0.510   5.849   7.452  0.8921 -0.1172 -1.1018
   15SAPS  H18S 1939   0.453   5.707   7.555 -1.0959  1.9977  1.4476
   15SAPS  C219 1940   0.605   5.662   7.408  0.5359 -0.9170  0.1985
   15SAPS  H19R 1941   0.660   5.587   7.468  1.3334  0.8860  1.7896
   15SAPS  H19S 1942   0.673   5.724   7.345 -1.0563  0.7457  0.0530
   15SAPS  C220 1943   0.510   5.601   7.307  0.4554 -0.1753 -0.6402
   15SAPS  H20R 1944   0.440   5.532   7.359 -0.2104  0.0862 -1.1776
   15SAPS  H20S 1945   0.575   5.546   7.235  0.1538 -1.3008 -0.0698
   15SAPS  H20T 1946   0.459   5.677   7.244  1.1741 -1.7426 -3.1692
   15SAPS   C33 1947   0.080   5.584   6.928  0.3371  0.1763 -0.5959
   15SAPS   H3X 1948  -0.028   5.560   6.936  0.6864 -1.1590  0.3974
   15SAPS   H3Y 1949   0.095   5.686   6.886  0.5096  0.4708  0.1610
   15SAPS   C34 1950   0.145   5.580   7.063 -0.0970  0.2637 -0.6638
   15SAPS   H4X 1951   0.160   5.680   7.110 -0.7216  1.0019 -2.0155
   15SAPS   H4Y 1952   0.248   5.542   7.045  0.0279 -0.4175  1.2878
   15SAPS   C35 1953   0.063   5.492   7.159  0.0461  0.4254 -0.9551
   15SAPS   H5X 1954   0.031   5.398   7.109 -2.9715  0.3124  1.1094
   15SAPS   H5Y 1955  -0.023   5.552   7.195 -0.4467 -0.9144  0.1031
   15SAPS   C36 1956   0.142   5.449   7.286  0.1711 -0.6225 -0.0215
   15SAPS   H6X 1957   0.246   5.421   7.257  0.8391  0.5115  1.2338
   15SAPS   H6Y 1958   0.091   5.360   7.329  0.2298 -0.3160  0.6856
   15SAPS   C37 1959   0.127   5.542   7.405  0.2978 -0.7457  0.4574
   15SAPS   H7X 1960   0.020   5.572   7.407  0.0781 -1.4098 -0.6640
   15SAPS   H7Y 1961   0.173   5.638   7.373 -0.3255 -0.7505 -0.4846
   15SAPS   C38 1962   0.180   5.502   7.540 -0.0564 -0.3551  0.1534
   15SAPS   H8X 1963   0.286   5.475   7.521  0.8614  2.1772  1.4561
   15SAPS   H8Y 1964   0.126   5.408   7.565  0.3493 -0.3066  1.2309
   15SAPS   C39 1965   0.169   5.613   7.647 -0.0805 -0.1222  0.7491
   15SAPS   H9X 1966   0.061   5.639   7.637  0.2626 -0.0384 -3.3919
   15SAPS   H9Y 1967   0.229   5.705   7.630  3.3539 -2.6351 -1.1525
   15SAPS  C310 1968   0.204   5.543   7.780  0.0441 -0.2687  0.3355
   15SAPS  H10X 1969   0.132   5.458   7.782  0.0934 -0.3088  0.3778
   15SAPS  H10Y 1970   0.175   5.608   7.865  2.2032  1.8260 -0.5017
   15SAPS  C311 1971   0.348   5.496   7.795  0.2623 -0.4576  0.2909
   15SAPS  H11X 1972   0.412   5.587   7.805  2.3480 -1.9102  0.4991
   15SAPS  H11Y 1973   0.388   5.441   7.707  0.7923 -0.1055  0.3085
   15SAPS  C312 1974   0.364   5.408   7.922  0.4555  0.3535 -0.0627
   15SAPS  H12X 1975   0.472   5.385   7.939  0.6421  0.6468 -0.8299
   15SAPS  H12Y 1976   0.322   5.309   7.896  1.3407  0.6581 -2.7874
   15SAPS  C313 1977   0.299   5.458   8.047  0.7120 -0.3760  0.7452
   15SAPS  H13X 1978   0.190   5.434   8.041  0.8911 -0.8033 -0.9323
   15SAPS  H13Y 1979   0.320   5.567   8.050  0.3095 -0.2833  0.2490
   15SAPS  C314 1980   0.362   5.401   8.170  0.2960 -0.3593 -0.1258
   15SAPS  H14X 1981   0.473   5.399   8.164  0.3619 -0.1501  0.9375
   15SAPS  H14Y 1982   0.337   5.293   8.179  0.0747 -0.0968  2.9586
   15SAPS  C315 1983   0.326   5.480   8.293 -0.2045  0.5459  0.5916
   15SAPS  H15X 1984   0.217   5.496   8.310 -0.1477 -0.0193  1.5357
   15SAPS  H15Y 1985   0.369   5.580   8.271 -2.5614  1.4407 -0.0455
   15SAPS  C316 1986   0.402   5.430   8.423  0.4179 -0.2071 -0.9850
   15SAPS  H16X 1987   0.509   5.424   8.395  1.8107  0.9991  3.7557
   15SAPS  H16Y 1988   0.369   5.328   8.451  3.3539 -0.0655  3.4426
   15SAPS  C317 1989   0.381   5.521   8.548  0.2071  0.1908  0.3554
   15SAPS  H17X 1990   0.420   5.623   8.529  0.2873  0.5355  2.2846
   15SAPS  H17Y 1991   0.437   5.483   8.635 -1.3823 -1.1687  0.8023
   15SAPS  C318 1992   0.235   5.531   8.596  0.7331  0.3171 -0.7178
   15SAPS  H18X 1993   0.202   5.427   8.618  1.4424  0.6377  2.0740
   15SAPS  H18Y 1994   0.164   5.573   8.522 -3.3548  0.0860  2.8940
   15SAPS  H18Z 1995   0.226   5.595   8.685  1.1365  1.0609 -1.2060
   16SAPS     N 1996   7.295   0.195   5.896 -0.3451 -0.3696  0.0805
   16SAPS   HN1 1997   7.367   0.221   5.966 -0.6488 -2.3566  1.1770
   16SAPS   HN2 1998   7.280   0.264   5.819 -1.4579  0.2207  0.8189
   16SAPS   HN3 1999   7.201   0.178   5.937 -0.5881  1.8199  0.5166
   16SAPS   C12 2000   7.349   0.066   5.837  0.0310  0.1644  0.1428
   16SAPS  H12A 2001   7.275   0.018   5.774 -2.4950  1.7882  1.8165
   16SAPS   C13 2002   7.474   0.078   5.746  0.3792  0.1126 -0.4628
   16SAPS  O13A 2003   7.540   0.184   5.764  0.2004  0.2087  0.6742
   16SAPS  O13B 2004   7.493  -0.001   5.648  0.0594 -0.7519  0.2705
   16SAPS   C11 2005   7.379  -0.029   5.959  0.5310  0.7158 -0.0856
   16SAPS  H11A 2006   7.313  -0.011   6.047 -1.2602 -4.2723 -0.2109
   16SAPS  H11B 2007   7.483   0.000   5.984  0.4149 -0.0056  1.3113
   16SAPS     P 2008   7.258  -0.263   5.971 -0.5633 -0.2216  0.3203
   16SAPS   O13 2009   7.144  -0.255   5.874 -0.2305  0.1328 -0.8115
   16SAPS   O14 2010   7.327  -0.392   5.987  0.5798  0.8624 -0.2023
   16SAPS   O12 2011   7.374  -0.169   5.915  0.8057  0.3452 -0.2795
   16SAPS   O11 2012   7.220  -0.206   6.112 -0.5820 -0.0782 -0.2106
   16SAPS    C1 2013   7.267  -0.245   6.237 -0.2030 -0.5067  0.5513
   16SAPS    HA 2014   7.376  -0.269   6.238 -0.1123 -0.1270  0.0432
   16SAPS    HB 2015   7.258  -0.162   6.311  0.6079 -0.1804  0.2937
   16SAPS    C2 2016   7.182  -0.361   6.301  0.6240  0.0010  0.7430
   16SAPS    HS 2017   7.198  -0.451   6.237 -0.7195  1.8277 -2.2742
   16SAPS   O21 2018   7.045  -0.312   6.317  0.1619 -0.1473 -0.1377
   16SAPS   C21 2019   6.958  -0.409   6.312  0.7183 -0.7770  0.0505
   16SAPS   O22 2020   6.986  -0.524   6.291  0.1130 -0.2833  0.2148
   16SAPS   C22 2021   6.812  -0.364   6.344 -0.1043  0.5618 -0.1794
   16SAPS   H2R 2022   6.797  -0.264   6.299  0.1346  0.5568 -0.2713
   16SAPS   H2S 2023   6.741  -0.433   6.294  2.2036 -1.2015 -1.1161
   16SAPS    C3 2024   7.231  -0.406   6.440 -0.2424  0.2313 -1.1341
   16SAPS    HX 2025   7.337  -0.432   6.418  0.2577  0.7839  0.5677
   16SAPS    HY 2026   7.176  -0.500   6.465  0.0147 -0.0432 -1.5880
   16SAPS   O31 2027   7.227  -0.295   6.542 -0.0906 -0.1043  0.0332
   16SAPS   C31 2028   7.120  -0.296   6.618  0.7697  0.5298 -0.0506
   16SAPS   O32 2029   7.040  -0.389   6.628  0.5770 -0.1959  0.3830
   16SAPS   C32 2030   7.105  -0.158   6.685 -0.2061 -0.2695 -0.0917
   16SAPS   H2X 2031   7.177  -0.085   6.644 -1.5310  0.3664 -1.3615
   16SAPS   H2Y 2032   7.141  -0.179   6.788  1.0598  4.5361  0.5408
   16SAPS   C23 2033   6.780  -0.370   6.498  0.3628 -0.4384  0.0171
   16SAPS   H3R 2034   6.851  -0.300   6.545  1.9860 -1.5051 -0.8146
   16SAPS   H3S 2035   6.802  -0.468   6.546  1.2799  0.2285  0.9712
   16SAPS   C24 2036   6.635  -0.324   6.523  0.1019  0.4866  0.2921
   16SAPS   H4R 2037   6.570  -0.414   6.530 -0.2470  0.7958  1.0460
   16SAPS   H4S 2038   6.595  -0.272   6.434 -1.2560 -0.1256  0.5311
   16SAPS   C25 2039   6.628  -0.238   6.645 -0.3194  0.6696 -0.1643
   16SAPS   H5R 2040   6.614  -0.130   6.631 -2.5106  0.2158 -1.7825
   16SAPS   C26 2041   6.642  -0.277   6.775 -0.6534  0.5128 -0.6572
   16SAPS   H6R 2042   6.642  -0.194   6.847  0.7916  2.4316 -2.8043
   16SAPS   C27 2043   6.661  -0.422   6.814 -0.3526  0.0400  0.5077
   16SAPS   H7R 2044   6.653  -0.485   6.723 -1.1722  0.5680  0.2120
   16SAPS   H7S 2045   6.580  -0.449   6.886 -2.7522  0.2722 -2.0390
   16SAPS   C28 2046   6.799  -0.433   6.876  0.6503  0.1939 -0.6938
   16SAPS   H8R 2047   6.878  -0.470   6.810  0.5005 -0.2339 -0.6306
   16SAPS   C29 2048   6.838  -0.389   7.003  0.6082  0.7651 -0.4083
   16SAPS   H9R 2049   6.942  -0.409   7.032  1.8319  0.9701 -4.2876
   16SAPS  C210 2050   6.754  -0.315   7.106 -0.3097 -0.6329  0.6892
   16SAPS  H10R 2051   6.655  -0.289   7.061 -1.1825 -1.6219  1.9931
   16SAPS  H10S 2052   6.809  -0.221   7.130 -0.2509 -0.2666 -0.8405
   16SAPS  C211 2053   6.751  -0.398   7.237  0.0366  0.6741  0.4584
   16SAPS  H11R 2054   6.660  -0.458   7.248  1.5770 -1.7518  0.1904
   16SAPS  C212 2055   6.841  -0.396   7.331  0.8664  0.6566  0.4239
   16SAPS  H12R 2056   6.829  -0.465   7.416 -3.5310 -0.9146 -1.2792
   16SAPS  C213 2057   6.973  -0.322   7.336 -0.5469 -0.9127  0.6854
   16SAPS  H13R 2058   6.988  -0.283   7.438 -0.2436 -0.6476  0.5377
   16SAPS  H13S 2059   6.974  -0.226   7.281  0.7773 -1.6827 -0.6785
   16SAPS  C214 2060   7.100  -0.405   7.311 -0.6250 -0.2904  0.4493
   16SAPS  H14R 2061   7.123  -0.474   7.393 -0.1225  2.3686  2.6091
   16SAPS  C215 2062   7.188  -0.394   7.210  0.2963 -0.1714  0.9320
   16SAPS  H15R 2063   7.271  -0.465   7.197  0.3344 -0.1502  1.0534
   16SAPS  C216 2064   7.194  -0.304   7.090 -0.0210 -0.2320  0.1600
   16SAPS  H16R 2065   7.112  -0.228   7.092  1.0064  0.8826  0.5644
   16SAPS  H16S 2066   7.187  -0.374   7.004 -1.2839 -0.1955  0.2249
   16SAPS  C217 2067   7.331  -0.231   7.073 -0.1840 -0.3468 -0.3563
   16SAPS  H17R 2068   7.358  -0.205   7.178  0.9092 -1.0542 -0.4597
   16SAPS  H17S 2069   7.316  -0.140   7.010  3.6617  0.9603  0.4828
   16SAPS  C218 2070   7.436  -0.321   7.001  0.4084 -0.5155  0.0166
   16SAPS  H18R 2071   7.424  -0.332   6.892  0.1451  1.7426 -0.2155
   16SAPS  H18S 2072   7.422  -0.423   7.043 -0.3577  0.3597  1.9679
   16SAPS  C219 2073   7.579  -0.275   7.033 -0.0265  0.2795 -0.9005
   16SAPS  H19R 2074   7.645  -0.361   7.060 -1.3110 -0.0513  1.3666
   16SAPS  H19S 2075   7.570  -0.209   7.122  1.7484 -0.2844 -0.2684
   16SAPS  C220 2076   7.644  -0.180   6.934 -0.0880 -0.2409  0.0719
   16SAPS  H20R 2077   7.603  -0.077   6.931  1.1686  0.3073  1.4039
   16SAPS  H20S 2078   7.638  -0.226   6.832  1.9133 -2.0422  0.7275
   16SAPS  H20T 2079   7.752  -0.164   6.952  0.4308 -2.2729 -1.0270
   16SAPS   C33 2080   6.960  -0.087   6.690 -0.3100 -0.4500  0.1009
   16SAPS   H3X 2081   6.884  -0.150   6.739  0.4286 -0.9278  0.6434
   16SAPS   H3Y 2082   6.934  -0.058   6.586 -0.1370 -0.7482 -0.0260
   16SAPS   C34 2083   6.949   0.040   6.777  0.1873  0.5639 -0.4242
   16SAPS   H4X 2084   6.844   0.077   6.780  0.2136  0.8844 -2.5235
   16SAPS   H4Y 2085   7.014   0.119   6.733  2.6490 -2.7813 -3.0447
   16SAPS   C35 2086   6.990   0.025   6.924 -0.4304 -0.4395  0.2988
   16SAPS   H5X 2087   7.100   0.024   6.938 -0.4589 -0.1732  0.5431
   16SAPS   H5Y 2088   6.961  -0.078   6.954 -0.0446 -0.0432  2.0930
   16SAPS   C36 2089   6.926   0.117   7.031  0.5340  0.1343  0.4709
   16SAPS   H6X 2090   6.819   0.127   7.005  0.0490 -0.4546  2.1537
   16SAPS   H6Y 2091   6.967   0.219   7.016  1.5492 -0.5540 -1.7032
   16SAPS   C37 2092   6.958   0.075   7.174  0.0389 -0.1953 -0.0059
   16SAPS   H7X 2093   7.061   0.108   7.199  0.1804  0.8505 -1.8921
   16SAPS   H7Y 2094   6.943  -0.035   7.179 -0.3085 -0.0370  3.5982
   16SAPS   C38 2095   6.851   0.131   7.266  0.8769 -0.1256  0.8639
   16SAPS   H8X 2096   6.747   0.118   7.231  0.1545  0.6471  2.6725
   16SAPS   H8Y 2097   6.863   0.241   7.257  2.1564 -0.3813 -0.9073
   16SAPS   C39 2098   6.856   0.087   7.414  0.2490  0.3097 -0.3731
   16SAPS   H9X 2099   6.849  -0.023   7.427  0.0975  0.5037  1.3592
   16SAPS   H9Y 2100   6.774   0.126   7.478 -0.7013 -3.0728  0.6032
   16SAPS  C310 2101   6.998   0.135   7.472 -0.2818 -0.0462  0.6501
   16SAPS  H10X 2102   6.986   0.246   7.476  2.9253  0.3252  1.4360
   16SAPS  H10Y 2103   7.085   0.105   7.409 -0.1872  1.0369  0.2462
   16SAPS  C311 2104   7.028   0.105   7.618 -0.2521  0.4912  0.2253
   16SAPS  H11X 2105   7.137   0.095   7.637 -0.0714  0.7192 -0.6745
   16SAPS  H11Y 2106   6.992   0.003   7.643  3.3380 -0.8796  0.1175
   16SAPS  C312 2107   6.958   0.210   7.712  0.1805 -0.2243 -0.1901
   16SAPS  H12X 2108   6.854   0.223   7.675  0.2982  0.7805 -0.1735
   16SAPS  H12Y 2109   6.997   0.314   7.702 -0.0432 -0.1906 -0.7823
   16SAPS  C313 2110   6.979   0.189   7.857 -0.0756  0.3375 -0.4113
   16SAPS  H13X 2111   6.939   0.093   7.896 -0.8993  0.9658  0.3009
   16SAPS  H13Y 2112   6.925   0.266   7.915 -0.7653  0.0551 -0.6722
   16SAPS  C314 2113   7.128   0.190   7.900 -0.4016 -0.5662  0.2479
   16SAPS  H14X 2114   7.190   0.271   7.856 -0.6235 -0.3874  0.2663
   16SAPS  H14Y 2115   7.174   0.095   7.864  0.6268 -0.1338  0.4020
   16SAPS  C315 2116   7.136   0.197   8.051  0.0578 -0.1550 -0.0497
   16SAPS  H15X 2117   7.081   0.111   8.093  0.6785  0.4742  2.1239
   16SAPS  H15Y 2118   7.104   0.295   8.091  1.2323 -1.4052  4.1973
   16SAPS  C316 2119   7.278   0.183   8.110  0.0870 -0.7037  0.3007
   16SAPS  H16X 2120   7.346   0.231   8.036  0.2778 -0.5170  0.5950
   16SAPS  H16Y 2121   7.303   0.075   8.113  3.2317 -0.1589 -2.2960
   16SAPS  C317 2122   7.289   0.246   8.252 -0.4174 -0.3025 -0.8277
   16SAPS  H17X 2123   7.260   0.352   8.235  1.4896  0.1660 -1.1867
   16SAPS  H17Y 2124   7.385   0.251   8.307 -0.1067 -0.0346 -1.3868
   16SAPS  C318 2125   7.194   0.174   8.348 -0.1387 -0.4716  0.1144
   16SAPS  H18X 2126   7.089   0.194   8.318 -0.3125 -2.5710 -0.7049
   16SAPS  H18Y 2127   7.210   0.212   8.451 -0.1916 -0.0654 -0.0230
   16SAPS  H18Z 2128   7.206   0.065   8.359 -1.1855 -0.3197  3.2075
   17SAPC     N 2129   4.531   3.770  10.122 -0.1931  0.0692  0.0238
   17SAPC   C12 2130   4.573   3.645  10.041  0.0327 -0.3421  0.2593
   17SAPC  H12A 2131   4.609   3.569  10.109 -3.5214 -1.8374  0.5579
   17SAPC  H12B 2132   4.660   3.672   9.982  0.8745 -0.2185  1.5470
   17SAPC   C13 2133   4.651   3.835  10.180  0.6828 -0.3201 -0.1876
   17SAPC  H13A 2134   4.709   3.878  10.099 -1.5352  1.4057 -0.8878
   17SAPC  H13B 2135   4.620   3.899  10.261  0.0700 -0.8807  0.0244
   17SAPC  H13C 2136   4.718   3.763  10.223  0.0432  0.6769  2.5528
   17SAPC   C14 2137   4.462   3.865  10.032 -0.3242 -0.8467 -0.1889
   17SAPC  H14A 2138   4.365   3.825  10.005 -0.3142 -0.5226 -0.7136
   17SAPC  H14B 2139   4.432   3.946  10.098 -0.5993 -1.3037  0.2562
   17SAPC  H14C 2140   4.518   3.892   9.944  1.6154 -0.7956  1.0309
   17SAPC   C15 2141   4.445   3.723  10.238  0.4125 -0.1051  1.2604
   17SAPC  H15A 2142   4.359   3.666  10.206 -0.0620 -0.0696  2.4588
   17SAPC  H15B 2143   4.501   3.660  10.305  1.5295 -2.8091 -2.0722
   17SAPC  H15C 2144   4.414   3.805  10.301 -2.7342  0.1426 -0.5010
   17SAPC   C11 2145   4.467   3.571   9.956 -0.3840  1.2893  0.0253
   17SAPC  H11A 2146   4.519   3.511   9.878  1.0382  1.7407  0.6061
   17SAPC  H11B 2147   4.413   3.646   9.895 -1.2429  0.3654 -0.3730
   17SAPC     P 2148   4.395   3.353  10.076  0.0244  0.0938 -0.0492
   17SAPC   O13 2149   4.492   3.352  10.194  0.3099 -0.1397 -0.1955
   17SAPC   O14 2150   4.266   3.278  10.094  0.3033 -0.6517  0.5316
   17SAPC   O12 2151   4.366   3.499  10.025  0.3149  0.1705 -0.6320
   17SAPC   O11 2152   4.460   3.294   9.948 -0.2790  0.5730  0.4518
   17SAPC    C1 2153   4.572   3.207   9.944 -0.2517  0.7129 -0.2099
   17SAPC    HA 2154   4.654   3.258  10.000  0.3312 -1.0546  0.5617
   17SAPC    HB 2155   4.537   3.125  10.010 -0.4876  2.1147  1.4532
   17SAPC    C2 2156   4.605   3.140   9.814 -1.1817 -0.8039  0.1928
   17SAPC    HS 2157   4.681   3.060   9.826 -1.3563 -1.3201 -1.9462
   17SAPC   O21 2158   4.659   3.243   9.720 -0.3547 -0.4501 -0.2932
   17SAPC   C21 2159   4.783   3.282   9.749 -0.1315  0.2992  0.1566
   17SAPC   O22 2160   4.847   3.249   9.848 -0.1435  0.1590  0.0980
   17SAPC   C22 2161   4.838   3.370   9.634  0.0685 -0.1789 -0.0027
   17SAPC   H2R 2162   4.927   3.318   9.593 -0.8435 -1.0639 -0.8835
   17SAPC   H2S 2163   4.763   3.391   9.555  1.5511  0.1033 -1.3670
   17SAPC    C3 2164   4.477   3.076   9.749  0.7231  0.2151 -0.0748
   17SAPC    HX 2165   4.412   3.150   9.699  0.4293  1.0345  1.4742
   17SAPC    HY 2166   4.426   3.023   9.832  0.1107  1.0960  0.1099
   17SAPC   O31 2167   4.519   2.978   9.657 -0.4198  0.1362 -0.0468
   17SAPC   C31 2168   4.425   2.948   9.567  0.4171  0.5858  0.2241
   17SAPC   O32 2169   4.311   2.996   9.563  0.9872  0.0576 -0.2052
   17SAPC   C32 2170   4.474   2.846   9.461  0.5451  0.4677  0.0882
   17SAPC   H2X 2171   4.455   2.747   9.509  0.6036 -0.7628 -2.3497
   17SAPC   H2Y 2172   4.584   2.850   9.444  0.4953  0.5194 -0.2233
   17SAPC   C23 2173   4.902   3.509   9.690 -0.0355  0.8335  0.5741
   17SAPC   H3R 2174   4.936   3.564   9.600 -1.2947  1.6388  0.5768
   17SAPC   H3S 2175   4.993   3.491   9.751 -0.1692 -0.7439  0.3100
   17SAPC   C24 2176   4.794   3.582   9.776 -0.2047 -0.2120 -0.1770
   17SAPC   H4R 2177   4.783   3.516   9.865  1.5249 -0.3261 -0.0309
   17SAPC   H4S 2178   4.695   3.584   9.725  0.3648  0.7454 -1.2760
   17SAPC   C25 2179   4.831   3.718   9.827  0.5801 -0.5745 -0.4394
   17SAPC   H5R 2180   4.898   3.718   9.915  0.1115 -1.6889 -0.0676
   17SAPC   C26 2181   4.778   3.831   9.782 -0.1586  0.3340 -0.7978
   17SAPC   H6R 2182   4.818   3.924   9.827 -0.8782  0.6651 -0.8349
   17SAPC   C27 2183   4.677   3.846   9.672 -0.1162  0.4426  0.3310
   17SAPC   H7R 2184   4.576   3.843   9.719  0.3365 -0.9517  1.2565
   17SAPC   H7S 2185   4.675   3.754   9.609  1.2665  1.3308 -1.0401
   17SAPC   C28 2186   4.680   3.972   9.586 -0.2030  0.2985  0.1954
   17SAPC   H8R 2187   4.747   4.052   9.620  1.0375 -1.0602  0.9702
   17SAPC   C29 2188   4.603   4.000   9.473 -0.2943  0.0652 -0.1595
   17SAPC   H9R 2189   4.598   4.105   9.443 -0.9295  0.1512  0.2451
   17SAPC  C210 2190   4.501   3.912   9.410 -0.6387  0.6209 -0.3134
   17SAPC  H10R 2191   4.413   3.974   9.381 -2.0851 -1.9478 -1.6387
   17SAPC  H10S 2192   4.470   3.840   9.488  0.3394 -0.7061 -1.1215
   17SAPC  C211 2193   4.570   3.840   9.290 -0.1219  0.4189 -0.2156
   17SAPC  H11R 2194   4.658   3.782   9.320 -1.0744 -0.5555  0.7335
   17SAPC  C212 2195   4.516   3.814   9.169  0.4432  0.0269 -0.3193
   17SAPC  H12R 2196   4.566   3.754   9.092  0.1304 -1.1175  0.3725
   17SAPC  C213 2197   4.378   3.854   9.131 -0.0707  0.1484  0.0455
   17SAPC  H13R 2198   4.370   3.852   9.020 -1.8691  0.9897  0.1428
   17SAPC  H13S 2199   4.361   3.960   9.161  1.2010  1.0786 -2.3744
   17SAPC  C214 2200   4.257   3.788   9.195  0.6808  0.0565  0.0849
   17SAPC  H14R 2201   4.248   3.808   9.303  0.0041 -0.9669  0.2241
   17SAPC  C215 2202   4.180   3.692   9.144 -0.2114 -0.5016  0.1370
   17SAPC  H15R 2203   4.104   3.640   9.203 -1.8956  0.8063 -0.8107
   17SAPC  C216 2204   4.198   3.639   8.999 -0.4192  0.6025  0.0703
   17SAPC  H16R 2205   4.166   3.533   8.987 -1.0899  1.1157 -3.0488
   17SAPC  H16S 2206   4.300   3.658   8.961  0.5731 -0.6857  2.0572
   17SAPC  C217 2207   4.095   3.705   8.898  0.2804  0.2236 -0.5008
   17SAPC  H17R 2208   4.082   3.814   8.915  2.2613  0.4500 -0.2283
   17SAPC  H17S 2209   3.994   3.662   8.918  0.7902 -0.0185  1.7357
   17SAPC  C218 2210   4.137   3.677   8.753 -0.0900  0.5502  0.1728
   17SAPC  H18R 2211   4.160   3.570   8.737  1.8626  0.7224  1.6741
   17SAPC  H18S 2212   4.234   3.730   8.742 -0.5172  1.3436  0.1689
   17SAPC  C219 2213   4.042   3.728   8.645 -0.1692  0.0082 -0.6516
   17SAPC  H19R 2214   3.943   3.679   8.657 -0.1490  0.8168  3.3444
   17SAPC  H19S 2215   4.077   3.683   8.550  1.0381 -1.2406  0.3707
   17SAPC  C220 2216   4.033   3.879   8.637 -0.0159 -0.1860 -0.5891
   17SAPC  H20R 2217   4.138   3.916   8.634  0.3013 -1.0404 -0.2366
   17SAPC  H20S 2218   3.995   3.932   8.726 -1.3273  0.2633 -1.4026
   17SAPC  H20T 2219   3.987   3.916   8.543 -0.3167  1.5832  0.2376
   17SAPC   C33 2220   4.401   2.860   9.330 -0.4232  0.0576 -0.3609
   17SAPC   H3X 2221   4.291   2.877   9.338 -0.7868 -2.5393  0.8521
   17SAPC   H3Y 2222   4.413   2.762   9.279  1.9326  0.6431 -0.9966
   17SAPC   C34 2223   4.469   2.974   9.246  0.9361  0.0433  0.1086
   17SAPC   H4X 2224   4.578   2.955   9.237  0.3932 -1.7855 -3.4108
   17SAPC   H4Y 2225   4.456   3.072   9.297  3.4787  0.2120  0.4831
   17SAPC   C35 2226   4.425   2.996   9.094 -0.3191 -0.2740  0.5359
   17SAPC   H5X 2227   4.407   2.901   9.039 -0.5768  0.3536 -0.4628
   17SAPC   H5Y 2228   4.495   3.066   9.045 -1.6303 -0.3081 -1.4496
   17SAPC   C36 2229   4.283   3.053   9.085 -0.6113 -0.1123  0.3331
   17SAPC   H6X 2230   4.269   3.138   9.155 -1.4393  0.3909 -0.4168
   17SAPC   H6Y 2231   4.208   2.975   9.110 -0.4603 -0.1804  0.5772
   17SAPC   C37 2232   4.256   3.114   8.942 -0.1536 -0.0551  0.4203
   17SAPC   H7X 2233   4.261   3.042   8.858 -1.4885  1.4542 -0.9788
   17SAPC   H7Y 2234   4.335   3.191   8.928  0.9269 -1.5342 -1.9634
   17SAPC   C38 2235   4.110   3.180   8.950 -0.7029 -0.4041  0.2949
   17SAPC   H8X 2236   4.096   3.239   9.043  0.3721  0.1496  0.1099
   17SAPC   H8Y 2237   4.033   3.102   8.965 -0.0366 -1.1535 -0.1588
   17SAPC   C39 2238   4.076   3.268   8.826 -0.1132 -0.7626 -0.1209
   17SAPC   H9X 2239   4.147   3.353   8.840 -0.3924 -0.5305 -0.1216
   17SAPC   H9Y 2240   3.976   3.314   8.836  0.0510 -0.6835  1.2526
   17SAPC  C310 2241   4.089   3.189   8.688  1.1548  1.1299 -0.3180
   17SAPC  H10X 2242   3.985   3.164   8.660 -0.3005  1.9387  3.9044
   17SAPC  H10Y 2243   4.146   3.096   8.710  0.2837  0.2387 -1.7959
   17SAPC  C311 2244   4.167   3.271   8.584 -0.0944  0.3635 -0.2860
   17SAPC  H11X 2245   4.255   3.315   8.635 -0.4028  0.9882 -0.2912
   17SAPC  H11Y 2246   4.113   3.360   8.546  0.3422 -0.0068 -1.8033
   17SAPC  C312 2247   4.211   3.179   8.469 -0.0690  0.1448 -0.6381
   17SAPC  H12X 2248   4.120   3.128   8.430 -1.1481  1.3112  0.3030
   17SAPC  H12Y 2249   4.276   3.102   8.515 -1.8726 -0.3770  1.1305
   17SAPC  C313 2250   4.268   3.241   8.342  0.2324 -0.7388 -0.7066
   17SAPC  H13X 2251   4.338   3.319   8.379 -0.2773  0.1080 -1.4746
   17SAPC  H13Y 2252   4.193   3.300   8.284 -1.0790 -2.1558 -0.4768
   17SAPC  C314 2253   4.339   3.136   8.253 -0.5703  0.1285  0.4920
   17SAPC  H14X 2254   4.271   3.054   8.222 -0.7616 -0.0751  1.4480
   17SAPC  H14Y 2255   4.418   3.096   8.320 -0.5137 -0.6024 -0.0088
   17SAPC  C315 2256   4.420   3.188   8.135 -0.4851 -0.1222  0.5423
   17SAPC  H15X 2257   4.345   3.237   8.068 -1.8218  0.1779  2.2312
   17SAPC  H15Y 2258   4.466   3.107   8.074  1.3632  0.3731  1.2293
   17SAPC  C316 2259   4.533   3.294   8.171  0.6579 -0.0262 -0.0012
   17SAPC  H16X 2260   4.615   3.262   8.238 -0.1612 -1.6737  0.2644
   17SAPC  H16Y 2261   4.484   3.373   8.232 -1.6447 -0.7434 -0.8448
   17SAPC  C317 2262   4.612   3.350   8.049  1.0041 -0.0041  0.2211
   17SAPC  H17X 2263   4.672   3.275   7.993  0.3877 -1.0356  0.9304
   17SAPC  H17Y 2264   4.687   3.423   8.089 -0.1044  2.7323 -2.5170
   17SAPC  C318 2265   4.541   3.437   7.948  0.2003  0.4854 -0.1447
   17SAPC  H18X 2266   4.618   3.460   7.872  1.3077  1.7035  1.3152
   17SAPC  H18Y 2267   4.475   3.369   7.890  0.6300 -0.3326  0.3147
   17SAPC  H18Z 2268   4.487   3.525   7.989  1.6601  2.2712 -1.9774
   18SAPC     N 2269   5.007   2.914  10.034  0.0993 -0.7558 -0.2647
   18SAPC   C12 2270   4.875   2.905  10.111 -0.1960 -0.4854 -0.0568
   18SAPC  H12A 2271   4.843   3.006  10.131  1.1833 -0.2387  1.0590
   18SAPC  H12B 2272   4.897   2.845  10.199 -1.8758  0.5265  1.0820
   18SAPC   C13 2273   5.097   3.005  10.113  0.3522  0.5854 -0.3577
   18SAPC  H13A 2274   5.104   2.956  10.209  0.2468  2.0315  0.4016
   18SAPC  H13B 2275   5.198   3.013  10.075  0.5980 -1.5658 -0.2097
   18SAPC  H13C 2276   5.053   3.102  10.133  0.8405  0.4320  1.6245
   18SAPC   C14 2277   5.066   2.779  10.007 -0.8161  0.3479  0.1694
   18SAPC  H14A 2278   5.159   2.794   9.955 -2.3354  0.4723 -2.6169
   18SAPC  H14B 2279   5.085   2.717  10.093  2.5191  1.3583  0.2027
   18SAPC  H14C 2280   5.011   2.724   9.932  0.4461 -0.6614 -0.0225
   18SAPC   C15 2281   4.976   2.974   9.898  0.3853  0.4487 -0.2667
   18SAPC  H15A 2282   4.946   3.076   9.918  0.8010  0.8704 -1.7482
   18SAPC  H15B 2283   5.064   2.985   9.837  1.7016 -1.3745  1.2202
   18SAPC  H15C 2284   4.903   2.916   9.844  3.0092 -2.8527 -0.4892
   18SAPC   C11 2285   4.759   2.832  10.044 -0.8212 -0.1847  0.0969
   18SAPC  H11A 2286   4.727   2.897   9.960  0.3424 -0.6490 -0.7157
   18SAPC  H11B 2287   4.685   2.848  10.125  0.6964  0.0721  1.4594
   18SAPC     P 2288   4.735   2.653   9.860  0.0857 -0.2738  0.5339
   18SAPC   O13 2289   4.786   2.513   9.837  0.3462 -0.0982  0.4996
   18SAPC   O14 2290   4.587   2.677   9.848 -0.0736  0.4073 -0.1171
   18SAPC   O12 2291   4.787   2.699  10.000  0.4129 -0.0806 -0.2398
   18SAPC   O11 2292   4.811   2.755   9.761  0.4464 -0.2859  0.1150
   18SAPC    C1 2293   4.815   2.751   9.622 -0.5996  0.3022  0.2263
   18SAPC    HA 2294   4.746   2.672   9.587  0.2348 -0.1119 -0.4990
   18SAPC    HB 2295   4.790   2.852   9.581  0.3560 -0.7239 -3.0257
   18SAPC    C2 2296   4.958   2.736   9.557 -0.2959 -0.1218 -0.0831
   18SAPC    HS 2297   5.019   2.827   9.573 -1.1102  0.4564 -0.2200
   18SAPC   O21 2298   4.950   2.713   9.416  0.2764  0.0323  0.0838
   18SAPC   C21 2299   4.876   2.798   9.338 -0.4301 -0.5411  0.2032
   18SAPC   O22 2300   4.835   2.903   9.383  0.0687 -0.8364  0.3944
   18SAPC   C22 2301   4.859   2.742   9.201 -0.2717 -0.4239  0.3109
   18SAPC   H2R 2302   4.941   2.671   9.180 -1.4279 -1.5836 -0.3587
   18SAPC   H2S 2303   4.763   2.686   9.199 -1.0097  0.7851  1.4339
   18SAPC    C3 2304   5.024   2.606   9.622 -0.1092 -0.6075  0.5185
   18SAPC    HX 2305   4.942   2.532   9.630 -1.5000  1.0656  2.2054
   18SAPC    HY 2306   5.041   2.624   9.731  0.3101 -0.4324  0.4250
   18SAPC   O31 2307   5.140   2.553   9.556 -0.1775  0.2302  0.2805
   18SAPC   C31 2308   5.252   2.610   9.580 -0.6398 -0.0619  0.2925
   18SAPC   O32 2309   5.276   2.689   9.674 -0.1868  0.3460 -0.1855
   18SAPC   C32 2310   5.364   2.583   9.479 -0.1432  0.2172  0.0368
   18SAPC   H2X 2311   5.321   2.532   9.390 -1.4527  2.2770 -0.5657
   18SAPC   H2Y 2312   5.440   2.521   9.530 -1.4862 -1.1192  0.4649
   18SAPC   C23 2313   4.869   2.841   9.086  0.3196 -0.1357 -0.4999
   18SAPC   H3R 2314   4.966   2.893   9.100 -0.4400  0.6960  1.9746
   18SAPC   H3S 2315   4.792   2.919   9.107 -0.6688 -0.9900 -0.9208
   18SAPC   C24 2316   4.851   2.780   8.949  0.0937 -0.3298  0.5788
   18SAPC   H4R 2317   4.889   2.676   8.953  1.3463  0.0124 -1.7427
   18SAPC   H4S 2318   4.913   2.835   8.876  0.4436  0.1229  1.2052
   18SAPC   C25 2319   4.704   2.781   8.912  0.0497 -0.5346 -1.0161
   18SAPC   H5R 2320   4.653   2.702   8.969  0.0588  1.0729  1.3218
   18SAPC   C26 2321   4.646   2.850   8.816 -0.1540 -0.8871 -0.3050
   18SAPC   H6R 2322   4.541   2.825   8.795 -0.7428  0.0623  1.4302
   18SAPC   C27 2323   4.717   2.953   8.723  0.7086  0.1609  0.2126
   18SAPC   H7R 2324   4.655   2.993   8.640  0.2143 -0.3301  0.3416
   18SAPC   H7S 2325   4.799   2.899   8.671 -0.2843  1.2537 -2.5467
   18SAPC   C28 2326   4.786   3.080   8.777  0.5378 -0.1966 -0.6050
   18SAPC   H8R 2327   4.888   3.070   8.816  0.0135  1.3135  1.2087
   18SAPC   C29 2328   4.743   3.207   8.768  0.3000  0.1559  0.2513
   18SAPC   H9R 2329   4.819   3.284   8.790 -0.1635  0.1595  1.8714
   18SAPC  C210 2330   4.609   3.253   8.709 -1.4809  1.1014 -0.7050
   18SAPC  H10R 2331   4.535   3.171   8.698 -0.7823  0.5468 -1.3594
   18SAPC  H10S 2332   4.630   3.297   8.609 -0.4371  1.1310 -0.4850
   18SAPC  C211 2333   4.544   3.352   8.799 -0.2621 -0.1725  0.0289
   18SAPC  H11R 2334   4.461   3.312   8.859  1.5402 -2.5091  1.0399
   18SAPC  C212 2335   4.578   3.485   8.821  0.4022  0.7108  0.0936
   18SAPC  H12R 2336   4.520   3.548   8.889  1.3894  0.7914  0.8826
   18SAPC  C213 2337   4.689   3.563   8.754 -0.0244  0.2294 -0.5221
   18SAPC  H13R 2338   4.655   3.567   8.648  0.4177  1.8491 -0.6113
   18SAPC  H13S 2339   4.786   3.509   8.761 -0.2577 -0.6795 -3.5947
   18SAPC  C214 2340   4.697   3.706   8.809  0.3375  0.8107 -0.8690
   18SAPC  H14R 2341   4.775   3.713   8.885 -1.8362  0.7344  1.4393
   18SAPC  C215 2342   4.616   3.817   8.793 -0.3487  0.6113  0.5115
   18SAPC  H15R 2343   4.659   3.910   8.833  0.7576  0.2090  0.2715
   18SAPC  C216 2344   4.487   3.837   8.705 -0.0704 -0.5192 -0.3688
   18SAPC  H16R 2345   4.412   3.894   8.764  1.7299  1.3338  0.1753
   18SAPC  H16S 2346   4.442   3.738   8.682 -1.4144  0.3134 -1.3616
   18SAPC  C217 2347   4.520   3.905   8.564 -0.5144  0.2555 -0.2136
   18SAPC  H17R 2348   4.428   3.905   8.501 -0.1103  1.9308 -0.8350
   18SAPC  H17S 2349   4.589   3.838   8.508  1.2077  2.6614 -1.0428
   18SAPC  C218 2350   4.579   4.048   8.573  0.0958 -0.2638  0.7383
   18SAPC  H18R 2351   4.653   4.054   8.656 -0.8952  0.0574  1.6133
   18SAPC  H18S 2352   4.499   4.120   8.601 -0.2157  0.0137 -0.8451
   18SAPC  C219 2353   4.626   4.101   8.440  0.0164  0.1813  0.1792
   18SAPC  H19R 2354   4.638   4.211   8.444  1.6935  0.0284 -0.3898
   18SAPC  H19S 2355   4.540   4.086   8.372 -0.7022 -0.8343  1.2779
   18SAPC  C220 2356   4.747   4.026   8.377 -0.2956 -0.1799 -0.3052
   18SAPC  H20R 2357   4.722   3.918   8.377 -0.0636 -0.2400  1.4450
   18SAPC  H20S 2358   4.839   4.037   8.438 -0.5058 -4.3074  0.8875
   18SAPC  H20T 2359   4.771   4.069   8.277 -0.5397  0.2505 -0.1846
   18SAPC   C33 2360   5.430   2.716   9.427 -0.6162  0.0147 -0.8445
   18SAPC   H3X 2361   5.530   2.683   9.390  0.2264 -1.9467  2.9492
   18SAPC   H3Y 2362   5.450   2.793   9.505  4.0971 -1.6926 -0.1831
   18SAPC   C34 2363   5.345   2.782   9.318 -0.5126 -0.2719  0.1087
   18SAPC   H4X 2364   5.398   2.878   9.299  0.7318 -0.8170  0.7447
   18SAPC   H4Y 2365   5.246   2.816   9.355  0.2051 -1.7236  3.5416
   18SAPC   C35 2366   5.332   2.712   9.173  0.0967 -0.7138 -0.0301
   18SAPC   H5X 2367   5.268   2.622   9.178  0.1457 -0.6775  1.7997
   18SAPC   H5Y 2368   5.431   2.684   9.132  0.8953  1.1368  0.5692
   18SAPC   C36 2369   5.283   2.808   9.065  0.0153  0.5843 -0.7826
   18SAPC   H6X 2370   5.364   2.880   9.045  1.5213 -0.6313  0.8111
   18SAPC   H6Y 2371   5.194   2.863   9.104 -0.0142  1.3223 -1.8795
   18SAPC   C37 2372   5.243   2.737   8.939 -0.0587  0.0728  1.0815
   18SAPC   H7X 2373   5.164   2.659   8.932  1.8516 -1.9251  1.4186
   18SAPC   H7Y 2374   5.338   2.692   8.902  0.6661  0.8244  2.0196
   18SAPC   C38 2375   5.188   2.841   8.842  0.5106  0.2184 -0.0652
   18SAPC   H8X 2376   5.267   2.915   8.819  2.0755 -0.7334  2.0949
   18SAPC   H8Y 2377   5.098   2.890   8.886  0.5019 -0.4548  0.6752
   18SAPC   C39 2378   5.143   2.790   8.702  0.1289  0.4859 -0.2047
   18SAPC   H9X 2379   5.051   2.730   8.715  1.1777 -1.0088  0.4315
   18SAPC   H9Y 2380   5.223   2.723   8.662 -2.3484 -2.1731 -0.7997
   18SAPC  C310 2381   5.102   2.905   8.610  0.0694  0.4766 -0.0156
   18SAPC  H10X 2382   5.176   2.983   8.585 -1.1616  1.9785  0.9094
   18SAPC  H10Y 2383   5.024   2.957   8.670  0.5491  0.4463  0.6419
   18SAPC  C311 2384   5.046   2.867   8.470  1.3440 -0.2956 -0.2830
   18SAPC  H11X 2385   4.962   2.797   8.492 -0.7600  2.9497  2.7546
   18SAPC  H11Y 2386   5.118   2.812   8.407  0.3092 -1.0127 -0.8508
   18SAPC  C312 2387   4.971   2.983   8.396 -0.0055 -0.5319 -0.0709
   18SAPC  H12X 2388   5.035   3.068   8.364  1.4968 -1.1375  1.2782
   18SAPC  H12Y 2389   4.875   3.018   8.439  0.4116  0.1286  0.3214
   18SAPC  C313 2390   4.926   2.930   8.257  0.7057 -0.0349 -0.5777
   18SAPC  H13X 2391   4.851   2.851   8.277  0.3470 -0.2600 -2.7086
   18SAPC  H13Y 2392   5.017   2.883   8.216  0.8982  1.0582 -1.4246
   18SAPC  C314 2393   4.870   3.034   8.165  0.1528  0.5984 -0.6770
   18SAPC  H14X 2394   4.930   3.128   8.166 -1.9192  1.9707  1.2476
   18SAPC  H14Y 2395   4.773   3.060   8.212  1.0681 -2.5533  3.2237
   18SAPC  C315 2396   4.830   2.984   8.025  0.2006 -0.2800 -0.0453
   18SAPC  H15X 2397   4.803   3.071   7.963  0.1551 -0.7346 -0.6642
   18SAPC  H15Y 2398   4.738   2.922   8.026  0.5642 -0.8681 -2.0230
   18SAPC  C316 2399   4.939   2.892   7.958  0.3298  0.2107  0.2105
   18SAPC  H16X 2400   4.900   2.859   7.859 -3.3879 -2.6968  2.4856
   18SAPC  H16Y 2401   4.965   2.805   8.021 -1.8959 -0.3023  0.4919
   18SAPC  C317 2402   5.065   2.959   7.914 -0.2872 -0.4835  0.4457
   18SAPC  H17X 2403   5.111   3.014   8.000 -1.2178  1.5013 -0.2932
   18SAPC  H17Y 2404   5.041   3.038   7.840  0.2007 -1.8304 -1.1732
   18SAPC  C318 2405   5.170   2.867   7.849  0.9273  0.3949 -0.0256
   18SAPC  H18X 2406   5.265   2.921   7.869  1.1096  0.7097 -1.6814
   18SAPC  H18Y 2407   5.151   2.856   7.740  2.7013 -1.3109 -0.1842
   18SAPC  H18Z 2408   5.193   2.771   7.900 -0.0180 -0.0958 -0.4949
   19SAPC     N 2409   4.364   7.028  10.317  0.4542  0.2501  0.0519
   19SAPC   C12 2410   4.376   7.085  10.176 -0.5472 -0.1893  0.0217
   19SAPC  H12A 2411   4.398   7.003  10.109 -1.9342 -1.5135  1.1650
   19SAPC  H12B 2412   4.461   7.151  10.184 -1.7472  1.4461 -0.5836
   19SAPC   C13 2413   4.497   6.972  10.344 -0.5317  0.6139 -0.1293
   19SAPC  H13A 2414   4.492   6.892  10.416 -0.3416 -1.9557 -2.9078
   19SAPC  H13B 2415   4.545   6.935  10.255  2.4432  4.6126 -0.3440
   19SAPC  H13C 2416   4.563   7.054  10.369  0.8982  0.1582 -2.2189
   19SAPC   C14 2417   4.328   7.133  10.422  0.2014  0.4423  0.4259
   19SAPC  H14A 2418   4.406   7.207  10.428  2.1159 -1.2762 -2.0813
   19SAPC  H14B 2419   4.231   7.172  10.397  0.4679  1.3097  0.7433
   19SAPC  H14C 2420   4.325   7.093  10.523  0.6385  0.8915  0.6163
   19SAPC   C15 2421   4.261   6.929  10.322  0.1646 -0.7014  0.8266
   19SAPC  H15A 2422   4.279   6.847  10.254 -1.6559 -0.4206 -0.0073
   19SAPC  H15B 2423   4.240   6.870  10.411 -0.4594  0.8126  1.7061
   19SAPC  H15C 2424   4.168   6.967  10.283  0.8863  1.3021  1.0278
   19SAPC   C11 2425   4.268   7.173  10.118  0.0158  0.0637 -0.0925
   19SAPC  H11A 2426   4.166   7.127  10.121 -0.0149  0.2321  2.5444
   19SAPC  H11B 2427   4.290   7.180  10.009  1.4385  2.5756  0.3220
   19SAPC     P 2428   4.347   7.419  10.108 -0.3577  0.0498 -0.0805
   19SAPC   O13 2429   4.334   7.539  10.200 -0.0040 -0.0755  0.1954
   19SAPC   O14 2430   4.485   7.385  10.076 -0.1304 -0.4104 -0.0815
   19SAPC   O12 2431   4.265   7.299  10.175 -0.3873  0.1886  0.5187
   19SAPC   O11 2432   4.263   7.446   9.971  0.0601  0.2854  0.2898
   19SAPC    C1 2433   4.281   7.571   9.902  0.1630 -0.3801 -0.0490
   19SAPC    HA 2434   4.281   7.659   9.970  0.9327 -2.6805  3.0809
   19SAPC    HB 2435   4.384   7.576   9.861 -0.4191 -1.6756 -1.7108
   19SAPC    C2 2436   4.175   7.582   9.793 -0.1215 -0.2741 -0.5689
   19SAPC    HS 2437   4.080   7.598   9.849 -0.1394 -2.2533 -0.0019
   19SAPC   O21 2438   4.171   7.467   9.707 -0.0060 -0.2162 -0.5249
   19SAPC   C21 2439   4.050   7.447   9.654 -0.0486  0.0374  0.6305
   19SAPC   O22 2440   3.961   7.525   9.660  0.2237  0.2448  0.2213
   19SAPC   C22 2441   4.044   7.322   9.574 -0.3141 -0.0156  0.2347
   19SAPC   H2R 2442   4.135   7.311   9.511  0.2678 -1.0845  1.2223
   19SAPC   H2S 2443   4.022   7.228   9.630 -0.1998 -1.5090 -2.1702
   19SAPC    C3 2444   4.208   7.699   9.705 -0.0121  0.0012  0.5066
   19SAPC    HX 2445   4.210   7.794   9.763  1.7679  0.0354  0.4386
   19SAPC    HY 2446   4.127   7.709   9.631 -0.5771  2.1156  1.3835
   19SAPC   O31 2447   4.344   7.696   9.649 -0.1726 -0.3956 -0.0461
   19SAPC   C31 2448   4.353   7.662   9.527  0.0689  0.3002 -0.0195
   19SAPC   O32 2449   4.265   7.636   9.450 -0.2853  0.0147  0.1112
   19SAPC   C32 2450   4.500   7.647   9.487 -0.8282  0.3579 -0.3062
   19SAPC   H2X 2451   4.544   7.600   9.577 -3.0417  0.1591  0.6960
   19SAPC   H2Y 2452   4.551   7.744   9.468 -0.1372  0.0514 -0.0615
   19SAPC   C23 2453   3.924   7.315   9.479  0.7034  0.4655 -0.1118
   19SAPC   H3R 2454   3.937   7.412   9.426 -2.2427  0.4394 -0.9351
   19SAPC   H3S 2455   3.828   7.317   9.536 -1.1363  4.0800 -3.1032
   19SAPC   C24 2456   3.939   7.204   9.370  0.0659 -0.1318  0.1340
   19SAPC   H4R 2457   4.034   7.219   9.315 -0.8776  0.9680 -1.2280
   19SAPC   H4S 2458   3.862   7.237   9.298  0.5553 -0.1137 -0.3800
   19SAPC   C25 2459   3.903   7.066   9.430 -0.1464 -0.2981 -0.4906
   19SAPC   H5R 2460   3.804   7.073   9.477 -0.2724  1.0054 -0.9247
   19SAPC   C26 2461   3.988   6.968   9.444  0.3684 -0.0885 -0.0871
   19SAPC   H6R 2462   3.945   6.872   9.477  1.7204 -1.3944 -1.9734
   19SAPC   C27 2463   4.138   6.956   9.419 -0.0760 -0.2921  0.3952
   19SAPC   H7R 2464   4.178   7.060   9.412  1.1471 -0.8462 -1.5166
   19SAPC   H7S 2465   4.154   6.915   9.317  0.3527  0.8363  0.0022
   19SAPC   C28 2466   4.212   6.872   9.517 -0.6764 -0.0120 -0.4355
   19SAPC   H8R 2467   4.273   6.927   9.591  0.3810 -1.1959 -0.4114
   19SAPC   C29 2468   4.230   6.736   9.517  0.2927  0.5047  0.2912
   19SAPC   H9R 2469   4.309   6.700   9.584  1.1881  3.4455  0.9020
   19SAPC  C210 2470   4.172   6.644   9.417  0.1719 -0.5568  0.1369
   19SAPC  H10R 2471   4.245   6.650   9.333  1.1571  1.2770  1.1012
   19SAPC  H10S 2472   4.076   6.692   9.387  0.1171  1.1501  2.8956
   19SAPC  C211 2473   4.138   6.506   9.467 -0.2206 -0.2626 -0.0934
   19SAPC  H11R 2474   4.067   6.511   9.551 -1.0512  1.2539 -0.8731
   19SAPC  C212 2475   4.178   6.387   9.421  0.1086 -0.3039  0.5164
   19SAPC  H12R 2476   4.168   6.306   9.495 -2.1126 -1.2973 -0.8194
   19SAPC  C213 2477   4.276   6.367   9.309  0.0875 -0.3703 -0.0366
   19SAPC  H13R 2478   4.372   6.322   9.340 -0.4032 -0.1563  1.8356
   19SAPC  H13S 2479   4.305   6.464   9.264  1.3243 -0.9484 -0.5048
   19SAPC  C214 2480   4.211   6.274   9.209  0.5143  0.0364  0.5219
   19SAPC  H14R 2481   4.103   6.272   9.189  0.3741 -0.9105  1.3029
   19SAPC  C215 2482   4.275   6.178   9.142 -0.6594  0.1617 -0.5326
   19SAPC  H15R 2483   4.220   6.110   9.075  3.1505 -2.4923 -1.1748
   19SAPC  C216 2484   4.424   6.148   9.155 -0.2052 -0.1359  0.4257
   19SAPC  H16R 2485   4.444   6.057   9.216  2.3230 -0.7387 -1.1993
   19SAPC  H16S 2486   4.486   6.227   9.202  0.7529 -0.1566 -0.7671
   19SAPC  C217 2487   4.503   6.119   9.027 -0.4393 -0.1436  0.3098
   19SAPC  H17R 2488   4.610   6.132   9.053 -0.5833  0.0958  0.7865
   19SAPC  H17S 2489   4.476   6.198   8.954  0.1734 -1.1514 -1.0330
   19SAPC  C218 2490   4.478   5.987   8.955 -0.4418  0.1361  0.3572
   19SAPC  H18R 2491   4.387   5.988   8.891  0.6711  1.3517 -1.2488
   19SAPC  H18S 2492   4.461   5.906   9.029 -2.0446 -1.6913 -1.9320
   19SAPC  C219 2493   4.598   5.948   8.873  0.3195  0.5816  0.2584
   19SAPC  H19R 2494   4.692   5.950   8.932  0.8340  0.6034 -0.5535
   19SAPC  H19S 2495   4.617   6.028   8.799 -0.1272  0.7674  0.3437
   19SAPC  C220 2496   4.578   5.824   8.795  1.0123  0.2130  0.3685
   19SAPC  H20R 2497   4.672   5.765   8.791  0.9889  0.2810 -2.1266
   19SAPC  H20S 2498   4.552   5.847   8.690 -0.9033 -0.2713  0.7154
   19SAPC  H20T 2499   4.503   5.761   8.848  0.3236 -1.1631 -2.1935
   19SAPC   C33 2500   4.520   7.557   9.366 -0.4132 -0.3410  0.7197
   19SAPC   H3X 2501   4.630   7.554   9.350 -0.2162 -0.0563  1.9757
   19SAPC   H3Y 2502   4.474   7.609   9.280 -0.7289  0.6917  1.5105
   19SAPC   C34 2503   4.469   7.416   9.390  0.4071 -0.8285 -0.4653
   19SAPC   H4X 2504   4.358   7.413   9.381  0.3274  0.4808 -0.0133
   19SAPC   H4Y 2505   4.507   7.402   9.493  0.9760 -1.0157 -0.6944
   19SAPC   C35 2506   4.518   7.313   9.297 -0.0238  0.6093 -0.2080
   19SAPC   H5X 2507   4.523   7.212   9.342 -0.0690  1.1713  1.1023
   19SAPC   H5Y 2508   4.624   7.327   9.264  0.6374 -2.3500  0.5336
   19SAPC   C36 2509   4.441   7.295   9.168 -0.2215 -0.6992  0.1095
   19SAPC   H6X 2510   4.452   7.380   9.097 -1.6747  0.0515  0.7820
   19SAPC   H6Y 2511   4.334   7.299   9.197 -0.2329  0.2912 -0.0374
   19SAPC   C37 2512   4.486   7.170   9.090 -0.6052 -0.6295  0.0250
   19SAPC   H7X 2513   4.464   7.083   9.155 -1.4132  1.4998  2.6838
   19SAPC   H7Y 2514   4.594   7.187   9.072 -0.8159  1.3687  0.5319
   19SAPC   C38 2515   4.408   7.152   8.962  0.1185  1.1413 -0.8360
   19SAPC   H8X 2516   4.423   7.243   8.901  0.3582  1.5260 -0.2085
   19SAPC   H8Y 2517   4.298   7.138   8.972  0.1689  0.7360 -0.8242
   19SAPC   C39 2518   4.465   7.032   8.880 -0.7408  0.6601 -0.4936
   19SAPC   H9X 2519   4.439   6.933   8.924 -0.7637  0.3661 -1.1598
   19SAPC   H9Y 2520   4.575   7.034   8.891 -0.9178  3.4476  1.2972
   19SAPC  C310 2521   4.442   7.037   8.732  0.7067 -0.1298  0.1312
   19SAPC  H10X 2522   4.467   7.139   8.694 -2.0503  1.5269  2.5701
   19SAPC  H10Y 2523   4.333   7.020   8.721  0.7918 -0.7098  0.1459
   19SAPC  C311 2524   4.505   6.914   8.657 -0.5231  0.3557 -0.3412
   19SAPC  H11X 2525   4.436   6.835   8.694  0.3837  0.2609  1.1995
   19SAPC  H11Y 2526   4.609   6.896   8.690 -0.7186  0.3748  0.2910
   19SAPC  C312 2527   4.483   6.919   8.509 -0.1419 -0.0338  0.0389
   19SAPC  H12X 2528   4.581   6.931   8.458 -0.6337 -0.5679 -1.0632
   19SAPC  H12Y 2529   4.421   7.006   8.480 -0.7907 -0.7137 -0.6440
   19SAPC  C313 2530   4.429   6.788   8.450 -0.0506  0.0354  0.0102
   19SAPC  H13X 2531   4.335   6.754   8.500 -0.5310  1.2238 -0.0718
   19SAPC  H13Y 2532   4.503   6.719   8.497 -0.2898 -1.3997 -1.6351
   19SAPC  C314 2533   4.424   6.771   8.296 -0.0824 -0.2614  0.0632
   19SAPC  H14X 2534   4.441   6.664   8.272 -2.4469 -1.2569  2.4654
   19SAPC  H14Y 2535   4.515   6.827   8.269 -1.9518  1.7876 -2.2364
   19SAPC  C315 2536   4.301   6.821   8.228 -0.4840  0.7396  0.9792
   19SAPC  H15X 2537   4.258   6.905   8.286  0.9883 -0.9165  4.6266
   19SAPC  H15Y 2538   4.236   6.731   8.221  1.1793 -0.5512  1.8528
   19SAPC  C316 2539   4.333   6.869   8.085  0.4558 -0.1218 -0.5746
   19SAPC  H16X 2540   4.396   6.796   8.032  2.6239  0.6053  0.9383
   19SAPC  H16Y 2541   4.393   6.963   8.087  0.0058  0.1583  0.2471
   19SAPC  C317 2542   4.199   6.882   8.015 -0.0042 -0.1092  0.6205
   19SAPC  H17X 2543   4.115   6.822   8.055 -1.0454 -0.3347 -1.8421
   19SAPC  H17Y 2544   4.220   6.847   7.911 -1.3389  1.5108 -0.2172
   19SAPC  C318 2545   4.147   7.030   8.011 -0.4922  0.5695 -0.6195
   19SAPC  H18X 2546   4.061   7.042   7.941 -0.2864 -2.3026 -1.4099
   19SAPC  H18Y 2547   4.219   7.102   7.966 -1.2701  2.0301  0.3997
   19SAPC  H18Z 2548   4.110   7.070   8.109  2.3862  2.4394 -0.2249
   20SAPC     N 2549   4.319   0.830  10.236 -0.1577  0.1726 -0.4925
   20SAPC   C12 2550   4.290   0.717  10.131 -0.1882  0.2604 -0.3922
   20SAPC  H12A 2551   4.382   0.695  10.077  0.3868  1.1900  0.2123
   20SAPC  H12B 2552   4.226   0.759  10.054 -1.4390  0.0949  0.5505
   20SAPC   C13 2553   4.394   0.768  10.353 -0.1241 -0.6586  0.0390
   20SAPC  H13A 2554   4.357   0.672  10.385  0.4456 -0.9318 -0.1070
   20SAPC  H13B 2555   4.493   0.746  10.316 -0.3566 -2.3345  0.3735
   20SAPC  H13C 2556   4.390   0.836  10.436 -1.1923 -1.8837  1.0205
   20SAPC   C14 2557   4.401   0.943  10.172  0.1354 -0.2178  0.0309
   20SAPC  H14A 2558   4.492   0.900  10.132  0.7678  2.0555 -1.0236
   20SAPC  H14B 2559   4.339   0.982  10.093  1.0323 -2.4704 -1.8516
   20SAPC  H14C 2560   4.419   1.023  10.241 -1.7146  1.5551 -1.4933
   20SAPC   C15 2561   4.188   0.870  10.291  0.7165 -0.6430  0.4184
   20SAPC  H15A 2562   4.123   0.790  10.260 -1.1882  0.2458  1.9993
   20SAPC  H15B 2563   4.180   0.877  10.399 -2.9508 -0.2126  0.1679
   20SAPC  H15C 2564   4.148   0.956  10.239  1.1083 -1.2562 -0.9136
   20SAPC   C11 2565   4.226   0.585  10.176 -0.3039 -0.6716 -0.3207
   20SAPC  H11A 2566   4.260   0.570  10.281  1.4113 -1.6055 -0.9804
   20SAPC  H11B 2567   4.256   0.498  10.113 -0.6537 -0.2995 -1.0058
   20SAPC     P 2568   4.009   0.546  10.046  0.0875  0.0473  0.5468
   20SAPC   O13 2569   4.034   0.401  10.044  0.1942  0.0332 -0.0513
   20SAPC   O14 2570   3.866   0.588  10.048 -0.4438 -0.2959  0.0806
   20SAPC   O12 2571   4.084   0.608  10.172 -0.1122 -0.5634 -0.7796
   20SAPC   O11 2572   4.082   0.611   9.923 -0.1589 -0.4626 -0.2392
   20SAPC    C1 2573   4.040   0.735   9.870  0.4395 -0.2692 -0.1564
   20SAPC    HA 2574   4.014   0.812   9.946  0.3639 -0.0268 -0.4272
   20SAPC    HB 2575   4.128   0.778   9.817  1.3805  0.1785  1.6935
   20SAPC    C2 2576   3.921   0.739   9.767 -0.8932 -0.3237 -0.6086
   20SAPC    HS 2577   3.833   0.701   9.824  0.6495 -0.4707  1.7699
   20SAPC   O21 2578   3.955   0.639   9.672  0.1163 -0.4232 -0.7454
   20SAPC   C21 2579   3.849   0.581   9.601 -0.0864 -0.2583  0.0643
   20SAPC   O22 2580   3.732   0.592   9.629 -0.5066  0.0574  0.0602
   20SAPC   C22 2581   3.903   0.523   9.469  0.3000  0.0476  0.4709
   20SAPC   H2R 2582   3.992   0.579   9.433  2.4011 -4.5309 -1.8866
   20SAPC   H2S 2583   3.948   0.423   9.491 -1.9104 -0.6871  1.8326
   20SAPC    C3 2584   3.901   0.880   9.703  0.1951  0.1743  0.1657
   20SAPC    HX 2585   3.868   0.939   9.792 -0.6271  0.2633 -0.1973
   20SAPC    HY 2586   3.812   0.861   9.640  0.9906  0.5083 -1.0756
   20SAPC   O31 2587   4.011   0.937   9.626  0.3344 -0.1585 -0.1906
   20SAPC   C31 2588   4.000   0.932   9.491 -0.5667  0.5481 -0.9257
   20SAPC   O32 2589   3.911   0.885   9.427  0.5980 -0.6660 -0.6791
   20SAPC   C32 2590   4.121   1.010   9.435 -0.1408  0.1109  0.2688
   20SAPC   H2X 2591   4.205   0.994   9.506  1.2515 -1.4259 -1.6676
   20SAPC   H2Y 2592   4.097   1.118   9.435  0.7946  0.3361 -1.8371
   20SAPC   C23 2593   3.804   0.514   9.339 -0.1829  0.1475  0.2235
   20SAPC   H3R 2594   3.743   0.606   9.328 -1.3315 -0.7660 -1.1907
   20SAPC   H3S 2595   3.727   0.435   9.356 -1.2508  1.4008  1.3274
   20SAPC   C24 2596   3.887   0.489   9.213  0.1566  0.4953  0.0330
   20SAPC   H4R 2597   3.953   0.578   9.214 -0.9416  1.3084  1.5072
   20SAPC   H4S 2598   3.829   0.493   9.118  1.8113  2.3599 -0.9208
   20SAPC   C25 2599   3.976   0.363   9.211  0.5708  0.1630  0.2630
   20SAPC   H5R 2600   4.006   0.339   9.314  1.4064  0.8257  0.1824
   20SAPC   C26 2601   4.035   0.322   9.101 -0.3629  0.4082 -0.0803
   20SAPC   H6R 2602   4.082   0.224   9.116 -0.6566  0.3458  0.4793
   20SAPC   C27 2603   4.031   0.366   8.961 -0.1705  0.0798  0.2667
   20SAPC   H7R 2604   3.953   0.444   8.947 -0.6428  0.0353  2.4678
   20SAPC   H7S 2605   3.992   0.281   8.900 -0.9059  1.2358 -0.9192
   20SAPC   C28 2606   4.166   0.423   8.916 -0.0982  0.0026 -0.2752
   20SAPC   H8R 2607   4.209   0.497   8.985  1.0909 -0.9406  0.0005
   20SAPC   C29 2608   4.239   0.392   8.804  0.2857 -0.7052  0.5543
   20SAPC   H9R 2609   4.337   0.439   8.793  0.5272 -1.3471 -0.1540
   20SAPC  C210 2610   4.200   0.291   8.695  0.1983  0.0839 -0.2160
   20SAPC  H10R 2611   4.256   0.310   8.601 -1.5302  3.4477 -0.6569
   20SAPC  H10S 2612   4.091   0.296   8.674  0.2172  0.0980 -0.3062
   20SAPC  C211 2613   4.222   0.147   8.743  0.0161 -0.3848 -1.0509
   20SAPC  H11R 2614   4.223   0.135   8.853 -1.4594 -2.5934 -1.2423
   20SAPC  C212 2615   4.257   0.041   8.664  0.2539 -0.1524  0.1469
   20SAPC  H12R 2616   4.249  -0.059   8.707 -2.8453  0.7596  1.8345
   20SAPC  C213 2617   4.273   0.052   8.517 -0.4005 -0.7085  0.1685
   20SAPC  H13R 2618   4.336   0.139   8.490  0.2850 -1.5565 -1.0148
   20SAPC  H13S 2619   4.180   0.069   8.459  0.3668  1.9495 -0.3154
   20SAPC  C214 2620   4.345  -0.067   8.449 -0.2609 -1.0017 -1.0956
   20SAPC  H14R 2621   4.356  -0.161   8.504 -1.9146 -1.4744 -1.5285
   20SAPC  C215 2622   4.380  -0.073   8.320 -0.8153 -0.2388 -0.1201
   20SAPC  H15R 2623   4.406  -0.171   8.277  2.6716  0.7515 -0.4162
   20SAPC  C216 2624   4.362   0.031   8.210 -0.4503 -0.1886 -0.2859
   20SAPC  H16R 2625   4.337   0.126   8.261  2.3692  0.1603  0.4762
   20SAPC  H16S 2626   4.279   0.002   8.141 -0.1652 -3.1909  0.5663
   20SAPC  C217 2627   4.484   0.050   8.122 -0.0220 -0.0009  0.2273
   20SAPC  H17R 2628   4.492  -0.037   8.054 -0.8555 -1.3414  1.7974
   20SAPC  H17S 2629   4.584   0.040   8.169  0.9605 -1.7722 -2.1759
   20SAPC  C218 2630   4.481   0.178   8.045  0.0471  0.1715 -0.2692
   20SAPC  H18R 2631   4.488   0.258   8.122 -0.0609  0.0728 -0.1560
   20SAPC  H18S 2632   4.384   0.195   7.992 -0.2970 -1.6963 -0.2662
   20SAPC  C219 2633   4.595   0.188   7.942  0.0398  0.4173  0.5881
   20SAPC  H19R 2634   4.687   0.154   7.994  1.1086  0.4440 -1.2529
   20SAPC  H19S 2635   4.610   0.293   7.909 -0.1135  0.8781  1.9522
   20SAPC  C220 2636   4.571   0.103   7.820 -0.0820  0.1512 -0.3194
   20SAPC  H20R 2637   4.628   0.139   7.731 -1.0862 -0.0928 -1.0747
   20SAPC  H20S 2638   4.463   0.095   7.794  0.0035 -0.6813 -0.4483
   20SAPC  H20T 2639   4.604  -0.000   7.847 -0.4314  0.2124  0.3435
   20SAPC   C33 2640   4.156   0.949   9.295  0.2361  0.2310  0.3967
   20SAPC   H3X 2641   4.164   0.840   9.315  3.1585  0.3831  0.3040
   20SAPC   H3Y 2642   4.260   0.977   9.268  0.5260 -1.5831 -0.4421
   20SAPC   C34 2643   4.057   0.983   9.183  0.8503  0.4295  0.3404
   20SAPC   H4X 2644   4.076   1.090   9.160 -1.6052  0.8158 -0.0119
   20SAPC   H4Y 2645   3.953   0.962   9.217 -0.2861  0.1742 -3.0768
   20SAPC   C35 2646   4.081   0.892   9.057  0.0626  0.7422  0.2103
   20SAPC   H5X 2647   4.081   0.783   9.078  0.9407  0.2699 -2.0707
   20SAPC   H5Y 2648   4.187   0.908   9.029 -0.6870 -0.3835 -3.4376
   20SAPC   C36 2649   3.992   0.907   8.939 -0.1357  0.5632  0.0279
   20SAPC   H6X 2650   3.980   1.013   8.908  1.7096  0.9331  0.5252
   20SAPC   H6Y 2651   3.894   0.861   8.966  0.3589 -1.2455 -1.1855
   20SAPC   C37 2652   4.057   0.830   8.828  0.8919 -0.2621 -0.1459
   20SAPC   H7X 2653   4.095   0.730   8.857 -1.1647 -1.4967 -1.5721
   20SAPC   H7Y 2654   4.152   0.881   8.802  1.2521 -0.9408 -0.1691
   20SAPC   C38 2655   3.965   0.819   8.702 -0.1029 -0.0525  0.0552
   20SAPC   H8X 2656   3.928   0.923   8.690  2.1035  0.6411 -1.0284
   20SAPC   H8Y 2657   3.875   0.759   8.726 -1.4011  1.0805 -1.8328
   20SAPC   C39 2658   4.028   0.765   8.576 -0.4949  0.3690 -0.0660
   20SAPC   H9X 2659   3.974   0.797   8.485  0.8495 -1.3443 -1.4996
   20SAPC   H9Y 2660   4.021   0.655   8.592  0.0387  0.8800  4.1611
   20SAPC  C310 2661   4.180   0.806   8.559 -0.4503  0.3019  0.0959
   20SAPC  H10X 2662   4.252   0.767   8.634  0.7342  2.3853  0.0752
   20SAPC  H10Y 2663   4.183   0.916   8.576  1.3118  0.1926  0.4970
   20SAPC  C311 2664   4.227   0.783   8.414 -0.9613 -0.3376  0.5681
   20SAPC  H11X 2665   4.324   0.834   8.399 -0.5194 -1.3640 -0.1667
   20SAPC  H11Y 2666   4.155   0.839   8.351 -0.3317 -0.5512 -0.3409
   20SAPC  C312 2667   4.232   0.641   8.354  0.1665 -0.4226 -0.2268
   20SAPC  H12X 2668   4.127   0.605   8.343 -0.1862  1.2416 -2.9935
   20SAPC  H12Y 2669   4.287   0.568   8.416  0.1682  0.3842  0.7342
   20SAPC  C313 2670   4.281   0.642   8.208  0.7530 -0.0052 -0.1827
   20SAPC  H13X 2671   4.220   0.709   8.144  0.7754  1.3382  1.1492
   20SAPC  H13Y 2672   4.252   0.540   8.177 -2.4061  1.4580 -2.3290
   20SAPC  C314 2673   4.429   0.666   8.197  0.4609 -0.8226  0.3225
   20SAPC  H14X 2674   4.474   0.570   8.232 -1.2981 -2.4195 -1.7188
   20SAPC  H14Y 2675   4.465   0.742   8.270  2.1566  0.1630 -1.4989
   20SAPC  C315 2676   4.487   0.696   8.054 -0.4956 -0.0212  0.3691
   20SAPC  H15X 2677   4.458   0.801   8.034 -2.5026 -0.7051 -0.4702
   20SAPC  H15Y 2678   4.418   0.650   7.979 -0.7526  3.0084 -1.3488
   20SAPC  C316 2679   4.635   0.675   8.027  0.2711  0.1803  0.4153
   20SAPC  H16X 2680   4.658   0.694   7.920  1.7778 -0.6985  0.5649
   20SAPC  H16Y 2681   4.658   0.567   8.045 -1.0254 -0.1059  0.4115
   20SAPC  C317 2682   4.723   0.770   8.105 -0.1836  0.4322  0.2999
   20SAPC  H17X 2683   4.710   0.751   8.214  4.4893 -0.2439  0.8338
   20SAPC  H17Y 2684   4.685   0.875   8.095  1.7664  1.4807  3.2356
   20SAPC  C318 2685   4.879   0.761   8.072  0.6721  0.2151  0.3219
   20SAPC  H18X 2686   4.920   0.659   8.090 -1.1585 -0.6001 -0.0370
   20SAPC  H18Y 2687   4.935   0.827   8.141 -2.5968  0.1688  3.1358
   20SAPC  H18Z 2688   4.906   0.779   7.965 -2.3521 -0.3324 -0.5897
   21SAPC     N 2689   3.644   0.282   9.926  0.2647 -0.2018  0.1375
   21SAPC   C12 2690   3.620   0.279  10.074  1.0305 -0.0217 -0.7264
   21SAPC  H12A 2691   3.685   0.346  10.128 -0.6087  0.3187  0.8961
   21SAPC  H12B 2692   3.644   0.181  10.114  3.3215  0.8594  0.1362
   21SAPC   C13 2693   3.625   0.415   9.866  0.1922 -0.1317 -0.4535
   21SAPC  H13A 2694   3.524   0.452   9.879  0.7234  1.1927  0.0526
   21SAPC  H13B 2695   3.700   0.479   9.911  0.8149 -0.6199 -0.7931
   21SAPC  H13C 2696   3.640   0.421   9.760 -1.2070  0.0883 -0.6512
   21SAPC   C14 2697   3.789   0.248   9.909 -0.1132  0.7331 -0.3562
   21SAPC  H14A 2698   3.843   0.275   9.998 -0.8606 -0.7314  0.5661
   21SAPC  H14B 2699   3.803   0.143   9.887 -2.0521  1.1894 -4.2290
   21SAPC  H14C 2700   3.832   0.303   9.827  0.1907  0.3233 -0.4750
   21SAPC   C15 2701   3.560   0.179   9.854  0.5437  0.6264 -0.4427
   21SAPC  H15A 2702   3.558   0.213   9.752  0.6747  1.8086 -0.0536
   21SAPC  H15B 2703   3.606   0.082   9.869  1.6187  1.1269 -0.4735
   21SAPC  H15C 2704   3.461   0.177   9.897  0.9395 -4.1988  0.5959
   21SAPC   C11 2705   3.476   0.316  10.122 -0.0406  0.3379 -0.0433
   21SAPC  H11A 2706   3.471   0.295  10.231  1.7338 -1.7234 -0.3377
   21SAPC  H11B 2707   3.395   0.252  10.081  1.2380 -2.6535  1.9464
   21SAPC     P 2708   3.301   0.495  10.062 -0.4381  0.1048 -0.2023
   21SAPC   O13 2709   3.213   0.444  10.164 -0.1882  0.7741  0.1143
   21SAPC   O14 2710   3.283   0.638  10.031 -0.1468 -0.4167  0.2973
   21SAPC   O12 2711   3.451   0.456  10.096  0.1157  0.4064  0.7398
   21SAPC   O11 2712   3.280   0.407   9.935  0.2576  0.0615 -0.1427
   21SAPC    C1 2713   3.150   0.367   9.891  0.3529  0.2055  0.3415
   21SAPC    HA 2714   3.069   0.440   9.909 -0.3802 -0.8527  1.4335
   21SAPC    HB 2715   3.163   0.369   9.781  0.4002 -1.3794  0.2997
   21SAPC    C2 2716   3.119   0.222   9.936 -0.0287  0.4523 -0.3675
   21SAPC    HS 2717   3.147   0.217  10.044 -1.1441  0.4466 -0.0774
   21SAPC   O21 2718   3.200   0.131   9.857  0.5363 -0.0288  0.0707
   21SAPC   C21 2719   3.236   0.026   9.924  0.2177  0.4254  0.7164
   21SAPC   O22 2720   3.197  -0.016  10.029 -0.3286 -0.8473 -0.4302
   21SAPC   C22 2721   3.347  -0.045   9.852  0.1570  0.2849 -0.3408
   21SAPC   H2R 2722   3.397   0.025   9.783 -0.3679  1.0200  0.0210
   21SAPC   H2S 2723   3.413  -0.083   9.933 -0.0982  0.2762 -0.1357
   21SAPC    C3 2724   2.969   0.177   9.918  0.4662  0.5782 -0.5944
   21SAPC    HX 2725   2.909   0.241   9.986 -0.5988  0.7691 -1.7008
   21SAPC    HY 2726   2.962   0.073   9.955 -0.4359  0.9425  0.2896
   21SAPC   O31 2727   2.921   0.203   9.787  0.5012 -0.2074  0.0827
   21SAPC   C31 2728   2.957   0.108   9.694  0.2530  0.3190 -0.0781
   21SAPC   O32 2729   3.004  -0.000   9.729  0.5731  0.1450 -0.1694
   21SAPC   C32 2730   2.900   0.145   9.557  0.2672 -0.3794 -0.1297
   21SAPC   H2X 2731   2.935   0.249   9.540  0.4599 -0.2704  0.9183
   21SAPC   H2Y 2732   2.789   0.135   9.566 -0.0127  1.2483 -1.5229
   21SAPC   C23 2733   3.283  -0.169   9.781 -0.2802 -0.0894 -1.0220
   21SAPC   H3R 2734   3.173  -0.154   9.770 -0.0046  0.7350 -2.8193
   21SAPC   H3S 2735   3.299  -0.253   9.851 -1.2694  0.9223  0.4559
   21SAPC   C24 2736   3.348  -0.192   9.637 -0.2772 -0.7901  0.7662
   21SAPC   H4R 2737   3.302  -0.290   9.609  2.3710 -1.8702 -0.0514
   21SAPC   H4S 2738   3.459  -0.202   9.636 -0.0270  1.6928  0.2812
   21SAPC   C25 2739   3.297  -0.092   9.541 -0.7736  0.2040 -0.3563
   21SAPC   H5R 2740   3.188  -0.101   9.528 -0.5194 -0.9205 -1.9426
   21SAPC   C26 2741   3.375  -0.004   9.473 -0.0546  0.0275  0.7341
   21SAPC   H6R 2742   3.326   0.057   9.395 -0.5335 -0.4283  0.6754
   21SAPC   C27 2743   3.523   0.001   9.484  0.8649  0.1254 -0.1795
   21SAPC   H7R 2744   3.561  -0.102   9.468 -1.6720 -0.9722  0.5851
   21SAPC   H7S 2745   3.550   0.018   9.591  1.5614  0.1884 -0.3644
   21SAPC   C28 2746   3.598   0.104   9.394  0.0115 -0.1749 -0.6536
   21SAPC   H8R 2747   3.651   0.189   9.439  0.1188 -0.5494 -0.0637
   21SAPC   C29 2748   3.614   0.096   9.259 -0.4727 -0.1572  0.0297
   21SAPC   H9R 2749   3.672   0.166   9.197 -0.1155  0.1234  0.6782
   21SAPC  C210 2750   3.566  -0.016   9.174  0.3065 -0.6898  0.5634
   21SAPC  H10R 2751   3.506  -0.077   9.245  0.0717 -1.1168  0.0011
   21SAPC  H10S 2752   3.660  -0.066   9.143  0.1293 -1.7394  1.7000
   21SAPC  C211 2753   3.481   0.024   9.052 -0.4740  0.6232  0.0707
   21SAPC  H11R 2754   3.375   0.034   9.082 -1.2098  0.8627 -2.5269
   21SAPC  C212 2755   3.515   0.052   8.924 -0.4673 -0.0547  0.0586
   21SAPC  H12R 2756   3.429   0.068   8.858 -0.5106  0.0528  0.1406
   21SAPC  C213 2757   3.652   0.056   8.860 -0.7532 -0.6377 -1.0074
   21SAPC  H13R 2758   3.654  -0.009   8.770 -0.3552  1.0733 -2.2754
   21SAPC  H13S 2759   3.725   0.012   8.931 -1.7046  0.9655  1.0183
   21SAPC  C214 2760   3.710   0.194   8.829  0.7071 -0.1441 -0.0899
   21SAPC  H14R 2761   3.709   0.265   8.913  2.5944 -1.1128  0.7891
   21SAPC  C215 2762   3.767   0.229   8.710 -0.0108 -0.0278  0.5619
   21SAPC  H15R 2763   3.805   0.332   8.712  0.4743 -0.2157  1.0801
   21SAPC  C216 2764   3.783   0.146   8.585 -0.5450 -0.6116 -0.1174
   21SAPC  H16R 2765   3.690   0.087   8.566 -2.3554  1.5595  1.6258
   21SAPC  H16S 2766   3.848   0.057   8.597  0.0041 -0.1910  0.0014
   21SAPC  C217 2767   3.826   0.225   8.468 -0.5727  0.0331  0.0003
   21SAPC  H17R 2768   3.909   0.294   8.495  0.7339 -2.1883  1.7913
   21SAPC  H17S 2769   3.736   0.283   8.435 -2.4082 -1.4408  2.2231
   21SAPC  C218 2770   3.872   0.142   8.354  0.1329 -0.3949 -0.2885
   21SAPC  H18R 2771   3.789   0.070   8.334  0.6249 -1.3361  1.0319
   21SAPC  H18S 2772   3.964   0.087   8.380 -1.2846 -3.3888 -1.3048
   21SAPC  C219 2773   3.916   0.229   8.229  0.2386 -0.2518  0.6239
   21SAPC  H19R 2774   3.828   0.277   8.180  0.3274  1.2613  1.9136
   21SAPC  H19S 2775   3.954   0.158   8.152  0.6484  1.0897 -0.4351
   21SAPC  C220 2776   4.036   0.323   8.250  0.4715  0.1433  0.3154
   21SAPC  H20R 2777   4.131   0.266   8.242  0.0558 -0.7362  1.5428
   21SAPC  H20S 2778   4.049   0.367   8.351 -1.3536  0.8743  0.2562
   21SAPC  H20T 2779   4.034   0.408   8.178 -0.9207  0.6912  0.9958
   21SAPC   C33 2780   2.950   0.045   9.451 -0.1642  0.0485  0.1099
   21SAPC   H3X 2781   2.891  -0.049   9.462 -0.7525  0.3202 -0.6585
   21SAPC   H3Y 2782   3.059   0.034   9.467 -0.0598  0.2413 -0.4751
   21SAPC   C34 2783   2.939   0.086   9.303  0.1773  0.2638  0.5081
   21SAPC   H4X 2784   2.983   0.188   9.299  0.8849 -0.1206 -2.8254
   21SAPC   H4Y 2785   2.831   0.104   9.281  0.6038  0.0838 -1.9339
   21SAPC   C35 2786   3.004  -0.011   9.212 -0.4903  0.5349 -1.2547
   21SAPC   H5X 2787   2.980  -0.115   9.244  3.3505 -0.0814 -0.0304
   21SAPC   H5Y 2788   3.113  -0.015   9.237 -0.4376 -0.0989 -1.5789
   21SAPC   C36 2789   2.976   0.020   9.066 -1.2928  0.4624  0.6226
   21SAPC   H6X 2790   2.988   0.128   9.041  3.1832  0.0300  0.4322
   21SAPC   H6Y 2791   2.868   0.003   9.045 -0.6390 -1.3290 -1.5399
   21SAPC   C37 2792   3.064  -0.077   8.982 -0.0006  0.6919  0.3710
   21SAPC   H7X 2793   3.028  -0.182   8.982 -2.2037  1.4115 -0.0354
   21SAPC   H7Y 2794   3.169  -0.072   9.018 -0.6821  1.9959  2.2828
   21SAPC   C38 2795   3.069  -0.034   8.834 -0.1136  0.0529 -0.8956
   21SAPC   H8X 2796   3.138   0.052   8.822 -1.4463  0.8560 -3.0037
   21SAPC   H8Y 2797   2.966  -0.007   8.803  0.3123  1.2422 -1.2857
   21SAPC   C39 2798   3.132  -0.149   8.754  0.0221  0.0063  0.2107
   21SAPC   H9X 2799   3.123  -0.118   8.648  4.3518 -0.7797 -0.4806
   21SAPC   H9Y 2800   3.062  -0.234   8.765 -1.2950  0.2515 -4.9920
   21SAPC  C310 2801   3.275  -0.202   8.779 -0.3400  0.5599 -0.0214
   21SAPC  H10X 2802   3.280  -0.236   8.885  0.0040 -1.3351 -0.6386
   21SAPC  H10Y 2803   3.352  -0.122   8.769  0.8372 -0.2168  2.3217
   21SAPC  C311 2804   3.318  -0.326   8.695 -0.1511  0.0624  0.5034
   21SAPC  H11X 2805   3.223  -0.383   8.687 -0.7361  0.8765  1.5022
   21SAPC  H11Y 2806   3.382  -0.398   8.749 -0.3435  0.1551  0.8547
   21SAPC  C312 2807   3.373  -0.297   8.559 -0.2791 -0.0505  0.0849
   21SAPC  H12X 2808   3.477  -0.257   8.569 -0.1793 -0.1627 -0.5236
   21SAPC  H12Y 2809   3.318  -0.223   8.499  1.3481 -0.6999 -2.2694
   21SAPC  C313 2810   3.386  -0.419   8.465  0.3755  0.0909 -0.6268
   21SAPC  H13X 2811   3.283  -0.458   8.451  0.3456  0.4413 -1.3791
   21SAPC  H13Y 2812   3.436  -0.498   8.524 -0.7281 -0.0581  0.1361
   21SAPC  C314 2813   3.445  -0.379   8.326 -0.4465  0.0325 -0.5516
   21SAPC  H14X 2814   3.395  -0.284   8.296 -1.6741  0.1271  1.6801
   21SAPC  H14Y 2815   3.414  -0.459   8.256  0.9559 -0.8713 -0.1515
   21SAPC  C315 2816   3.591  -0.360   8.314  0.4998  0.2625  0.0703
   21SAPC  H15X 2817   3.643  -0.408   8.228 -1.9494 -1.9125 -0.2351
   21SAPC  H15Y 2818   3.644  -0.402   8.403 -0.6054  0.5812  0.8763
   21SAPC  C316 2819   3.629  -0.217   8.308 -0.5755 -0.5439  0.5868
   21SAPC  H16X 2820   3.696  -0.189   8.393 -2.4712  0.0949  1.8919
   21SAPC  H16Y 2821   3.539  -0.157   8.334 -2.1542 -3.3049  1.6707
   21SAPC  C317 2822   3.694  -0.172   8.181  0.1298 -0.0528  0.2099
   21SAPC  H17X 2823   3.671  -0.065   8.166  2.1064  0.6817  2.2130
   21SAPC  H17Y 2824   3.638  -0.226   8.102 -0.5902 -0.6171  1.0801
   21SAPC  C318 2825   3.843  -0.204   8.166  0.1963  0.4901  0.4000
   21SAPC  H18X 2826   3.899  -0.144   8.241  0.1139  0.1161  0.7611
   21SAPC  H18Y 2827   3.885  -0.170   8.069  0.4911 -0.1692  0.2923
   21SAPC  H18Z 2828   3.877  -0.308   8.185  1.4139  0.3868 -2.1241
   22SAPC     N 2829   1.072   6.288  10.308  0.2912 -0.2420 -0.2760
   22SAPC   C12 2830   0.996   6.302  10.176  0.0953 -0.6409 -0.4118
   22SAPC  H12A 2831   0.899   6.344  10.200 -1.4433 -3.1952 -1.9167
   22SAPC  H12B 2832   0.976   6.208  10.127 -0.0278 -1.6074  1.4385
   22SAPC   C13 2833   1.210   6.230  10.292 -0.0952  0.0092  0.0208
   22SAPC  H13A 2834   1.260   6.224  10.388 -0.0871  1.3251  0.1037
   22SAPC  H13B 2835   1.227   6.138  10.238  3.4810  0.4400  0.2616
   22SAPC  H13C 2836   1.266   6.306  10.238  0.3047  0.8388  1.5559
   22SAPC   C14 2837   1.085   6.416  10.384  0.4004  0.1018  0.2967
   22SAPC  H14A 2838   0.991   6.465  10.405 -0.1583 -0.3647 -1.1027
   22SAPC  H14B 2839   1.137   6.405  10.478  0.7661 -2.9001 -0.2198
   22SAPC  H14C 2840   1.148   6.486  10.331 -1.1585  0.6798 -0.8344
   22SAPC   C15 2841   0.995   6.189  10.392 -0.3960 -0.1098 -1.2778
   22SAPC  H15A 2842   0.971   6.101  10.335  0.2541 -0.2142 -1.3955
   22SAPC  H15B 2843   1.046   6.184  10.487 -2.7114 -0.6253 -0.0223
   22SAPC  H15C 2844   0.901   6.236  10.420  1.2086  1.8762  0.9871
   22SAPC   C11 2845   1.055   6.394  10.069 -0.7884 -0.6492 -0.5671
   22SAPC  H11A 2846   1.155   6.354  10.042  0.5496  0.6277  2.2595
   22SAPC  H11B 2847   1.068   6.492  10.120  3.0046 -2.1083  1.5234
   22SAPC     P 2848   0.952   6.293   9.865 -0.5722 -0.6338  0.1478
   22SAPC   O13 2849   1.089   6.282   9.808  0.4875 -0.5464 -0.0118
   22SAPC   O14 2850   0.909   6.170   9.936 -0.0773 -0.1644  0.2758
   22SAPC   O12 2851   0.958   6.412   9.967 -0.3238 -0.0636 -0.5186
   22SAPC   O11 2852   0.841   6.342   9.763  0.0376  0.3362  0.5156
   22SAPC    C1 2853   0.898   6.402   9.646 -0.6466 -0.0552 -0.0196
   22SAPC    HA 2854   0.945   6.500   9.667  2.2968 -1.3523 -0.2947
   22SAPC    HB 2855   0.962   6.328   9.592 -1.4350  0.1735 -1.3058
   22SAPC    C2 2856   0.804   6.457   9.536 -0.9158 -0.1720 -0.4939
   22SAPC    HS 2857   0.740   6.539   9.575  0.8989  0.1347  1.9610
   22SAPC   O21 2858   0.720   6.358   9.480 -0.2463 -0.9922 -0.2021
   22SAPC   C21 2859   0.611   6.342   9.548 -0.3083 -0.0251  0.0312
   22SAPC   O22 2860   0.572   6.413   9.640 -0.4949  0.2061  0.3420
   22SAPC   C22 2861   0.541   6.212   9.506 -0.1191 -0.5453  0.2799
   22SAPC   H2R 2862   0.577   6.178   9.406 -0.5463 -1.1991  0.3437
   22SAPC   H2S 2863   0.570   6.136   9.582 -0.2945 -2.1053 -1.1687
   22SAPC    C3 2864   0.883   6.518   9.414 -0.0659  0.4976 -0.2464
   22SAPC    HX 2865   0.948   6.600   9.450  0.6136 -0.7461  1.4222
   22SAPC    HY 2866   0.808   6.553   9.340 -1.1626 -1.1557  0.0461
   22SAPC   O31 2867   0.961   6.411   9.354 -0.0780 -0.1039  0.4736
   22SAPC   C31 2868   1.088   6.440   9.321  0.2485 -0.5994 -0.3054
   22SAPC   O32 2869   1.147   6.544   9.352  0.4280  0.0212 -0.1248
   22SAPC   C32 2870   1.152   6.325   9.246 -0.4975 -0.0426  0.4666
   22SAPC   H2X 2871   1.132   6.232   9.303 -0.6063  0.4318  1.2163
   22SAPC   H2Y 2872   1.261   6.346   9.250 -0.1992 -1.6149  0.9197
   22SAPC   C23 2873   0.387   6.241   9.496 -0.0883 -0.4778  0.5550
   22SAPC   H3R 2874   0.352   6.299   9.584 -0.2508 -1.4474  1.1316
   22SAPC   H3S 2875   0.331   6.145   9.491 -1.4863  0.3388  0.4435
   22SAPC   C24 2876   0.355   6.315   9.362  0.0002  0.3127 -0.6009
   22SAPC   H4R 2877   0.413   6.410   9.356 -0.2547  0.4658 -0.7027
   22SAPC   H4S 2878   0.248   6.340   9.380 -0.0621 -0.4394  0.0946
   22SAPC   C25 2879   0.367   6.240   9.231 -0.1278 -0.4502 -0.1191
   22SAPC   H5R 2880   0.310   6.147   9.222 -1.1333  0.2894 -1.6402
   22SAPC   C26 2881   0.432   6.283   9.117 -0.5383  0.2382  0.0119
   22SAPC   H6R 2882   0.438   6.219   9.028 -1.3365 -0.7054  0.6240
   22SAPC   C27 2883   0.514   6.406   9.086 -0.0027 -0.2310  0.2770
   22SAPC   H7R 2884   0.587   6.376   9.008  0.5757  0.6848  0.4598
   22SAPC   H7S 2885   0.580   6.424   9.174  0.4042  1.6072 -0.3782
   22SAPC   C28 2886   0.434   6.525   9.051  0.1240 -0.4112  0.0151
   22SAPC   H8R 2887   0.337   6.509   9.001 -0.4043  0.8047  0.6182
   22SAPC   C29 2888   0.462   6.653   9.082 -0.6849 -0.3168  0.3165
   22SAPC   H9R 2889   0.396   6.728   9.036  1.9732  1.3318 -0.9324
   22SAPC  C210 2890   0.584   6.702   9.157  0.3705  0.5739 -0.2208
   22SAPC  H10R 2891   0.588   6.654   9.257  2.2697  0.7584 -0.2031
   22SAPC  H10S 2892   0.561   6.809   9.178 -1.2813 -0.4008  3.3090
   22SAPC  C211 2893   0.719   6.700   9.088  0.0015  0.4322 -0.0950
   22SAPC  H11R 2894   0.726   6.632   9.002 -1.4980  0.5128 -0.2972
   22SAPC  C212 2895   0.820   6.783   9.110 -0.1356  0.3712  0.1256
   22SAPC  H12R 2896   0.916   6.764   9.061 -0.7016 -0.4358 -0.6771
   22SAPC  C213 2897   0.819   6.896   9.212 -0.0644  0.2826 -0.5495
   22SAPC  H13R 2898   0.741   6.873   9.288  0.3925 -0.8998 -0.4245
   22SAPC  H13S 2899   0.802   6.994   9.163 -3.0821  0.6581  1.0948
   22SAPC  C214 2900   0.956   6.893   9.279 -1.1355 -0.0659  0.6300
   22SAPC  H14R 2901   0.943   6.831   9.369 -0.0619 -0.1837  0.7161
   22SAPC  C215 2902   1.075   6.944   9.236 -0.1364  0.0755  0.4032
   22SAPC  H15R 2903   1.166   6.919   9.291  1.3840 -0.8029 -2.4057
   22SAPC  C216 2904   1.098   7.015   9.106  0.2700  0.8143  0.1722
   22SAPC  H16R 2905   1.098   7.125   9.114 -1.0670  0.7923  0.5376
   22SAPC  H16S 2906   1.003   6.995   9.053 -0.1171 -1.0212  1.4967
   22SAPC  C217 2907   1.223   6.965   9.029 -0.3861 -0.1911  0.1112
   22SAPC  H17R 2908   1.321   6.998   9.070  1.0311 -2.0703 -1.6361
   22SAPC  H17S 2909   1.213   7.018   8.931  2.0400 -3.1643 -1.8531
   22SAPC  C218 2910   1.236   6.815   9.000  0.3002  0.1304 -0.4550
   22SAPC  H18R 2911   1.135   6.789   8.963  0.4094  1.4565 -1.7165
   22SAPC  H18S 2912   1.251   6.756   9.093 -1.4602 -1.9265 -1.4362
   22SAPC  C219 2913   1.340   6.789   8.894 -0.7672  0.5376 -0.3677
   22SAPC  H19R 2914   1.432   6.830   8.942 -1.3191  2.7140 -1.1586
   22SAPC  H19S 2915   1.318   6.848   8.803 -2.3987 -0.7299 -0.8213
   22SAPC  C220 2916   1.349   6.637   8.870  0.3538  0.2108 -1.0462
   22SAPC  H20R 2917   1.249   6.601   8.838 -0.1477 -1.6143  2.3763
   22SAPC  H20S 2918   1.379   6.581   8.961  1.2744  2.4084  0.0380
   22SAPC  H20T 2919   1.419   6.610   8.789  2.2623  2.1213 -0.0954
   22SAPC   C33 2920   1.111   6.321   9.090  0.9243  0.0037  0.4286
   22SAPC   H3X 2921   1.192   6.256   9.051  0.4720  0.8901 -2.0791
   22SAPC   H3Y 2922   1.133   6.419   9.042  1.6706 -1.1604 -1.6612
   22SAPC   C34 2923   0.973   6.271   9.063 -0.2845  0.0012  0.3273
   22SAPC   H4X 2924   0.897   6.313   9.133 -1.1377  1.5610 -1.5017
   22SAPC   H4Y 2925   0.969   6.163   9.089  0.4407 -0.2492 -0.5668
   22SAPC   C35 2926   0.926   6.283   8.917 -0.5103  0.0486  0.4909
   22SAPC   H5X 2927   0.939   6.390   8.890 -1.6480  0.3916  1.3146
   22SAPC   H5Y 2928   0.816   6.272   8.919 -0.1988 -3.6291  0.8991
   22SAPC   C36 2929   0.993   6.190   8.816  0.3195  0.8375 -0.0374
   22SAPC   H6X 2930   0.997   6.081   8.835  0.3653  0.6524 -1.0586
   22SAPC   H6Y 2931   1.097   6.227   8.805  0.4050  0.2283 -1.5082
   22SAPC   C37 2932   0.931   6.203   8.673 -0.7184 -0.0407 -0.1456
   22SAPC   H7X 2933   0.941   6.313   8.659 -3.0784 -0.1611 -3.3713
   22SAPC   H7Y 2934   0.821   6.188   8.664 -0.6053 -0.1851 -1.2662
   22SAPC   C38 2935   1.023   6.138   8.567 -0.6567  0.1744 -0.0707
   22SAPC   H8X 2936   1.031   6.029   8.588 -2.3409  0.2789  1.1993
   22SAPC   H8Y 2937   1.124   6.182   8.577 -1.9214  2.7654  2.0512
   22SAPC   C39 2938   0.982   6.155   8.416  0.0041 -0.7028 -0.6802
   22SAPC   H9X 2939   1.008   6.259   8.388 -2.6844  0.3501  0.5098
   22SAPC   H9Y 2940   0.873   6.134   8.418  0.3887 -2.7251  0.2646
   22SAPC  C310 2941   1.057   6.050   8.331  0.2564  0.3361 -0.0282
   22SAPC  H10X 2942   1.045   5.952   8.382  2.3985  0.5958  1.0383
   22SAPC  H10Y 2943   1.167   6.065   8.332  0.2988  0.2708 -1.5493
   22SAPC  C311 2944   1.001   6.057   8.186 -0.1372  0.1970 -0.2807
   22SAPC  H11X 2945   1.054   6.131   8.122  0.6827  2.2704  2.6462
   22SAPC  H11Y 2946   0.892   6.073   8.201 -0.4725 -1.1754 -1.2363
   22SAPC  C312 2947   1.013   5.920   8.122  0.5985  0.3660  0.4636
   22SAPC  H12X 2948   0.941   5.915   8.038 -1.1667 -3.9020  2.0442
   22SAPC  H12Y 2949   0.976   5.834   8.182  1.0616 -1.2084 -1.4679
   22SAPC  C313 2950   1.152   5.886   8.080 -0.1563  0.2321 -0.0145
   22SAPC  H13X 2951   1.226   5.914   8.159  1.6690 -1.9335 -0.8925
   22SAPC  H13Y 2952   1.177   5.950   7.993 -2.2785  0.4415 -0.4875
   22SAPC  C314 2953   1.162   5.741   8.035  0.5525 -0.3601  0.3205
   22SAPC  H14X 2954   1.095   5.732   7.947 -0.0628  3.1477  0.3576
   22SAPC  H14Y 2955   1.131   5.684   8.125 -0.5742  0.5796  0.5419
   22SAPC  C315 2956   1.305   5.711   8.009  0.7681  0.0272 -0.7484
   22SAPC  H15X 2957   1.366   5.759   8.089  0.1529  0.6403 -0.6410
   22SAPC  H15Y 2958   1.332   5.755   7.911 -1.1595  2.2424 -0.3232
   22SAPC  C316 2959   1.326   5.559   8.006  0.0214  0.3460 -0.6153
   22SAPC  H16X 2960   1.263   5.525   7.921  0.2185 -2.9430  0.4903
   22SAPC  H16Y 2961   1.276   5.540   8.103 -1.6369  3.6051 -0.7529
   22SAPC  C317 2962   1.465   5.511   7.978 -0.0744 -0.5630  0.3396
   22SAPC  H17X 2963   1.504   5.545   7.880 -0.4253  2.2038  1.1132
   22SAPC  H17Y 2964   1.472   5.401   7.970 -3.2742 -0.8533  0.9824
   22SAPC  C318 2965   1.574   5.544   8.073  0.4730 -0.4205  0.4278
   22SAPC  H18X 2966   1.668   5.490   8.049 -0.1525 -1.0154 -0.7122
   22SAPC  H18Y 2967   1.537   5.516   8.175  0.7939  1.0938  0.9682
   22SAPC  H18Z 2968   1.600   5.652   8.068  0.5404 -0.5016 -1.2059
   23SAPC     N 2969   5.510   0.045  10.290 -0.0001 -0.1447 -0.3313
   23SAPC   C12 2970   5.526   0.095  10.152  0.1083 -1.3380 -0.2835
   23SAPC  H12A 2971   5.629   0.087  10.121  0.0482  1.3548 -1.3014
   23SAPC  H12B 2972   5.499   0.199  10.152  3.8025 -0.3118 -0.1436
   23SAPC   C13 2973   5.564  -0.093  10.294  0.3736  0.5471 -0.0096
   23SAPC  H13A 2974   5.551  -0.134  10.393 -0.0772 -0.3314 -0.4235
   23SAPC  H13B 2975   5.519  -0.166  10.227 -0.4686 -0.7030  1.8699
   23SAPC  H13C 2976   5.671  -0.093  10.279  0.3261 -2.0430 -0.6422
   23SAPC   C14 2977   5.606   0.129  10.375  0.0296  0.3326  0.6760
   23SAPC  H14A 2978   5.597   0.088  10.474  1.6483 -0.1690  0.6220
   23SAPC  H14B 2979   5.710   0.130  10.345 -0.6334 -0.9961 -1.8361
   23SAPC  H14C 2980   5.588   0.234  10.391 -0.0592  0.7167 -1.7055
   23SAPC   C15 2981   5.365   0.054  10.339  0.1426  0.3666 -0.0729
   23SAPC  H15A 2982   5.334   0.151  10.376  0.7908  0.1196  1.1430
   23SAPC  H15B 2983   5.292   0.021  10.266  1.3044  0.6213 -1.3760
   23SAPC  H15C 2984   5.358  -0.013  10.423 -1.1612 -0.3703 -0.7549
   23SAPC   C11 2985   5.448   0.011  10.043 -0.8283 -0.1399 -0.5681
   23SAPC  H11A 2986   5.483  -0.094  10.045  2.4520  0.8911 -0.8249
   23SAPC  H11B 2987   5.483   0.038   9.941  0.3132 -1.9347 -0.6625
   23SAPC     P 2988   5.229   0.149  10.026  0.0286  0.3681 -0.0232
   23SAPC   O13 2989   5.087   0.125  10.063  0.7163 -0.7017  0.4891
   23SAPC   O14 2990   5.298   0.263  10.098  0.0202 -0.0458 -0.1537
   23SAPC   O12 2991   5.306   0.014  10.055 -0.0490 -0.7418 -0.2744
   23SAPC   O11 2992   5.240   0.164   9.869  0.7091 -0.3490  0.1889
   23SAPC    C1 2993   5.215   0.051   9.787 -0.0450 -0.0766 -0.3561
   23SAPC    HA 2994   5.302  -0.018   9.783  1.6779  2.0241  0.1033
   23SAPC    HB 2995   5.131  -0.012   9.824  0.0233 -1.9970 -3.3199
   23SAPC    C2 2996   5.178   0.101   9.646 -0.6947 -0.1411  0.1707
   23SAPC    HS 2997   5.086   0.161   9.664  0.1281  1.6109 -1.2774
   23SAPC   O21 2998   5.171  -0.007   9.553 -0.5342 -0.2374  0.3658
   23SAPC   C21 2999   5.051  -0.055   9.539  0.0383  0.5959  0.0473
   23SAPC   O22 3000   4.948  -0.014   9.595 -0.0145  0.3689 -0.0411
   23SAPC   C22 3001   5.064  -0.175   9.440  0.6148 -0.0266 -0.2936
   23SAPC   H2R 3002   5.152  -0.179   9.373  1.6233  2.6751  0.8246
   23SAPC   H2S 3003   5.070  -0.260   9.512 -3.6660 -1.2005 -1.1635
   23SAPC    C3 3004   5.288   0.192   9.585 -0.7051 -0.4000 -0.3105
   23SAPC    HX 3005   5.282   0.285   9.645  2.3658  0.1036 -0.7003
   23SAPC    HY 3006   5.267   0.224   9.481  1.7667 -0.2182 -0.7994
   23SAPC   O31 3007   5.422   0.127   9.589  0.8111 -0.0373 -0.3677
   23SAPC   C31 3008   5.522   0.221   9.571 -0.2032 -0.5438  0.8236
   23SAPC   O32 3009   5.501   0.336   9.538  0.4175 -0.1186 -0.0934
   23SAPC   C32 3010   5.657   0.153   9.586 -0.3767 -0.5882  0.4808
   23SAPC   H2X 3011   5.635   0.045   9.568 -2.5619 -0.0087 -0.3716
   23SAPC   H2Y 3012   5.695   0.160   9.690 -1.1416 -2.9964  0.9653
   23SAPC   C23 3013   4.938  -0.200   9.355  0.7462  0.1976 -0.0904
   23SAPC   H3R 3014   4.845  -0.198   9.416  0.6966  1.0073 -0.1930
   23SAPC   H3S 3015   4.945  -0.301   9.310 -0.1164 -0.3787  1.0256
   23SAPC   C24 3016   4.919  -0.094   9.239 -0.6183 -0.0179 -0.1248
   23SAPC   H4R 3017   4.897   0.003   9.289 -0.3002 -1.2932  2.5862
   23SAPC   H4S 3018   4.822  -0.125   9.195 -1.4696 -2.6225  3.3696
   23SAPC   C25 3019   5.023  -0.085   9.132  0.6224 -0.4039 -0.0163
   23SAPC   H5R 3020   5.016  -0.163   9.055 -0.5724  0.3077 -0.6478
   23SAPC   C26 3021   5.128  -0.002   9.134  0.2992  0.5125  0.4199
   23SAPC   H6R 3022   5.202  -0.025   9.056 -0.0620 -0.6527  0.4191
   23SAPC   C27 3023   5.167   0.103   9.239  0.1450  0.2280 -0.4143
   23SAPC   H7R 3024   5.265   0.066   9.276 -0.8133  0.6757  2.7030
   23SAPC   H7S 3025   5.098   0.103   9.326  0.6767 -0.5849  0.0175
   23SAPC   C28 3026   5.196   0.239   9.191 -1.0631  0.6706  0.3232
   23SAPC   H8R 3027   5.120   0.313   9.217  0.4153  2.0889  0.7266
   23SAPC   C29 3028   5.309   0.270   9.118 -0.6578 -0.0917  0.6075
   23SAPC   H9R 3029   5.315   0.375   9.084  0.1423  0.2951  1.8956
   23SAPC  C210 3030   5.427   0.181   9.077  0.0342  0.0649  0.2095
   23SAPC  H10R 3031   5.436   0.085   9.133 -0.2947  1.2433  2.3481
   23SAPC  H10S 3032   5.518   0.241   9.102 -0.5760  1.2718 -0.4278
   23SAPC  C211 3033   5.424   0.165   8.929  0.4606  1.1830 -0.2695
   23SAPC  H11R 3034   5.371   0.073   8.900  1.4942 -0.1855  2.0944
   23SAPC  C212 3035   5.474   0.245   8.831 -0.0067  0.8062 -0.0293
   23SAPC  H12R 3036   5.460   0.225   8.724 -1.9433  1.6539  0.0441
   23SAPC  C213 3037   5.550   0.369   8.852 -0.3029 -0.8339  0.4844
   23SAPC  H13R 3038   5.523   0.412   8.950  0.6119  0.0938  0.3373
   23SAPC  H13S 3039   5.516   0.446   8.780  2.8259  0.3702  0.2415
   23SAPC  C214 3040   5.703   0.343   8.841 -0.3540  0.5485  0.0887
   23SAPC  H14R 3041   5.739   0.259   8.901 -1.0572 -1.2966 -2.0272
   23SAPC  C215 3042   5.794   0.400   8.756  0.1130 -0.0439 -0.2047
   23SAPC  H15R 3043   5.900   0.378   8.772  0.3193  1.8342  1.2286
   23SAPC  C216 3044   5.766   0.506   8.657  0.3559 -0.4618 -0.1241
   23SAPC  H16R 3045   5.831   0.595   8.671  0.7734 -0.8125  0.1558
   23SAPC  H16S 3046   5.664   0.549   8.672  1.1810  0.7162  2.4307
   23SAPC  C217 3047   5.774   0.454   8.514 -0.2018 -0.3118 -0.3040
   23SAPC  H17R 3048   5.675   0.407   8.496  0.9610 -3.1734  0.5237
   23SAPC  H17S 3049   5.863   0.392   8.489  0.1376  0.8806 -2.1993
   23SAPC  C218 3050   5.786   0.569   8.417 -0.4331 -0.4510  0.1753
   23SAPC  H18R 3051   5.882   0.624   8.425 -2.3580  2.6990  3.6829
   23SAPC  H18S 3052   5.699   0.635   8.438  1.0924  1.3666  0.9071
   23SAPC  C219 3053   5.767   0.525   8.271 -0.1569 -0.2627 -0.4056
   23SAPC  H19R 3054   5.740   0.613   8.209  1.1541 -0.0726 -0.7242
   23SAPC  H19S 3055   5.681   0.457   8.252  0.2662  0.1325 -4.1571
   23SAPC  C220 3056   5.894   0.476   8.210 -0.3287 -0.5549 -0.8074
   23SAPC  H20R 3057   5.941   0.391   8.264  2.1326  1.5915  0.5450
   23SAPC  H20S 3058   5.972   0.553   8.223  0.5481 -1.7520  1.2069
   23SAPC  H20T 3059   5.869   0.447   8.105 -2.4663 -2.5204  0.2005
   23SAPC   C33 3060   5.762   0.195   9.474 -0.5557 -0.2322  0.0542
   23SAPC   H3X 3061   5.865   0.177   9.510 -0.4736  1.4332  0.7106
   23SAPC   H3Y 3062   5.749   0.306   9.472 -2.1679 -0.3712  1.2437
   23SAPC   C34 3063   5.740   0.123   9.346 -0.0237 -0.0426  0.0692
   23SAPC   H4X 3064   5.665   0.180   9.287 -0.2742 -0.4662 -0.0217
   23SAPC   H4Y 3065   5.702   0.021   9.364  2.4801 -0.6452  2.2414
   23SAPC   C35 3066   5.862   0.134   9.256 -0.0362  0.3160  0.2144
   23SAPC   H5X 3067   5.956   0.087   9.293 -0.5982 -0.8410  0.1770
   23SAPC   H5Y 3068   5.876   0.239   9.221  0.4018  0.5891  1.2110
   23SAPC   C36 3069   5.822   0.072   9.119 -0.0861 -0.0707 -0.3316
   23SAPC   H6X 3070   5.722   0.111   9.090 -0.1373 -0.6411 -0.9311
   23SAPC   H6Y 3071   5.813  -0.038   9.136 -0.8806 -0.1231 -1.0735
   23SAPC   C37 3072   5.919   0.087   9.004 -0.6908  0.6590 -0.2672
   23SAPC   H7X 3073   6.018   0.060   9.047 -1.1838 -0.4701  0.1802
   23SAPC   H7Y 3074   5.921   0.196   8.982  0.5724  0.8982  0.9652
   23SAPC   C38 3075   5.899   0.020   8.867 -0.7434  0.4680 -0.2959
   23SAPC   H8X 3076   5.799   0.047   8.827 -0.1643  2.3910 -0.4755
   23SAPC   H8Y 3077   5.898  -0.090   8.880  1.9752  0.7108  2.4870
   23SAPC   C39 3078   6.010   0.059   8.760  0.3056  0.5291 -0.0119
   23SAPC   H9X 3079   6.101   0.025   8.815  0.2559  0.8557  0.2788
   23SAPC   H9Y 3080   6.022   0.168   8.738  2.4539 -0.3258 -3.4144
   23SAPC  C310 3081   5.988   0.006   8.617  0.5875  0.3867  0.4814
   23SAPC  H10X 3082   5.996  -0.104   8.604 -1.9084  0.1676  0.6462
   23SAPC  H10Y 3083   6.064   0.058   8.555  0.1920  2.7834  1.9285
   23SAPC  C311 3084   5.852   0.045   8.567 -0.0536 -0.4079  0.0517
   23SAPC  H11X 3085   5.819   0.134   8.624  0.1289 -0.6827  0.5835
   23SAPC  H11Y 3086   5.782  -0.037   8.594 -0.1459  0.1880  1.6462
   23SAPC  C312 3087   5.847   0.094   8.424  0.4184  0.1835 -0.3041
   23SAPC  H12X 3088   5.907   0.187   8.410 -0.6741  0.8048 -0.9079
   23SAPC  H12Y 3089   5.741   0.112   8.395 -0.8801 -2.2970  2.6104
   23SAPC  C313 3090   5.888  -0.021   8.324  0.7473 -0.2455  0.1599
   23SAPC  H13X 3091   5.825  -0.106   8.358  1.6989 -1.4947 -1.1379
   23SAPC  H13Y 3092   5.995  -0.047   8.343  0.9824  0.9484  0.5487
   23SAPC  C314 3093   5.871   0.024   8.177  1.1627  0.5296 -0.0493
   23SAPC  H14X 3094   5.937   0.110   8.154  1.5946 -0.4609 -2.7315
   23SAPC  H14Y 3095   5.766   0.062   8.174  1.5108  1.6253  1.1958
   23SAPC  C315 3096   5.889  -0.088   8.077  0.3024  0.4768  0.0352
   23SAPC  H15X 3097   5.834  -0.182   8.098  0.3265  0.0720 -1.5853
   23SAPC  H15Y 3098   5.996  -0.119   8.082  0.3216  0.5318 -0.0370
   23SAPC  C316 3099   5.843  -0.055   7.943 -0.0497 -0.1119 -0.2217
   23SAPC  H16X 3100   5.880   0.042   7.904 -0.7852  1.1452  2.0961
   23SAPC  H16Y 3101   5.732  -0.061   7.930  0.1635 -0.0600 -2.2082
   23SAPC  C317 3102   5.903  -0.157   7.837 -0.8507 -0.5856 -0.3407
   23SAPC  H17X 3103   5.827  -0.193   7.764  0.1695  1.5999 -2.5191
   23SAPC  H17Y 3104   5.933  -0.248   7.893 -1.8588 -0.9792 -0.4226
   23SAPC  C318 3105   6.010  -0.095   7.746  0.3613  0.5548 -0.7969
   23SAPC  H18X 3106   6.019  -0.152   7.652  1.9081 -1.1131  0.3275
   23SAPC  H18Y 3107   6.112  -0.094   7.792  0.4646 -1.5081 -0.9471
   23SAPC  H18Z 3108   5.992   0.013   7.727  1.0292  0.4371 -2.1451
   24SAPC     N 3109   7.272   6.614   9.842 -0.1303  0.1831 -0.3731
   24SAPC   C12 3110   7.382   6.610   9.942  0.3522 -0.7625  0.0886
   24SAPC  H12A 3111   7.466   6.649   9.886  0.7569 -1.6934  0.0473
   24SAPC  H12B 3112   7.401   6.508   9.972  0.3720 -1.2379 -1.4846
   24SAPC   C13 3113   7.267   6.748   9.781 -0.3541  0.5571  0.3070
   24SAPC  H13A 3114   7.361   6.775   9.736  0.1893  0.6643  1.4917
   24SAPC  H13B 3115   7.202   6.731   9.696  1.9065  0.1161 -1.3640
   24SAPC  H13C 3116   7.234   6.814   9.860 -0.0197 -0.3274  1.1846
   24SAPC   C14 3117   7.306   6.506   9.741  0.0846  0.2392  0.3574
   24SAPC  H14A 3118   7.410   6.509   9.712 -0.6351 -0.1989 -2.4310
   24SAPC  H14B 3119   7.287   6.406   9.776  0.4303  0.5513  1.4896
   24SAPC  H14C 3120   7.250   6.530   9.652  0.2998  0.7202  0.3463
   24SAPC   C15 3121   7.143   6.579   9.896  0.8027 -0.2398  0.2007
   24SAPC  H15A 3122   7.098   6.644   9.970  1.7867  0.1731  0.4512
   24SAPC  H15B 3123   7.072   6.586   9.815  0.5970  1.6690  0.5325
   24SAPC  H15C 3124   7.142   6.475   9.924  3.0249 -0.3492 -0.0160
   24SAPC   C11 3125   7.369   6.684  10.077  0.4692  0.2117  0.6755
   24SAPC  H11A 3126   7.469   6.676  10.123 -0.4356 -1.4760  2.4227
   24SAPC  H11B 3127   7.297   6.620  10.132 -0.2471 -0.3094 -0.8356
   24SAPC     P 3128   7.207   6.883  10.140  0.3315  0.0901  0.0081
   24SAPC   O13 3129   7.184   6.823  10.275  0.1635 -0.0377 -0.6449
   24SAPC   O14 3130   7.216   7.033  10.136 -1.4561  0.2120 -0.0185
   24SAPC   O12 3131   7.332   6.822  10.070  0.0119  0.0344  0.6834
   24SAPC   O11 3132   7.093   6.832  10.037  0.2791 -0.2163 -0.1204
   24SAPC    C1 3133   6.959   6.848  10.080  0.0634 -0.3178  0.2509
   24SAPC    HA 3134   6.933   6.784  10.167 -1.0864 -1.4093 -0.8852
   24SAPC    HB 3135   6.938   6.956  10.098 -1.6064 -0.6420  0.3213
   24SAPC    C2 3136   6.856   6.807   9.968 -0.5882  0.3290  0.0805
   24SAPC    HS 3137   6.865   6.697   9.953  1.1914  0.4146  0.3732
   24SAPC   O21 3138   6.896   6.874   9.839  0.2698  0.1708  0.0638
   24SAPC   C21 3139   6.831   6.845   9.731 -0.2027  0.0212 -0.1770
   24SAPC   O22 3140   6.757   6.746   9.723 -0.0945 -0.2680  0.1823
   24SAPC   C22 3141   6.846   6.957   9.629  0.0285  0.1874  0.8329
   24SAPC   H2R 3142   6.818   7.049   9.684  3.4757  0.3375  2.4788
   24SAPC   H2S 3143   6.951   6.960   9.594 -0.4934  0.7743 -0.6858
   24SAPC    C3 3144   6.712   6.839   9.999  1.0519  0.3240 -0.7528
   24SAPC    HX 3145   6.681   6.785  10.091 -1.5353 -1.4984 -2.6174
   24SAPC    HY 3146   6.640   6.802   9.922  0.8973  1.9179 -1.3886
   24SAPC   O31 3147   6.699   6.984  10.016  0.0989  0.1542 -0.1080
   24SAPC   C31 3148   6.573   7.031  10.034 -0.7561  0.0307  0.3392
   24SAPC   O32 3149   6.470   6.958  10.033 -0.3934  0.3205 -0.0666
   24SAPC   C32 3150   6.578   7.183  10.059  0.0266  0.1821  0.3395
   24SAPC   H2X 3151   6.679   7.216  10.025 -1.3672  0.5103 -3.8834
   24SAPC   H2Y 3152   6.576   7.207  10.167  2.3261  1.1523  0.2002
   24SAPC   C23 3153   6.755   6.951   9.507 -0.0809  0.2398  0.0622
   24SAPC   H3R 3154   6.763   7.046   9.450  0.4347 -0.1021 -0.4413
   24SAPC   H3S 3155   6.648   6.939   9.534  0.1117  2.4446  1.9022
   24SAPC   C24 3156   6.779   6.838   9.401  0.2565 -0.4691  0.5979
   24SAPC   H4R 3157   6.792   6.742   9.456  1.9451 -0.1620  0.7403
   24SAPC   H4S 3158   6.876   6.859   9.353 -0.5309 -0.1339 -0.8687
   24SAPC   C25 3159   6.660   6.836   9.310 -0.6672 -0.3564  0.3628
   24SAPC   H5R 3160   6.563   6.805   9.352  0.5938 -1.4416  2.5324
   24SAPC   C26 3161   6.661   6.880   9.182 -0.5915 -0.1828  0.9338
   24SAPC   H6R 3162   6.565   6.902   9.133 -0.1552 -1.3200 -0.4423
   24SAPC   C27 3163   6.784   6.946   9.119 -0.7002 -0.7288  0.0813
   24SAPC   H7R 3164   6.875   6.885   9.134 -0.7821 -0.8236  0.2058
   24SAPC   H7S 3165   6.803   7.047   9.160 -1.5795 -0.3463 -0.4241
   24SAPC   C28 3166   6.782   6.970   8.971  0.5148 -0.2700 -0.0094
   24SAPC   H8R 3167   6.722   7.058   8.942 -0.8603 -0.9643  0.6696
   24SAPC   C29 3168   6.845   6.898   8.878  0.1363 -0.2484 -0.9177
   24SAPC   H9R 3169   6.826   6.922   8.772 -0.0185  0.2911 -0.7656
   24SAPC  C210 3170   6.929   6.778   8.900 -1.1239  0.3705  0.5503
   24SAPC  H10R 3171   6.875   6.692   8.854  1.7629 -1.6895  0.8477
   24SAPC  H10S 3172   6.929   6.748   9.007 -0.0969  1.4390  0.8579
   24SAPC  C211 3173   7.070   6.795   8.849 -0.2667 -0.3835 -0.5237
   24SAPC  H11R 3174   7.113   6.888   8.889 -0.0770 -1.3062  1.4641
   24SAPC  C212 3175   7.121   6.745   8.733  0.1330 -1.0667  0.4727
   24SAPC  H12R 3176   7.226   6.765   8.706  0.2429 -1.3139  0.7244
   24SAPC  C213 3177   7.050   6.662   8.633 -0.4240  0.5973  0.3933
   24SAPC  H13R 3178   7.008   6.733   8.560 -0.9629 -0.8293 -0.7160
   24SAPC  H13S 3179   6.963   6.607   8.677  1.1146 -1.8827  0.4526
   24SAPC  C214 3180   7.148   6.564   8.573  0.1584 -0.5867  0.4817
   24SAPC  H14R 3181   7.197   6.494   8.641 -1.1853 -0.3245  1.7501
   24SAPC  C215 3182   7.183   6.560   8.445 -0.3263 -0.6480 -0.1692
   24SAPC  H15R 3183   7.274   6.506   8.416 -0.5626 -1.0469 -0.1650
   24SAPC  C216 3184   7.130   6.653   8.336  0.9569 -0.6228 -0.4221
   24SAPC  H16R 3185   7.027   6.684   8.361  1.8705  1.0186  1.4113
   24SAPC  H16S 3186   7.139   6.612   8.233  0.2044 -2.7457  0.3354
   24SAPC  C217 3187   7.203   6.792   8.339 -0.2255 -0.3344  0.4577
   24SAPC  H17R 3188   7.311   6.770   8.329 -0.5234 -1.9259  0.5814
   24SAPC  H17S 3189   7.197   6.845   8.436 -0.8957 -1.0098  0.7963
   24SAPC  C218 3190   7.147   6.888   8.231  0.4954 -0.4185 -0.7105
   24SAPC  H18R 3191   7.044   6.927   8.247  0.6723  0.2924 -1.2580
   24SAPC  H18S 3192   7.158   6.837   8.133 -5.4442  0.7012 -2.1606
   24SAPC  C219 3193   7.236   7.012   8.217 -0.5709 -0.2896  0.1328
   24SAPC  H19R 3194   7.188   7.074   8.137 -0.2655  2.0737  1.7329
   24SAPC  H19S 3195   7.335   6.981   8.177 -0.2553  0.6522  0.1519
   24SAPC  C220 3196   7.254   7.093   8.341 -0.0730  0.9552  0.0268
   24SAPC  H20R 3197   7.155   7.113   8.388 -0.1685 -0.0890  0.2899
   24SAPC  H20S 3198   7.278   7.192   8.298 -0.7025  0.9689 -0.2913
   24SAPC  H20T 3199   7.332   7.052   8.409 -2.3985 -0.1390  2.1463
   24SAPC   C33 3200   6.480   7.265   9.975 -0.2601  0.0921  0.8471
   24SAPC   H3X 3201   6.489   7.371  10.009  1.2598 -0.2608  1.5609
   24SAPC   H3Y 3202   6.372   7.243   9.988 -1.0246  1.5393 -2.4711
   24SAPC   C34 3203   6.510   7.265   9.828 -0.6131 -0.2431  0.6322
   24SAPC   H4X 3204   6.418   7.285   9.768 -1.6737 -3.4847  1.0855
   24SAPC   H4Y 3205   6.554   7.167   9.800  0.1522  0.5932 -1.2512
   24SAPC   C35 3206   6.608   7.376   9.791  0.4467 -0.6815 -0.4201
   24SAPC   H5X 3207   6.700   7.378   9.853  0.6313 -1.6835 -0.6604
   24SAPC   H5Y 3208   6.558   7.474   9.803 -0.1835 -0.9076 -1.0874
   24SAPC   C36 3209   6.646   7.392   9.641 -0.0209  0.8302  0.3202
   24SAPC   H6X 3210   6.562   7.442   9.589 -2.2311 -2.4287  0.6385
   24SAPC   H6Y 3211   6.667   7.293   9.594  0.2892  0.9697  0.1613
   24SAPC   C37 3212   6.779   7.465   9.615 -0.6953 -0.0684  0.0384
   24SAPC   H7X 3213   6.869   7.403   9.636 -0.5215  0.4793  0.9737
   24SAPC   H7Y 3214   6.788   7.549   9.687  0.3628 -0.1653  0.0357
   24SAPC   C38 3215   6.790   7.510   9.467 -0.3060  0.4170 -0.2067
   24SAPC   H8X 3216   6.885   7.566   9.451  0.9879 -0.7754  2.9132
   24SAPC   H8Y 3217   6.708   7.581   9.444  1.4746  1.0823 -5.0952
   24SAPC   C39 3218   6.782   7.389   9.365 -0.0563  0.4398  0.6472
   24SAPC   H9X 3219   6.694   7.322   9.367  1.0688 -1.0594  0.8865
   24SAPC   H9Y 3220   6.873   7.327   9.377 -1.0962 -1.1678  0.3400
   24SAPC  C310 3221   6.814   7.444   9.228  0.2535  0.0921  0.4104
   24SAPC  H10X 3222   6.900   7.514   9.221 -0.0827  0.6129  1.3185
   24SAPC  H10Y 3223   6.727   7.502   9.192  0.0691 -0.2242  0.3436
   24SAPC  C311 3224   6.849   7.328   9.129  0.0236  1.1792  0.8504
   24SAPC  H11X 3225   6.754   7.275   9.107  1.9445 -1.6106 -1.1718
   24SAPC  H11Y 3226   6.921   7.262   9.181 -1.4191 -1.4245 -0.3460
   24SAPC  C312 3227   6.920   7.363   8.997 -0.7864 -0.1019  0.4274
   24SAPC  H12X 3228   6.948   7.276   8.933 -1.0339 -0.6772  1.0894
   24SAPC  H12Y 3229   7.009   7.415   9.037 -1.3401  1.3314 -0.1873
   24SAPC  C313 3230   6.845   7.471   8.916 -0.0318 -0.2036 -0.2679
   24SAPC  H13X 3231   6.817   7.560   8.977  2.5925  1.7901 -1.8698
   24SAPC  H13Y 3232   6.752   7.418   8.885  1.2944 -2.2585 -0.7817
   24SAPC  C314 3233   6.916   7.524   8.788  0.4245  0.4426  0.4729
   24SAPC  H14X 3234   7.003   7.591   8.804 -0.5755  1.9290 -0.3132
   24SAPC  H14Y 3235   6.841   7.570   8.721 -0.7732 -3.5108 -1.0438
   24SAPC  C315 3236   6.986   7.401   8.705  0.3054 -1.1549 -0.2367
   24SAPC  H15X 3237   7.072   7.357   8.760  1.4369  0.0657 -0.9827
   24SAPC  H15Y 3238   7.029   7.446   8.613  2.2623 -1.6989  0.3984
   24SAPC  C316 3239   6.891   7.288   8.652 -0.3652  0.1673 -0.9328
   24SAPC  H16X 3240   6.815   7.339   8.589 -2.1185 -2.7392 -1.2551
   24SAPC  H16Y 3241   6.834   7.246   8.737  0.3139 -0.5413 -0.8263
   24SAPC  C317 3242   6.958   7.175   8.577 -0.6008  0.2083  0.5334
   24SAPC  H17X 3243   7.038   7.141   8.647 -2.1176 -1.9830  1.2744
   24SAPC  H17Y 3244   6.997   7.211   8.480 -2.4679 -1.1151 -0.7574
   24SAPC  C318 3245   6.856   7.071   8.537 -0.1239  0.5253 -0.1831
   24SAPC  H18X 3246   6.900   6.979   8.494  1.1078 -0.0130  2.1499
   24SAPC  H18Y 3247   6.787   7.113   8.461 -0.3535 -0.1759 -0.3679
   24SAPC  H18Z 3248   6.790   7.042   8.621  0.4128 -1.6714 -0.4784
   25SAPC     N 3249   4.570   3.919   6.047  0.5711  0.2023  0.5587
   25SAPC   C12 3250   4.699   3.920   6.131  0.3736  0.7766  0.2024
   25SAPC  H12A 3251   4.784   3.893   6.070  1.4341  0.8588  1.6286
   25SAPC  H12B 3252   4.697   3.848   6.211 -0.7730  3.7987  2.9801
   25SAPC   C13 3253   4.550   3.777   5.998 -0.2123 -0.3934  0.2510
   25SAPC  H13A 3254   4.643   3.749   5.950 -0.2634 -0.9980  0.4974
   25SAPC  H13B 3255   4.535   3.706   6.078  2.5768 -0.4062  0.8293
   25SAPC  H13C 3256   4.466   3.774   5.931  1.4121  0.0559 -1.8658
   25SAPC   C14 3257   4.454   3.957   6.134  0.5362  0.0802  0.2539
   25SAPC  H14A 3258   4.429   3.884   6.211  0.3341 -0.4365 -0.2983
   25SAPC  H14B 3259   4.486   4.049   6.181 -1.3518  0.0188  1.7310
   25SAPC  H14C 3260   4.360   3.970   6.083  0.1610  1.5275  1.2968
   25SAPC   C15 3261   4.598   4.009   5.935  0.4177 -0.4847  0.5654
   25SAPC  H15A 3262   4.667   3.972   5.860  1.9150  1.2749  1.0317
   25SAPC  H15B 3263   4.513   4.047   5.880 -0.2248 -1.5079  0.8344
   25SAPC  H15C 3264   4.644   4.097   5.978  0.5383 -0.5849  0.6410
   25SAPC   C11 3265   4.742   4.050   6.208  0.7554 -1.1211 -0.2625
   25SAPC  H11A 3266   4.851   4.041   6.226  1.0646 -1.1714 -1.9860
   25SAPC  H11B 3267   4.698   4.048   6.310  2.0197 -1.6412  0.2824
   25SAPC     P 3268   4.630   4.283   6.173 -0.0304 -0.4363  0.1172
   25SAPC   O13 3269   4.575   4.349   6.053  0.3073  0.1666  0.0966
   25SAPC   O14 3270   4.522   4.230   6.258 -0.5799 -0.6454 -0.2891
   25SAPC   O12 3271   4.724   4.170   6.129  0.1133 -0.1717  0.1220
   25SAPC   O11 3272   4.716   4.383   6.259  0.4370  0.1759  0.0092
   25SAPC    C1 3273   4.840   4.445   6.204 -0.1323 -0.3045  1.0852
   25SAPC    HA 3274   4.923   4.370   6.206 -0.9761 -1.3094 -0.3642
   25SAPC    HB 3275   4.840   4.464   6.094  1.3368 -0.9884  0.9447
   25SAPC    C2 3276   4.880   4.579   6.278 -1.0429 -0.3729  0.4060
   25SAPC    HS 3277   4.987   4.605   6.269 -1.0510 -0.4700  0.0182
   25SAPC   O21 3278   4.850   4.564   6.420 -0.0345 -0.1652  0.5217
   25SAPC   C21 3279   4.923   4.469   6.481 -0.2655 -0.2127 -0.1641
   25SAPC   O22 3280   5.034   4.432   6.441 -0.3715  0.1546  0.2267
   25SAPC   C22 3281   4.843   4.410   6.594 -0.3763  0.2100  0.5417
   25SAPC   H2R 3282   4.880   4.454   6.689  1.5962  1.5930 -0.8172
   25SAPC   H2S 3283   4.734   4.425   6.578 -0.7533 -0.4881  2.4000
   25SAPC    C3 3284   4.801   4.702   6.224 -0.7204  0.6734 -0.1022
   25SAPC    HX 3285   4.829   4.712   6.117  0.0839 -0.8357 -0.0417
   25SAPC    HY 3286   4.832   4.795   6.277 -0.8953 -1.3399  3.7276
   25SAPC   O31 3287   4.660   4.679   6.244 -0.0144 -0.4222  0.9608
   25SAPC   C31 3288   4.617   4.726   6.374 -0.5968  0.4552  0.6255
   25SAPC   O32 3289   4.686   4.803   6.441  0.2397 -0.4168  0.0543
   25SAPC   C32 3290   4.478   4.677   6.393 -0.2476 -0.5151  1.1505
   25SAPC   H2X 3291   4.475   4.566   6.392  1.8820 -0.6029 -0.5491
   25SAPC   H2Y 3292   4.430   4.711   6.298  1.8947  1.5053  0.7420
   25SAPC   C23 3293   4.865   4.258   6.607 -0.3666 -0.1442 -0.4157
   25SAPC   H3R 3294   4.954   4.243   6.672 -1.1253 -0.3924  0.5685
   25SAPC   H3S 3295   4.892   4.215   6.508  0.5319 -0.1069 -0.1909
   25SAPC   C24 3296   4.754   4.174   6.677 -0.2955 -0.3381 -0.4840
   25SAPC   H4R 3297   4.764   4.190   6.787 -1.3273 -1.2328 -0.2450
   25SAPC   H4S 3298   4.785   4.068   6.667 -0.0928 -0.1997 -1.3398
   25SAPC   C25 3299   4.617   4.189   6.609 -0.8361 -0.9294  1.3117
   25SAPC   H5R 3300   4.623   4.210   6.501  0.8493 -0.8498  1.4034
   25SAPC   C26 3301   4.513   4.229   6.671  0.4455  0.0847 -0.6430
   25SAPC   H6R 3302   4.418   4.234   6.616  1.0454 -0.0102 -1.6912
   25SAPC   C27 3303   4.499   4.267   6.816  0.3674  0.0749 -0.5836
   25SAPC   H7R 3304   4.426   4.350   6.831  2.0128  1.5687 -0.6566
   25SAPC   H7S 3305   4.591   4.320   6.849  0.5231 -0.5434 -0.0247
   25SAPC   C28 3306   4.467   4.155   6.912 -0.8952 -0.0737  0.4021
   25SAPC   H8R 3307   4.518   4.062   6.885 -1.0379  0.0089 -0.1555
   25SAPC   C29 3308   4.393   4.157   7.025  0.4174 -0.1929 -0.3630
   25SAPC   H9R 3309   4.362   4.059   7.064 -1.0803  0.6530  0.6566
   25SAPC  C210 3310   4.315   4.277   7.082 -0.0912 -0.2834  0.5849
   25SAPC  H10R 3311   4.266   4.330   6.998  1.7190  0.6859  0.1122
   25SAPC  H10S 3312   4.394   4.347   7.116  0.3845  0.2264 -1.4878
   25SAPC  C211 3313   4.225   4.233   7.195  0.0067  0.1818 -0.2194
   25SAPC  H11R 3314   4.143   4.166   7.164 -1.4571  1.1210  1.5013
   25SAPC  C212 3315   4.211   4.281   7.319 -0.2744 -0.1408 -0.0376
   25SAPC  H12R 3316   4.132   4.246   7.387 -0.8187  1.7034  0.3188
   25SAPC  C213 3317   4.292   4.393   7.368  0.3783  0.1928 -0.2434
   25SAPC  H13R 3318   4.309   4.473   7.293  1.1617 -0.9362 -1.2714
   25SAPC  H13S 3319   4.390   4.355   7.405  1.1999  0.5062 -2.0645
   25SAPC  C214 3320   4.225   4.466   7.483 -0.3787  0.3836 -0.1695
   25SAPC  H14R 3321   4.115   4.471   7.479 -0.2918  1.6106 -2.2467
   25SAPC  C215 3322   4.295   4.539   7.574 -0.1400 -0.1190 -0.2587
   25SAPC  H15R 3323   4.241   4.592   7.654 -0.7209 -1.9056  0.5723
   25SAPC  C216 3324   4.446   4.553   7.586 -0.1298 -0.4253  0.3309
   25SAPC  H16R 3325   4.470   4.649   7.535 -2.3552 -0.5472 -1.0060
   25SAPC  H16S 3326   4.506   4.473   7.539 -0.4108  0.1251 -0.9765
   25SAPC  C217 3327   4.504   4.555   7.730  0.2837  0.2181  0.2911
   25SAPC  H17R 3328   4.614   4.558   7.716  0.4797 -0.7558  1.5742
   25SAPC  H17S 3329   4.479   4.465   7.790  1.2184  1.3596  2.4106
   25SAPC  C218 3330   4.462   4.675   7.814 -0.0012  0.3370  0.5597
   25SAPC  H18R 3331   4.375   4.634   7.869  2.3986 -0.3683  3.9756
   25SAPC  H18S 3332   4.442   4.764   7.751  0.1384  0.1007  0.1726
   25SAPC  C219 3333   4.575   4.703   7.915  0.2729  0.2256  0.3647
   25SAPC  H19R 3334   4.660   4.753   7.864  0.0574  1.3273  1.0510
   25SAPC  H19S 3335   4.604   4.606   7.959 -0.4359  0.2513  0.9036
   25SAPC  C220 3336   4.524   4.793   8.025  0.1524  0.5423  0.3378
   25SAPC  H20R 3337   4.595   4.818   8.107  0.0353  0.2992  0.5135
   25SAPC  H20S 3338   4.432   4.758   8.077 -0.0884  0.1827 -0.3132
   25SAPC  H20T 3339   4.510   4.892   7.977 -1.2018  0.2058 -0.0059
   25SAPC   C33 3340   4.405   4.743   6.508  0.2215  0.8034  0.2592
   25SAPC   H3X 3341   4.296   4.719   6.507  0.0889  1.0441 -3.9228
   25SAPC   H3Y 3342   4.418   4.854   6.513  0.5540  0.7483  0.5343
   25SAPC   C34 3343   4.460   4.681   6.639  0.1769  0.2842 -0.1759
   25SAPC   H4X 3344   4.570   4.697   6.638  0.0719  1.2869  1.3150
   25SAPC   H4Y 3345   4.436   4.573   6.639 -0.5034  0.4327 -0.2155
   25SAPC   C35 3346   4.404   4.756   6.753  0.3692 -0.0724  0.3383
   25SAPC   H5X 3347   4.293   4.753   6.756  0.3750 -2.7825 -0.8231
   25SAPC   H5Y 3348   4.417   4.864   6.731 -1.1566  0.1157  0.2395
   25SAPC   C36 3349   4.443   4.722   6.900 -0.0850  0.8649  0.4702
   25SAPC   H6X 3350   4.545   4.678   6.898 -0.3915  0.0062  2.6541
   25SAPC   H6Y 3351   4.377   4.638   6.929  1.0223  0.2556  1.2579
   25SAPC   C37 3352   4.434   4.849   6.991 -0.4134  0.0828  0.6749
   25SAPC   H7X 3353   4.335   4.894   6.966  0.6386  1.3385 -1.4019
   25SAPC   H7Y 3354   4.512   4.926   6.973 -1.6981  1.4923  1.0468
   25SAPC   C38 3355   4.419   4.816   7.141  0.3141  0.1023  0.4554
   25SAPC   H8X 3356   4.516   4.770   7.169  0.5697  0.5096  0.2449
   25SAPC   H8Y 3357   4.338   4.740   7.148  2.0003 -2.0842 -2.3845
   25SAPC   C39 3358   4.372   4.925   7.232 -0.3177 -0.0267  0.2124
   25SAPC   H9X 3359   4.279   4.963   7.186 -0.0307  0.3530 -0.0634
   25SAPC   H9Y 3360   4.446   5.009   7.227  0.9935 -1.1480  0.5465
   25SAPC  C310 3361   4.358   4.890   7.377 -0.4807  0.5878 -0.0009
   25SAPC  H10X 3362   4.457   4.867   7.421 -0.0096  2.8624  0.1948
   25SAPC  H10Y 3363   4.285   4.807   7.394 -0.3344  0.9418  2.5998
   25SAPC  C311 3364   4.312   5.009   7.458  0.3362 -0.3324  0.5917
   25SAPC  H11X 3365   4.215   5.047   7.420  0.5575 -1.6280 -1.3252
   25SAPC  H11Y 3366   4.397   5.080   7.447  0.3652 -0.4333  0.1649
   25SAPC  C312 3367   4.295   4.989   7.611  0.1007 -0.0828 -0.2582
   25SAPC  H12X 3368   4.280   5.091   7.651  0.4195  0.4252 -1.4084
   25SAPC  H12Y 3369   4.396   4.953   7.640 -0.6012 -1.6789  0.2648
   25SAPC  C313 3370   4.179   4.898   7.640  0.4821  0.2198  0.4477
   25SAPC  H13X 3371   4.204   4.793   7.616 -0.0125  0.4220 -0.9990
   25SAPC  H13Y 3372   4.089   4.933   7.585  0.5500 -1.6863 -0.9234
   25SAPC  C314 3373   4.140   4.881   7.790  0.0791  0.0316  0.1096
   25SAPC  H14X 3374   4.126   4.983   7.831  0.7718  1.5523 -3.3123
   25SAPC  H14Y 3375   4.228   4.835   7.841  0.5919  2.7831  1.8031
   25SAPC  C315 3376   4.026   4.787   7.827 -0.1051  0.7969  0.4450
   25SAPC  H15X 3377   4.041   4.685   7.787 -0.3572  0.8115  0.3062
   25SAPC  H15Y 3378   3.932   4.807   7.772 -0.6763 -0.0499  1.1032
   25SAPC  C316 3379   4.000   4.765   7.976 -0.1484 -0.5392  0.0912
   25SAPC  H16X 3380   3.958   4.856   8.025  2.6221  1.5131 -1.2167
   25SAPC  H16Y 3381   4.091   4.726   8.026  0.7235  0.8267 -0.4196
   25SAPC  C317 3382   3.890   4.656   7.994 -0.5098 -0.1895 -0.1673
   25SAPC  H17X 3383   3.934   4.559   7.963 -1.1943 -0.0701 -1.5691
   25SAPC  H17Y 3384   3.809   4.671   7.920 -0.5599 -2.1809 -0.5448
   25SAPC  C318 3385   3.830   4.650   8.136  0.2351  0.1086  0.1719
   25SAPC  H18X 3386   3.911   4.627   8.208  1.4433 -0.0567 -1.1955
   25SAPC  H18Y 3387   3.755   4.568   8.138  0.0472  0.3066  1.0375
   25SAPC  H18Z 3388   3.777   4.742   8.165 -2.2002 -1.2528  0.1746
   26SAPC     N 3389   4.171   5.132   5.787 -0.2423 -0.2704  0.3743
   26SAPC   C12 3390   4.274   5.183   5.887 -0.2834  0.2075 -0.1886
   26SAPC  H12A 3391   4.358   5.224   5.833  0.1946 -1.2430 -0.5635
   26SAPC  H12B 3392   4.317   5.099   5.941  0.2049  1.1576  0.9286
   26SAPC   C13 3393   4.054   5.058   5.852 -0.8587 -0.6424 -0.0030
   26SAPC  H13A 3394   4.001   5.003   5.775 -1.7587 -0.2547  0.3334
   26SAPC  H13B 3395   4.090   4.993   5.930 -0.1749 -0.2673 -0.0076
   26SAPC  H13C 3396   3.976   5.127   5.881 -0.3808  0.1763 -0.6396
   26SAPC   C14 3397   4.137   5.252   5.702  0.2523  1.0831 -1.0796
   26SAPC  H14A 3398   4.218   5.279   5.636  0.4270  3.0743 -0.0950
   26SAPC  H14B 3399   4.048   5.243   5.641 -0.6840  0.5388  0.3426
   26SAPC  H14C 3400   4.123   5.336   5.769  3.8844  1.9546 -1.3152
   26SAPC   C15 3401   4.233   5.035   5.697 -0.8175 -0.4638 -0.2547
   26SAPC  H15A 3402   4.225   4.945   5.756 -1.8473  0.7433  1.5237
   26SAPC  H15B 3403   4.192   5.030   5.598 -0.7872 -0.4621 -0.2669
   26SAPC  H15C 3404   4.337   5.058   5.678 -0.5220 -1.0108  0.6453
   26SAPC   C11 3405   4.220   5.295   5.980  0.5737  0.3883  0.1605
   26SAPC  H11A 3406   4.279   5.295   6.075  0.4270 -2.0495  0.2797
   26SAPC  H11B 3407   4.115   5.272   6.008 -0.1456  2.7161 -0.5598
   26SAPC     P 3408   4.292   5.552   5.949  0.2501 -0.4217  0.5122
   26SAPC   O13 3409   4.402   5.512   6.035  0.1857 -0.2056 -0.0362
   26SAPC   O14 3410   4.334   5.634   5.832  0.2259 -0.1049  0.0846
   26SAPC   O12 3411   4.212   5.422   5.906  0.3276  0.2230 -0.2115
   26SAPC   O11 3412   4.186   5.639   6.035  0.2453 -0.5258 -0.3457
   26SAPC    C1 3413   4.123   5.579   6.151 -0.6908 -0.1226 -0.2989
   26SAPC    HA 3414   4.025   5.536   6.121 -0.3663  0.5510 -2.4200
   26SAPC    HB 3415   4.187   5.501   6.196  0.6693  1.4900  0.5898
   26SAPC    C2 3416   4.113   5.683   6.267  0.3960  0.5683  0.0062
   26SAPC    HS 3417   4.063   5.771   6.222  2.7334  1.3310 -1.1836
   26SAPC   O21 3418   4.252   5.710   6.319  0.6859  0.2032  0.1593
   26SAPC   C21 3419   4.266   5.818   6.387 -0.3558  0.0201  0.5513
   26SAPC   O22 3420   4.174   5.889   6.429  0.3998 -0.3051  0.3700
   26SAPC   C22 3421   4.416   5.837   6.417 -0.3937 -0.4680  0.5618
   26SAPC   H2R 3422   4.463   5.808   6.321  0.3178  0.6410  0.5631
   26SAPC   H2S 3423   4.422   5.948   6.425  2.6952 -0.5247 -0.2521
   26SAPC    C3 3424   4.028   5.629   6.391  0.1070 -0.3241 -0.0557
   26SAPC    HX 3425   3.924   5.605   6.361  0.1054 -0.5421  0.1191
   26SAPC    HY 3426   4.019   5.709   6.466  3.3460 -0.2798  0.3616
   26SAPC   O31 3427   4.079   5.511   6.455  0.7298 -0.2877  0.4275
   26SAPC   C31 3428   4.036   5.392   6.421  0.0671  0.5134 -0.0700
   26SAPC   O32 3429   3.934   5.372   6.361 -0.6279  0.3217  0.6513
   26SAPC   C32 3430   4.134   5.282   6.455  0.6955  0.5743 -0.6714
   26SAPC   H2X 3431   4.238   5.298   6.417  1.2968 -0.7655  0.3670
   26SAPC   H2Y 3432   4.115   5.182   6.412  1.8516  0.8557 -1.8846
   26SAPC   C23 3433   4.447   5.758   6.545 -0.1158  0.4882  0.6697
   26SAPC   H3R 3434   4.547   5.790   6.579  0.6270  0.9554 -1.8551
   26SAPC   H3S 3435   4.467   5.650   6.526 -2.7471 -0.0462  0.6994
   26SAPC   C24 3436   4.348   5.766   6.672  0.0731 -0.6235 -0.3137
   26SAPC   H4R 3437   4.255   5.717   6.634 -0.2629 -0.7962  0.7287
   26SAPC   H4S 3438   4.333   5.874   6.692 -0.6056 -0.7958  0.1333
   26SAPC   C25 3439   4.389   5.687   6.793  0.4979 -0.3540 -0.2055
   26SAPC   H5R 3440   4.394   5.578   6.782  0.0331 -0.5182  1.0631
   26SAPC   C26 3441   4.442   5.728   6.906  0.3640  0.2989  0.3454
   26SAPC   H6R 3442   4.471   5.652   6.979  0.4502 -1.4628 -1.4698
   26SAPC   C27 3443   4.484   5.869   6.942 -0.1053  0.6305 -0.3099
   26SAPC   H7R 3444   4.484   5.928   6.848  0.0208  0.7321 -0.2451
   26SAPC   H7S 3445   4.593   5.865   6.960 -0.3481 -1.9416  0.7870
   26SAPC   C28 3446   4.404   5.936   7.048  0.1650  0.2305 -0.0423
   26SAPC   H8R 3447   4.304   5.968   7.014  0.4258 -0.5226 -1.5503
   26SAPC   C29 3448   4.448   5.975   7.168 -0.1930 -0.1644 -0.3213
   26SAPC   H9R 3449   4.370   6.016   7.235  0.6268  0.3474  0.3310
   26SAPC  C210 3450   4.580   5.962   7.239 -0.9041 -0.2050 -0.2860
   26SAPC  H10R 3451   4.635   6.056   7.220  1.1928 -0.7609  2.6795
   26SAPC  H10S 3452   4.643   5.877   7.204 -2.3609 -0.5906 -2.0693
   26SAPC  C211 3453   4.556   5.941   7.388  0.7100 -0.2057 -0.9011
   26SAPC  H11R 3454   4.452   5.918   7.417  0.8762 -0.8181 -0.7759
   26SAPC  C212 3455   4.644   5.956   7.491 -0.2182 -0.0225 -0.1543
   26SAPC  H12R 3456   4.592   5.950   7.588  0.6429 -0.5899  0.2783
   26SAPC  C213 3457   4.793   6.001   7.490  0.6063 -0.2890 -0.0271
   26SAPC  H13R 3458   4.794   6.089   7.422  3.7989 -0.3161 -0.1012
   26SAPC  H13S 3459   4.853   5.927   7.433  0.3162 -1.6592  1.3939
   26SAPC  C214 3460   4.852   6.022   7.627  0.0575  0.3813  0.3679
   26SAPC  H14R 3461   4.929   5.947   7.650 -2.3622 -2.9069 -1.7364
   26SAPC  C215 3462   4.817   6.124   7.710  0.4422  0.2698 -0.3819
   26SAPC  H15R 3463   4.860   6.135   7.810 -1.4127  1.6707  0.2932
   26SAPC  C216 3464   4.714   6.223   7.663 -0.0816  0.4004 -0.4271
   26SAPC  H16R 3465   4.668   6.286   7.743 -0.5431 -0.7581  0.2277
   26SAPC  H16S 3466   4.621   6.168   7.639  0.2522 -1.3335  2.1673
   26SAPC  C217 3467   4.751   6.329   7.551  0.4331  0.3659 -0.6004
   26SAPC  H17R 3468   4.658   6.345   7.492 -0.1100 -1.5039 -0.3099
   26SAPC  H17S 3469   4.832   6.281   7.493 -1.1632 -2.5222 -0.5870
   26SAPC  C218 3470   4.797   6.458   7.614  0.1776  0.3679  0.2933
   26SAPC  H18R 3471   4.878   6.446   7.690 -0.6080  1.5613  1.3445
   26SAPC  H18S 3472   4.707   6.501   7.662  0.1467 -0.2243  0.7800
   26SAPC  C219 3473   4.857   6.550   7.510  0.2080 -0.6074 -0.2774
   26SAPC  H19R 3474   4.875   6.652   7.550  0.6478 -0.2645 -1.3290
   26SAPC  H19S 3475   4.770   6.565   7.442 -0.0641 -3.7675 -0.6779
   26SAPC  C220 3476   4.977   6.501   7.428  0.4119 -1.0253 -0.2530
   26SAPC  H20R 3477   4.936   6.426   7.356 -0.4481 -1.2176  0.4365
   26SAPC  H20S 3478   5.051   6.440   7.484  1.3867 -0.7734 -1.2533
   26SAPC  H20T 3479   5.030   6.583   7.373  0.5129  0.2801  1.7543
   26SAPC   C33 3480   4.148   5.275   6.606 -0.4525  0.5557  0.1448
   26SAPC   H3X 3481   4.193   5.368   6.648  2.1891 -1.1250  1.1935
   26SAPC   H3Y 3482   4.218   5.190   6.620 -1.1888 -0.1260 -0.3103
   26SAPC   C34 3483   4.011   5.236   6.664  0.0756 -0.3993 -0.3449
   26SAPC   H4X 3484   3.964   5.152   6.608 -1.6794 -0.4637  1.1931
   26SAPC   H4Y 3485   3.941   5.322   6.669  0.7449  0.3226 -3.0036
   26SAPC   C35 3486   4.020   5.190   6.811 -0.5745 -0.5823 -0.9868
   26SAPC   H5X 3487   4.106   5.120   6.814 -1.3281 -1.4916 -0.2092
   26SAPC   H5Y 3488   3.924   5.139   6.834 -0.2195 -0.6849  0.2955
   26SAPC   C36 3489   4.049   5.302   6.906  0.0189 -0.0712 -0.6399
   26SAPC   H6X 3490   3.969   5.379   6.911  0.9570  0.7435  2.4041
   26SAPC   H6Y 3491   4.145   5.354   6.887 -0.0325  0.6438  1.0443
   26SAPC   C37 3492   4.058   5.244   7.051  0.1269 -0.0646 -0.5134
   26SAPC   H7X 3493   4.140   5.170   7.056 -0.8045 -0.9858  1.7218
   26SAPC   H7Y 3494   3.963   5.188   7.068 -0.5383  0.6284 -1.8556
   26SAPC   C38 3495   4.069   5.352   7.152 -0.0855 -0.4280 -0.8105
   26SAPC   H8X 3496   3.991   5.426   7.125  2.0600  0.9213 -3.4644
   26SAPC   H8Y 3497   4.163   5.408   7.138  0.8062 -1.5874  0.3613
   26SAPC   C39 3498   4.062   5.278   7.290 -0.0314 -0.1944  0.3750
   26SAPC   H9X 3499   4.160   5.230   7.312 -2.0663 -3.5095  2.6543
   26SAPC   H9Y 3500   3.977   5.207   7.276 -0.4090  0.2545  0.3887
   26SAPC  C310 3501   4.012   5.362   7.412 -0.3011  0.3171 -0.6510
   26SAPC  H10X 3502   3.904   5.389   7.409  0.0504  2.1202  1.7148
   26SAPC  H10Y 3503   4.053   5.465   7.399  0.4429  0.0859 -0.1603
   26SAPC  C311 3504   4.061   5.297   7.538  0.5516 -0.4318 -0.1636
   26SAPC  H11X 3505   4.171   5.292   7.549  0.3587 -0.0037  2.1961
   26SAPC  H11Y 3506   4.010   5.198   7.541 -0.3687  0.0721  2.2713
   26SAPC  C312 3507   4.007   5.354   7.673  0.6941  0.5897  0.2217
   26SAPC  H12X 3508   3.912   5.308   7.707  1.7928 -0.6855  1.6569
   26SAPC  H12Y 3509   3.974   5.460   7.665  0.5315  0.4242 -1.5666
   26SAPC  C313 3510   4.105   5.336   7.786 -0.5564 -0.0602  0.1710
   26SAPC  H13X 3511   4.195   5.391   7.752 -0.6442 -0.5824 -0.9320
   26SAPC  H13Y 3512   4.131   5.229   7.801 -0.8114 -0.0137  0.9527
   26SAPC  C314 3513   4.070   5.410   7.913  0.8249 -0.8189 -0.3728
   26SAPC  H14X 3514   3.993   5.354   7.970  1.3116 -0.2249  0.9040
   26SAPC  H14Y 3515   4.017   5.504   7.888 -0.7263 -1.6380 -0.2140
   26SAPC  C315 3516   4.191   5.439   8.005 -0.1940  0.5341 -0.1053
   26SAPC  H15X 3517   4.258   5.496   7.937 -2.0556  0.1164 -2.3589
   26SAPC  H15Y 3518   4.243   5.346   8.035 -1.1024 -0.7039 -2.2690
   26SAPC  C316 3519   4.162   5.534   8.124 -0.5400 -0.0526 -0.2529
   26SAPC  H16X 3520   4.146   5.471   8.215 -0.9895 -0.9932 -0.9832
   26SAPC  H16Y 3521   4.075   5.595   8.092  0.9596  1.1258 -2.1521
   26SAPC  C317 3522   4.274   5.617   8.179 -0.2869 -0.0331 -0.6124
   26SAPC  H17X 3523   4.330   5.669   8.098 -0.9892 -0.8710 -1.6590
   26SAPC  H17Y 3524   4.345   5.554   8.237  0.4713  2.0963  0.8355
   26SAPC  C318 3525   4.214   5.734   8.264  0.0426 -0.3859 -0.0748
   26SAPC  H18X 3526   4.289   5.815   8.277  0.5289 -1.0214  1.0960
   26SAPC  H18Y 3527   4.192   5.698   8.367  2.3783  0.4782  0.7535
   26SAPC  H18Z 3528   4.121   5.772   8.217  0.8744  2.9635  0.9075
   27SAPC     N 3529   2.236   0.403   5.904 -1.0765 -0.4920  0.4808
   27SAPC   C12 3530   2.368   0.335   5.869 -0.4502 -0.9643 -0.4532
   27SAPC  H12A 3531   2.348   0.229   5.858 -1.2175 -0.7880 -0.7965
   27SAPC  H12B 3532   2.442   0.330   5.948  2.7300 -1.3789 -3.3583
   27SAPC   C13 3533   2.171   0.326   6.012 -0.2060 -0.5894 -0.4381
   27SAPC  H13A 3534   2.173   0.220   5.993  0.6902 -0.6619  0.0530
   27SAPC  H13B 3535   2.219   0.332   6.109 -0.5633  0.8113 -0.3384
   27SAPC  H13C 3536   2.072   0.357   6.041 -0.4796 -1.7840 -0.0474
   27SAPC   C14 3537   2.262   0.541   5.958 -0.2034 -0.3565  0.3011
   27SAPC  H14A 3538   2.312   0.528   6.053  0.0797  0.0878  0.2186
   27SAPC  H14B 3539   2.324   0.594   5.887 -1.7371  0.9163 -0.1122
   27SAPC  H14C 3540   2.171   0.597   5.976  0.5234  0.7211  0.7356
   27SAPC   C15 3541   2.143   0.396   5.783 -0.3009 -0.9805 -0.2347
   27SAPC  H15A 3542   2.150   0.490   5.730  0.6635 -2.4442 -2.7671
   27SAPC  H15B 3543   2.165   0.314   5.717 -0.4873 -0.3694 -1.0648
   27SAPC  H15C 3544   2.043   0.392   5.822 -0.3832 -2.1022 -0.5576
   27SAPC   C11 3545   2.446   0.384   5.749  0.6327  0.4464 -0.1898
   27SAPC  H11A 3546   2.384   0.385   5.657 -1.0816 -0.7178  0.9255
   27SAPC  H11B 3547   2.533   0.320   5.724  0.7937 -0.2325  1.9867
   27SAPC     P 3548   2.621   0.540   5.873  0.0005  0.2721  0.4134
   27SAPC   O13 3549   2.733   0.551   5.780  0.0451 -0.7563  0.1273
   27SAPC   O14 3550   2.584   0.656   5.965  0.0844 -0.0478  0.4268
   27SAPC   O12 3551   2.492   0.511   5.776 -0.4695 -0.1932 -0.1734
   27SAPC   O11 3552   2.622   0.405   5.948 -0.3533  0.1522 -0.6356
   27SAPC    C1 3553   2.738   0.379   6.032  0.0952  0.3118  1.4338
   27SAPC    HA 3554   2.830   0.383   5.969 -0.5928  0.4509  0.4359
   27SAPC    HB 3555   2.749   0.463   6.104 -1.0004  1.7886 -0.0774
   27SAPC    C2 3556   2.723   0.242   6.094 -0.1130  0.5103 -0.6401
   27SAPC    HS 3557   2.705   0.171   6.011  0.6479 -0.5597  0.1023
   27SAPC   O21 3558   2.606   0.257   6.179 -0.7110  0.1569  0.7745
   27SAPC   C21 3559   2.544   0.139   6.200  0.9208 -0.3557 -0.2925
   27SAPC   O22 3560   2.575   0.031   6.145  0.1876 -0.2756  0.1378
   27SAPC   C22 3561   2.427   0.160   6.287 -0.5350  0.3982  0.2450
   27SAPC   H2R 3562   2.448   0.253   6.345 -0.1458 -0.7512  2.0052
   27SAPC   H2S 3563   2.333   0.178   6.231  1.1751 -1.0361 -3.2629
   27SAPC    C3 3564   2.849   0.193   6.169 -0.6802  0.0540  0.1166
   27SAPC    HX 3565   2.922   0.175   6.088 -2.8820  1.8160 -2.3256
   27SAPC    HY 3566   2.840   0.091   6.213  1.0177  0.1974  0.8088
   27SAPC   O31 3567   2.892   0.298   6.254  0.2683 -0.7629 -0.2048
   27SAPC   C31 3568   2.851   0.303   6.377 -0.2196 -0.1816 -0.0619
   27SAPC   O32 3569   2.780   0.217   6.424  0.1061  0.1068  0.0845
   27SAPC   C32 3570   2.893   0.431   6.449 -0.0039 -0.4182  0.3240
   27SAPC   H2X 3571   2.937   0.505   6.378 -1.7183 -1.3210 -1.7652
   27SAPC   H2Y 3572   2.972   0.415   6.525  0.8364  2.9389  0.2405
   27SAPC   C23 3573   2.421   0.053   6.397 -0.3500  0.0292 -0.5951
   27SAPC   H3R 3574   2.523   0.034   6.437 -1.7023  1.0159  3.5787
   27SAPC   H3S 3575   2.388  -0.041   6.348 -0.4841 -0.2710  0.0646
   27SAPC   C24 3576   2.326   0.098   6.513  0.7135 -0.3905  0.2130
   27SAPC   H4R 3577   2.301   0.014   6.581  0.3213 -0.3923  0.0687
   27SAPC   H4S 3578   2.233   0.128   6.460  1.7092 -3.4261 -3.5236
   27SAPC   C25 3579   2.388   0.212   6.595  0.2604  0.1239  0.5313
   27SAPC   H5R 3580   2.423   0.293   6.529 -2.4158 -1.0546 -2.5041
   27SAPC   C26 3581   2.396   0.233   6.726 -0.2346 -0.0086 -0.4776
   27SAPC   H6R 3582   2.445   0.324   6.764  1.9009 -1.2758 -0.1133
   27SAPC   C27 3583   2.345   0.141   6.837 -0.0696  0.2256  0.1880
   27SAPC   H7R 3584   2.268   0.073   6.796  1.2371 -2.9980  2.8291
   27SAPC   H7S 3585   2.296   0.208   6.911 -0.7468 -1.7729  1.5947
   27SAPC   C28 3586   2.442   0.040   6.904  0.5016  0.3241 -0.4490
   27SAPC   H8R 3587   2.485  -0.033   6.833 -0.0945 -0.4502 -0.0156
   27SAPC   C29 3588   2.468   0.031   7.032  1.2960 -0.2874  0.0875
   27SAPC   H9R 3589   2.543  -0.044   7.059  0.3684 -2.0900 -2.2215
   27SAPC  C210 3590   2.409   0.119   7.139 -0.7275 -0.4521  0.4442
   27SAPC  H10R 3591   2.396   0.226   7.111 -3.3812 -0.6938  0.5617
   27SAPC  H10S 3592   2.480   0.115   7.224  0.7019 -1.1473 -0.7733
   27SAPC  C211 3593   2.271   0.068   7.175  0.2082  0.7943  0.1794
   27SAPC  H11R 3594   2.208   0.039   7.089 -2.2590 -0.3794  2.3029
   27SAPC  C212 3595   2.229   0.042   7.298  0.0956  0.2233 -0.1612
   27SAPC  H12R 3596   2.124   0.011   7.303 -0.4673  2.4237  2.5353
   27SAPC  C213 3597   2.312   0.058   7.429  0.2365 -0.3345  0.3244
   27SAPC  H13R 3598   2.265   0.143   7.483 -0.7975  0.0075 -1.0655
   27SAPC  H13S 3599   2.419   0.082   7.409 -0.2290  1.8992  0.4344
   27SAPC  C214 3600   2.308  -0.074   7.501  0.4976  0.3554  0.2639
   27SAPC  H14R 3601   2.286  -0.158   7.434  0.4342  0.5171  0.0852
   27SAPC  C215 3602   2.326  -0.095   7.628 -0.4231  0.2284  0.0721
   27SAPC  H15R 3603   2.317  -0.197   7.668  0.8876 -0.3356 -1.0490
   27SAPC  C216 3604   2.361   0.007   7.735 -0.5389 -0.1759 -0.6020
   27SAPC  H16R 3605   2.385   0.108   7.696 -0.0914 -0.6038 -1.4497
   27SAPC  H16S 3606   2.452  -0.025   7.792  1.1644  3.1545 -1.3455
   27SAPC  C217 3607   2.237   0.035   7.819  0.4052  0.2173 -0.0321
   27SAPC  H17R 3608   2.165   0.075   7.744  1.7663  0.8860 -0.9990
   27SAPC  H17S 3609   2.238   0.122   7.889  1.1025  0.1056  0.1000
   27SAPC  C218 3610   2.177  -0.077   7.907  0.3653  0.2804 -0.5679
   27SAPC  H18R 3611   2.254  -0.113   7.979 -1.3413 -3.6781 -0.6004
   27SAPC  H18S 3612   2.151  -0.160   7.839 -1.7162 -0.5179  1.1661
   27SAPC  C219 3613   2.046  -0.027   7.975  0.2294 -0.0917  0.0667
   27SAPC  H19R 3614   1.974  -0.008   7.893 -0.5163 -1.5838  0.3535
   27SAPC  H19S 3615   2.067   0.063   8.036  2.6379 -1.9673  2.1342
   27SAPC  C220 3616   1.984  -0.127   8.071  0.1896  0.3131 -0.5177
   27SAPC  H20R 3617   2.052  -0.160   8.152 -3.3437 -1.0031  2.0335
   27SAPC  H20S 3618   1.966  -0.227   8.027  0.7730 -0.5308  1.1401
   27SAPC  H20T 3619   1.886  -0.092   8.111  1.6323  2.4475  1.2891
   27SAPC   C33 3620   2.772   0.502   6.512 -0.9793  0.2552 -0.3637
   27SAPC   H3X 3621   2.719   0.428   6.575  0.1108 -0.5660 -0.3819
   27SAPC   H3Y 3622   2.712   0.526   6.422 -0.9501 -0.2478 -0.5186
   27SAPC   C34 3623   2.793   0.636   6.585  0.0153  0.6690  0.4919
   27SAPC   H4X 3624   2.759   0.718   6.518  1.1605 -0.5467 -1.6258
   27SAPC   H4Y 3625   2.902   0.646   6.601 -0.0070  1.1831  0.3072
   27SAPC   C35 3626   2.721   0.639   6.728 -0.1362  0.2769 -0.0193
   27SAPC   H5X 3627   2.611   0.635   6.716 -0.2086  0.1702  0.6771
   27SAPC   H5Y 3628   2.745   0.735   6.780  2.1162 -0.8700  1.1331
   27SAPC   C36 3629   2.777   0.537   6.830 -0.1310 -0.2261  0.3035
   27SAPC   H6X 3630   2.867   0.593   6.865 -0.4155  1.2724 -1.2710
   27SAPC   H6Y 3631   2.815   0.446   6.780  1.6714  0.2688  0.7236
   27SAPC   C37 3632   2.696   0.497   6.947 -0.3293  0.3392 -0.3233
   27SAPC   H7X 3633   2.599   0.460   6.907  0.0717 -0.4593 -0.5669
   27SAPC   H7Y 3634   2.660   0.587   7.002 -0.8084 -0.2848  0.3938
   27SAPC   C38 3635   2.772   0.396   7.043 -0.4475  0.2932 -0.3208
   27SAPC   H8X 3636   2.700   0.365   7.122 -1.4238  3.4907  0.1296
   27SAPC   H8Y 3637   2.852   0.450   7.098 -0.3463 -0.4728  0.2910
   27SAPC   C39 3638   2.825   0.270   6.970  0.4448 -0.2432 -0.0293
   27SAPC   H9X 3639   2.892   0.306   6.889  1.3931  0.2313  0.9420
   27SAPC   H9Y 3640   2.737   0.212   6.935  1.3116 -1.3552 -0.3709
   27SAPC  C310 3641   2.923   0.185   7.052  0.0614 -0.1696 -0.3151
   27SAPC  H10X 3642   2.864   0.142   7.136  0.0990 -0.3831 -0.3956
   27SAPC  H10Y 3643   3.008   0.247   7.086  0.5261 -0.8890 -0.1588
   27SAPC  C311 3644   2.973   0.066   6.968  0.5199 -0.0112  0.5685
   27SAPC  H11X 3645   3.032   0.008   7.043  0.6595 -0.7901 -0.1402
   27SAPC  H11Y 3646   3.038   0.101   6.885 -1.3430 -0.5250 -1.1264
   27SAPC  C312 3647   2.861  -0.021   6.903 -0.0047  0.2489 -0.4646
   27SAPC  H12X 3648   2.818   0.029   6.814  0.0559 -0.2910 -0.7978
   27SAPC  H12Y 3649   2.784  -0.026   6.983 -1.1285 -1.5566 -1.6297
   27SAPC  C313 3650   2.915  -0.162   6.870 -0.4831  0.9363 -0.2354
   27SAPC  H13X 3651   2.967  -0.147   6.773 -0.9585 -1.6838 -0.9351
   27SAPC  H13Y 3652   2.830  -0.231   6.849  0.1873 -0.3550  1.2011
   27SAPC  C314 3653   3.005  -0.230   6.972 -0.2207 -0.0674  0.3110
   27SAPC  H14X 3654   2.976  -0.212   7.078  1.9044 -0.3281  0.9434
   27SAPC  H14Y 3655   3.104  -0.182   6.964 -0.9942  1.6276  0.7337
   27SAPC  C315 3656   3.022  -0.383   6.951  0.7685  0.0047  0.1862
   27SAPC  H15X 3657   3.108  -0.418   7.012  2.3929 -0.5963 -2.3905
   27SAPC  H15Y 3658   3.052  -0.411   6.848 -1.2781  1.1303 -0.7430
   27SAPC  C316 3659   2.892  -0.460   6.986  0.3251  0.0794 -0.1418
   27SAPC  H16X 3660   2.799  -0.433   6.931  0.1427 -1.1686 -0.4770
   27SAPC  H16Y 3661   2.858  -0.422   7.085  1.3955  1.3120 -0.2393
   27SAPC  C317 3662   2.910  -0.614   6.996 -0.1628 -0.4558 -0.3768
   27SAPC  H17X 3663   3.001  -0.627   7.058  1.6706 -2.1087 -3.2785
   27SAPC  H17Y 3664   2.948  -0.657   6.901  0.7158  2.6257 -1.4969
   27SAPC  C318 3665   2.790  -0.692   7.047 -0.7934  0.6880  0.2733
   27SAPC  H18X 3666   2.706  -0.703   6.975  1.0145  0.5704 -1.8392
   27SAPC  H18Y 3667   2.751  -0.651   7.143 -0.5487  0.7726  0.3349
   27SAPC  H18Z 3668   2.818  -0.799   7.060 -1.1141  0.6390  0.5785
   28SAPC     N 3669   7.312   3.731   5.951 -0.4357 -0.5229  0.2945
   28SAPC   C12 3670   7.324   3.650   6.079 -0.4882  1.1619 -0.4325
   28SAPC  H12A 3671   7.297   3.551   6.046 -1.0193  1.2929 -0.3910
   28SAPC  H12B 3672   7.259   3.686   6.157 -1.2873  0.8003 -0.9307
   28SAPC   C13 3673   7.349   3.877   5.975  0.0958  1.2037  0.0875
   28SAPC  H13A 3674   7.337   3.931   5.882  0.6571 -1.0264 -1.3113
   28SAPC  H13B 3675   7.290   3.929   6.049  0.8597 -0.4078  1.8820
   28SAPC  H13C 3676   7.450   3.885   6.011  0.2446 -1.2949  0.2890
   28SAPC   C14 3677   7.400   3.672   5.842  0.2072  0.3457  0.2596
   28SAPC  H14A 3678   7.379   3.571   5.810  0.8113  0.4634 -0.5282
   28SAPC  H14B 3679   7.394   3.747   5.764 -1.2675 -0.3567 -0.3282
   28SAPC  H14C 3680   7.503   3.671   5.877 -0.6836  1.3067  3.0565
   28SAPC   C15 3681   7.166   3.732   5.910 -0.0555  0.2887 -0.6522
   28SAPC  H15A 3682   7.127   3.631   5.908  1.0545 -0.1543 -0.6644
   28SAPC  H15B 3683   7.103   3.787   5.978 -0.0053 -2.8289  2.0440
   28SAPC  H15C 3684   7.154   3.776   5.812 -0.2745  0.0191 -0.7484
   28SAPC   C11 3685   7.461   3.644   6.152  0.3686  0.4301 -0.4736
   28SAPC  H11A 3686   7.454   3.600   6.254  1.8361  1.2604  0.0016
   28SAPC  H11B 3687   7.491   3.748   6.179  0.9458  0.0441  0.3894
   28SAPC     P 3688   7.583   3.432   6.093  0.0679 -0.3929 -0.0283
   28SAPC   O13 3689   7.449   3.372   6.057 -0.3944 -0.0306 -0.4107
   28SAPC   O14 3690   7.703   3.399   6.014 -0.4817  0.5119  0.2648
   28SAPC   O12 3691   7.568   3.591   6.077  0.9095 -0.4603  0.7601
   28SAPC   O11 3692   7.616   3.411   6.241 -0.0458  0.0474  0.4775
   28SAPC    C1 3693   7.741   3.439   6.304 -0.0829  0.4125  0.7428
   28SAPC    HA 3694   7.810   3.476   6.226  1.2651 -1.6281  0.9235
   28SAPC    HB 3695   7.737   3.508   6.391 -0.9630  0.8007  0.4074
   28SAPC    C2 3696   7.810   3.303   6.341  0.4300 -0.8128  0.0538
   28SAPC    HS 3697   7.808   3.237   6.252 -2.0730 -0.0979 -0.4507
   28SAPC   O21 3698   7.737   3.252   6.446 -0.2076  0.6164  0.1332
   28SAPC   C21 3699   7.756   3.123   6.475 -0.2876 -0.1694 -0.2454
   28SAPC   O22 3700   7.817   3.042   6.410  0.6365  0.9118  0.1439
   28SAPC   C22 3701   7.691   3.093   6.609  0.5504  0.9042 -0.0632
   28SAPC   H2R 3702   7.669   3.183   6.670  0.6332 -0.4946  2.0770
   28SAPC   H2S 3703   7.588   3.055   6.592  0.7353 -0.1319  1.0629
   28SAPC    C3 3704   7.962   3.326   6.369  0.0038  0.1753 -0.4282
   28SAPC    HX 3705   8.020   3.360   6.281  0.7614 -0.9514 -0.3673
   28SAPC    HY 3706   8.006   3.231   6.405  0.1582  0.2224 -0.4942
   28SAPC   O31 3707   7.984   3.424   6.474  0.3387 -0.0569 -0.2486
   28SAPC   C31 3708   8.028   3.384   6.594 -0.1732 -0.3938  0.0475
   28SAPC   O32 3709   8.048   3.268   6.628 -0.2594  0.6354 -0.5986
   28SAPC   C32 3710   8.067   3.514   6.670  0.4733  0.1203  0.2872
   28SAPC   H2X 3711   8.125   3.570   6.593 -0.4704 -1.0366 -1.2929
   28SAPC   H2Y 3712   8.144   3.489   6.746 -0.7257 -0.3949  1.3483
   28SAPC   C23 3713   7.773   2.986   6.682 -0.0710 -0.7661 -0.6020
   28SAPC   H3R 3714   7.880   3.009   6.664 -0.2094  1.6588  1.3976
   28SAPC   H3S 3715   7.749   2.886   6.641 -2.1738 -0.2019 -0.7887
   28SAPC   C24 3716   7.759   2.997   6.833  0.5520 -0.4533  0.2712
   28SAPC   H4R 3717   7.775   3.102   6.867 -0.5606  0.2332 -1.2905
   28SAPC   H4S 3718   7.653   2.973   6.854 -0.3606  2.1736 -1.0280
   28SAPC   C25 3719   7.854   2.908   6.903 -0.1519 -0.4305 -0.2986
   28SAPC   H5R 3720   7.825   2.802   6.897 -2.7050  0.2185 -0.0161
   28SAPC   C26 3721   7.966   2.944   6.971  0.3422  0.6513  0.6998
   28SAPC   H6R 3722   8.020   2.862   7.022  1.0250  0.1240 -0.8399
   28SAPC   C27 3723   8.034   3.070   7.004 -0.5252 -0.2126  0.5507
   28SAPC   H7R 3724   8.048   3.083   7.114  1.6425  0.7388  0.1871
   28SAPC   H7S 3725   7.990   3.164   6.966 -0.5575 -1.1595 -1.8488
   28SAPC   C28 3726   8.171   3.074   6.942  0.2556  0.2558  0.0476
   28SAPC   H8R 3727   8.170   3.107   6.837  1.1554 -0.5903 -0.2408
   28SAPC   C29 3728   8.289   3.051   6.995  0.2709  0.3458  0.3539
   28SAPC   H9R 3729   8.381   3.051   6.935  0.7025 -0.6000  1.0061
   28SAPC  C210 3730   8.309   3.002   7.136  0.2751 -0.3233  0.3014
   28SAPC  H10R 3731   8.218   2.952   7.176  0.2839 -0.4278  0.1904
   28SAPC  H10S 3732   8.318   3.100   7.188  0.6081  0.8535 -1.9430
   28SAPC  C211 3733   8.431   2.911   7.146 -0.4389 -0.3335  0.5191
   28SAPC  H11R 3734   8.441   2.830   7.072  0.6389  0.0500  0.2271
   28SAPC  C212 3735   8.520   2.914   7.245 -0.2546  0.1801  0.2306
   28SAPC  H12R 3736   8.601   2.839   7.256 -1.5837 -1.6337 -1.8597
   28SAPC  C213 3737   8.517   3.004   7.366  0.6894  0.1703  0.1316
   28SAPC  H13R 3738   8.416   3.048   7.380 -0.2026 -1.5833 -0.7048
   28SAPC  H13S 3739   8.567   3.101   7.341  1.8510  0.1132  2.1114
   28SAPC  C214 3740   8.570   2.953   7.498  0.4468  0.2237 -0.0694
   28SAPC  H14R 3741   8.674   2.926   7.476  1.0803  1.7734  1.0086
   28SAPC  C215 3742   8.507   2.932   7.614  0.1314 -0.3202 -0.6380
   28SAPC  H15R 3743   8.579   2.903   7.692  0.5264 -0.7520 -1.1596
   28SAPC  C216 3744   8.369   2.947   7.656  0.5651  0.3775  0.4381
   28SAPC  H16R 3745   8.342   2.848   7.700  0.5485  0.1641 -0.0479
   28SAPC  H16S 3746   8.296   2.966   7.574  0.2528 -0.9201  0.4066
   28SAPC  C217 3747   8.344   3.069   7.751 -0.4723 -0.4789  0.2068
   28SAPC  H17R 3748   8.361   3.165   7.698  0.5301  0.2851  1.8809
   28SAPC  H17S 3749   8.410   3.077   7.839 -0.0053 -0.4175 -0.1471
   28SAPC  C218 3750   8.204   3.079   7.813  0.1666  0.4297 -0.1536
   28SAPC  H18R 3751   8.132   3.031   7.742  0.7577 -0.7102  0.0032
   28SAPC  H18S 3752   8.170   3.182   7.837 -0.5798 -0.1010  1.1000
   28SAPC  C219 3753   8.185   2.980   7.932  0.3582 -0.3024 -0.5602
   28SAPC  H19R 3754   8.261   3.009   8.008  1.2483 -3.0849 -0.3285
   28SAPC  H19S 3755   8.213   2.875   7.910  2.1520 -0.1278  0.7626
   28SAPC  C220 3756   8.039   2.985   7.988  0.4362  0.0818  1.1161
   28SAPC  H20R 3757   7.976   2.949   7.904  1.5612  0.7693 -0.0430
   28SAPC  H20S 3758   8.020   3.087   8.027 -2.1341 -0.8625  2.4567
   28SAPC  H20T 3759   8.033   2.914   8.073 -0.5346 -0.0706  0.9163
   28SAPC   C33 3760   7.941   3.592   6.712  0.1044  0.1064 -0.3496
   28SAPC   H3X 3761   7.880   3.596   6.619  0.5908 -1.5049 -0.7488
   28SAPC   H3Y 3762   7.960   3.698   6.741 -1.2655  0.0252  0.9074
   28SAPC   C34 3763   7.861   3.533   6.832 -0.1647  0.7660 -0.1858
   28SAPC   H4X 3764   7.894   3.553   6.936 -2.9726  2.8823  0.3728
   28SAPC   H4Y 3765   7.853   3.424   6.815 -0.9853  0.5250  1.5941
   28SAPC   C35 3766   7.720   3.600   6.847 -0.4316  0.1119  0.2498
   28SAPC   H5X 3767   7.656   3.581   6.758 -0.3170  1.7683 -0.2092
   28SAPC   H5Y 3768   7.729   3.711   6.855 -1.8100  0.1299  2.1081
   28SAPC   C36 3769   7.640   3.541   6.964  0.0506  0.0929 -0.6561
   28SAPC   H6X 3770   7.700   3.543   7.057 -0.2445  0.5052 -0.4764
   28SAPC   H6Y 3771   7.616   3.439   6.927  2.1985 -0.7057  0.0437
   28SAPC   C37 3772   7.511   3.616   6.991 -0.3358 -0.2056 -0.7105
   28SAPC   H7X 3773   7.451   3.545   7.051 -0.0669  1.2085  1.2675
   28SAPC   H7Y 3774   7.477   3.641   6.888 -2.5759  0.3117  0.1315
   28SAPC   C38 3775   7.536   3.748   7.066 -0.4622  0.2866  0.0561
   28SAPC   H8X 3776   7.437   3.792   7.092  0.3481  2.4042 -0.3510
   28SAPC   H8Y 3777   7.586   3.819   6.996 -0.4260  0.3099  0.1056
   28SAPC   C39 3778   7.623   3.744   7.192  0.1212 -0.6507 -0.5111
   28SAPC   H9X 3779   7.731   3.737   7.168  0.1752 -0.8684 -0.2126
   28SAPC   H9Y 3780   7.600   3.658   7.259  0.7815  0.0679  0.6485
   28SAPC  C310 3781   7.595   3.866   7.284  0.9080 -0.2047  0.7516
   28SAPC  H10X 3782   7.489   3.863   7.318 -0.3415  0.0378 -2.8824
   28SAPC  H10Y 3783   7.603   3.951   7.214 -2.1004 -1.7095 -1.5318
   28SAPC  C311 3784   7.691   3.873   7.409  0.1001  0.5465  0.2236
   28SAPC  H11X 3785   7.797   3.896   7.387 -0.5803  3.0115 -0.6186
   28SAPC  H11Y 3786   7.692   3.766   7.442  1.9521  0.5676  0.2818
   28SAPC  C312 3787   7.643   3.969   7.519  0.6449  0.0774 -0.1205
   28SAPC  H12X 3788   7.537   3.946   7.545  0.6731 -2.0217 -1.7385
   28SAPC  H12Y 3789   7.645   4.069   7.471 -0.0756 -0.3838 -1.1399
   28SAPC  C313 3790   7.729   3.949   7.648 -0.1501  0.6873 -0.0281
   28SAPC  H13X 3791   7.835   3.965   7.619 -0.6385  2.7538 -0.7965
   28SAPC  H13Y 3792   7.719   3.843   7.681 -3.9173  0.1799 -2.5222
   28SAPC  C314 3793   7.692   4.047   7.759 -0.0549 -0.1956  0.2715
   28SAPC  H14X 3794   7.588   4.043   7.799 -0.3316 -0.3170 -0.4557
   28SAPC  H14Y 3795   7.702   4.143   7.705 -2.7036  0.1093  0.2680
   28SAPC  C315 3796   7.788   4.039   7.872 -0.0907  1.3037 -0.1319
   28SAPC  H15X 3797   7.893   4.049   7.836  1.0575 -2.1349  1.9780
   28SAPC  H15Y 3798   7.785   3.940   7.923 -1.8722  1.4287  0.0506
   28SAPC  C316 3799   7.784   4.142   7.981 -0.1991  0.1475  0.6558
   28SAPC  H16X 3800   7.681   4.139   8.022 -0.3994  1.4404  0.2675
   28SAPC  H16Y 3801   7.802   4.240   7.933 -0.7314 -0.1631 -0.1943
   28SAPC  C317 3802   7.890   4.124   8.095  0.5489  0.4671 -0.2904
   28SAPC  H17X 3803   7.988   4.139   8.046  1.3715 -1.1621  0.8035
   28SAPC  H17Y 3804   7.893   4.023   8.141 -0.1634  1.3758  1.8143
   28SAPC  C318 3805   7.867   4.214   8.212 -0.0816 -0.2274 -0.3589
   28SAPC  H18X 3806   7.876   4.318   8.174  0.8021  0.9620  2.8619
   28SAPC  H18Y 3807   7.937   4.201   8.297  0.3531  3.3813 -0.0538
   28SAPC  H18Z 3808   7.767   4.216   8.261 -0.0112  2.7356 -0.2430
   29SAPC     N 3809   3.684   0.290   5.999  0.2906 -0.9079 -0.2677
   29SAPC   C12 3810   3.756   0.167   6.044 -0.1968 -0.2844  0.0384
   29SAPC  H12A 3811   3.851   0.200   6.084  1.4294 -0.0091 -3.7520
   29SAPC  H12B 3812   3.782   0.104   5.960  0.7390 -0.6693  0.6004
   29SAPC   C13 3813   3.570   0.250   5.914  0.1644  1.1595  0.5406
   29SAPC  H13A 3814   3.503   0.185   5.969 -0.3941 -0.2091 -1.7045
   29SAPC  H13B 3815   3.510   0.335   5.885 -0.5560  0.2890 -0.5666
   29SAPC  H13C 3816   3.611   0.200   5.828 -0.8081  1.7631 -0.2840
   29SAPC   C14 3817   3.637   0.373   6.113  0.2897 -0.1089 -0.7798
   29SAPC  H14A 3818   3.591   0.299   6.177  1.6821 -0.6643 -0.3955
   29SAPC  H14B 3819   3.723   0.417   6.162  0.3563 -1.0654 -0.0228
   29SAPC  H14C 3820   3.567   0.450   6.083  0.0196 -0.6103 -1.4458
   29SAPC   C15 3821   3.765   0.378   5.911  0.2442 -0.1489 -0.2595
   29SAPC  H15A 3822   3.714   0.469   5.886  0.4060 -0.3306 -1.2659
   29SAPC  H15B 3823   3.856   0.411   5.960 -0.6627 -0.2137  1.5093
   29SAPC  H15C 3824   3.802   0.332   5.820  0.6901 -1.0882  0.3860
   29SAPC   C11 3825   3.680   0.068   6.146 -0.4378 -0.3954 -0.5709
   29SAPC  H11A 3826   3.650   0.124   6.237 -1.4020  2.4644 -2.5676
   29SAPC  H11B 3827   3.756  -0.011   6.163  0.0268  0.1226 -0.2220
   29SAPC     P 3828   3.473  -0.103   6.172  0.3621 -0.0605 -0.0538
   29SAPC   O13 3829   3.351  -0.134   6.093  0.3645 -0.1634  0.4160
   29SAPC   O14 3830   3.554  -0.215   6.209  0.1291  0.3947 -0.2330
   29SAPC   O12 3831   3.563   0.002   6.087 -0.6921  0.0120  0.1459
   29SAPC   O11 3832   3.441  -0.016   6.298  0.7985 -0.2626  0.7467
   29SAPC    C1 3833   3.384   0.122   6.288 -0.2426 -0.2431  0.7054
   29SAPC    HA 3834   3.422   0.182   6.203  0.5721  1.0114  1.9230
   29SAPC    HB 3835   3.274   0.127   6.272 -0.3363 -2.4017  0.4631
   29SAPC    C2 3836   3.409   0.212   6.412 -0.4874  0.3870  0.3324
   29SAPC    HS 3837   3.400   0.318   6.380 -2.4200  0.1960  0.2004
   29SAPC   O21 3838   3.546   0.197   6.457  0.0299  0.3918 -0.2682
   29SAPC   C21 3839   3.586   0.286   6.541  0.1164  0.3941 -0.4831
   29SAPC   O22 3840   3.537   0.396   6.565 -0.0704 -0.5664  0.4405
   29SAPC   C22 3841   3.710   0.223   6.615 -0.1098 -1.4174 -0.5745
   29SAPC   H2R 3842   3.773   0.184   6.532 -0.8499 -2.0893 -0.8231
   29SAPC   H2S 3843   3.761   0.309   6.663 -2.4524  0.3476 -1.1209
   29SAPC    C3 3844   3.303   0.199   6.525  0.0263  0.1474  0.0580
   29SAPC    HX 3845   3.206   0.212   6.471  0.3943 -1.7326 -1.1016
   29SAPC    HY 3846   3.321   0.287   6.590  0.9667 -1.5194  2.0909
   29SAPC   O31 3847   3.304   0.087   6.604 -0.6865 -0.0162 -0.0791
   29SAPC   C31 3848   3.203  -0.006   6.598  0.3012 -0.1272  0.0533
   29SAPC   O32 3849   3.099   0.006   6.537  0.0934 -0.1846  0.2750
   29SAPC   C32 3850   3.250  -0.134   6.679  0.0760 -1.0396  0.3161
   29SAPC   H2X 3851   3.170  -0.210   6.662  0.1801 -1.2900  0.9193
   29SAPC   H2Y 3852   3.247  -0.092   6.782  1.5550  0.9950 -0.4314
   29SAPC   C23 3853   3.678   0.120   6.718 -0.0442 -0.5693 -0.3034
   29SAPC   H3R 3854   3.634   0.033   6.664 -1.8266 -0.7856  1.4753
   29SAPC   H3S 3855   3.602   0.153   6.791 -0.2769 -0.7017 -0.4854
   29SAPC   C24 3856   3.800   0.067   6.792 -0.0606 -0.0959  0.2807
   29SAPC   H4R 3857   3.874   0.019   6.724 -1.8349 -1.5758 -0.6440
   29SAPC   H4S 3858   3.767  -0.013   6.861 -2.9338 -0.0733 -1.0103
   29SAPC   C25 3859   3.870   0.171   6.880 -0.2501  0.0267 -0.5076
   29SAPC   H5R 3860   3.941   0.241   6.833 -1.1709  2.2735  1.3384
   29SAPC   C26 3861   3.847   0.192   7.014  0.3197 -0.4576 -0.2491
   29SAPC   H6R 3862   3.910   0.262   7.070 -1.0596  1.1585 -0.7026
   29SAPC   C27 3863   3.750   0.111   7.093 -0.1454  1.2368 -0.9492
   29SAPC   H7R 3864   3.666   0.083   7.027 -0.2189  1.1194 -0.8048
   29SAPC   H7S 3865   3.720   0.181   7.173  1.2128 -0.8005  1.4316
   29SAPC   C28 3866   3.804  -0.015   7.157  0.2069  0.1564 -0.1082
   29SAPC   H8R 3867   3.912  -0.034   7.147  0.1992 -0.2138  0.4708
   29SAPC   C29 3868   3.723  -0.093   7.231 -0.0154 -0.5776  0.3287
   29SAPC   H9R 3869   3.773  -0.167   7.296  1.5166  0.3791  0.2759
   29SAPC  C210 3870   3.574  -0.070   7.264 -0.1779 -0.1251  0.2119
   29SAPC  H10R 3871   3.514  -0.122   7.186 -1.0244 -0.9296  1.3909
   29SAPC  H10S 3872   3.544   0.037   7.263 -0.6162 -0.2375 -2.2073
   29SAPC  C211 3873   3.527  -0.131   7.397  0.7831  0.2480  0.1910
   29SAPC  H11R 3874   3.611  -0.145   7.466  0.0447  0.7932  1.2093
   29SAPC  C212 3875   3.407  -0.169   7.439  0.7546  0.6969 -0.1037
   29SAPC  H12R 3876   3.409  -0.194   7.546 -0.1831  1.2392  0.0493
   29SAPC  C213 3877   3.279  -0.162   7.359  0.4575 -0.5417 -0.0123
   29SAPC  H13R 3878   3.206  -0.233   7.404 -1.8340  0.9318 -1.2838
   29SAPC  H13S 3879   3.304  -0.190   7.254  1.3993  2.4673 -0.6233
   29SAPC  C214 3880   3.235  -0.024   7.352 -0.0349  0.9390 -0.0112
   29SAPC  H14R 3881   3.312   0.054   7.344 -0.3841  1.1795 -1.0790
   29SAPC  C215 3882   3.106   0.014   7.360  0.3796 -0.2111  0.1727
   29SAPC  H15R 3883   3.073   0.116   7.337  0.1728 -0.6984 -1.7701
   29SAPC  C216 3884   2.994  -0.084   7.378 -0.1124 -0.9146 -0.0317
   29SAPC  H16R 3885   3.016  -0.138   7.472  1.3558 -0.6371 -0.2057
   29SAPC  H16S 3886   2.971  -0.148   7.290  0.2403  1.3742 -1.8344
   29SAPC  C217 3887   2.855  -0.024   7.410  0.2584  0.7247  0.2296
   29SAPC  H17R 3888   2.813   0.022   7.317  1.0390  0.8252 -0.0761
   29SAPC  H17S 3889   2.866   0.060   7.482 -0.1458  0.6368  0.3934
   29SAPC  C218 3890   2.750  -0.119   7.472  0.0824  0.0373  0.1312
   29SAPC  H18R 3891   2.650  -0.072   7.487  0.1332 -0.4246  2.1153
   29SAPC  H18S 3892   2.787  -0.139   7.575 -1.7584 -0.4056  0.7319
   29SAPC  C219 3893   2.746  -0.249   7.401  0.1497  0.1854 -0.5317
   29SAPC  H19R 3894   2.687  -0.328   7.452  0.1827  0.7074  0.3183
   29SAPC  H19S 3895   2.846  -0.299   7.401  0.0950  0.0178  1.7233
   29SAPC  C220 3896   2.708  -0.232   7.255  0.6148 -0.4111 -0.5199
   29SAPC  H20R 3897   2.621  -0.165   7.239 -0.2058 -1.4230 -0.3688
   29SAPC  H20S 3898   2.683  -0.333   7.214 -1.6743  0.3245 -1.0005
   29SAPC  H20T 3899   2.798  -0.197   7.200  2.1141 -1.9970  0.8267
   29SAPC   C33 3900   3.393  -0.179   6.657 -0.8117 -0.5701  0.3889
   29SAPC   H3X 3901   3.444  -0.093   6.706 -2.3207 -0.3745  1.6957
   29SAPC   H3Y 3902   3.434  -0.199   6.556 -0.7362  0.6264  0.1773
   29SAPC   C34 3903   3.422  -0.315   6.722  0.7885 -0.0050  0.8169
   29SAPC   H4X 3904   3.523  -0.351   6.695  1.4879  0.4068  2.7803
   29SAPC   H4Y 3905   3.354  -0.393   6.682  1.2348 -0.3644  0.7706
   29SAPC   C35 3906   3.412  -0.309   6.880 -0.2299 -0.4767 -0.2780
   29SAPC   H5X 3907   3.317  -0.256   6.904  0.6005  1.1059 -0.3752
   29SAPC   H5Y 3908   3.499  -0.248   6.913  0.1145 -1.3308  0.4229
   29SAPC   C36 3909   3.421  -0.445   6.950  0.5774 -0.2260  0.0425
   29SAPC   H6X 3910   3.476  -0.524   6.893  2.1103  0.0383  1.1415
   29SAPC   H6Y 3911   3.317  -0.475   6.974 -0.0253  0.6391 -1.4270
   29SAPC   C37 3912   3.471  -0.451   7.096 -0.9138 -0.0218 -0.3211
   29SAPC   H7X 3913   3.440  -0.363   7.157 -0.5576  0.9117 -1.4656
   29SAPC   H7Y 3914   3.582  -0.453   7.092 -0.8639  2.5352 -1.1426
   29SAPC   C38 3915   3.413  -0.564   7.178 -0.1427 -0.6713  0.0632
   29SAPC   H8X 3916   3.427  -0.659   7.122  2.8095  0.2701 -0.8413
   29SAPC   H8Y 3917   3.306  -0.549   7.204 -0.1502 -1.9561  0.8366
   29SAPC   C39 3918   3.486  -0.561   7.314 -0.2484 -0.0188  0.1088
   29SAPC   H9X 3919   3.459  -0.467   7.367  0.5475  0.1862  0.1584
   29SAPC   H9Y 3920   3.595  -0.565   7.296 -0.0864 -0.0819  1.0670
   29SAPC  C310 3921   3.437  -0.673   7.398 -0.1238  1.1390 -0.0654
   29SAPC  H10X 3922   3.452  -0.776   7.358 -1.4869  0.1934  1.7736
   29SAPC  H10Y 3923   3.326  -0.670   7.404 -0.1151  1.1018  0.1080
   29SAPC  C311 3924   3.495  -0.666   7.541 -0.2145 -0.5029  0.4287
   29SAPC  H11X 3925   3.605  -0.649   7.544 -0.0928 -0.9237 -1.1127
   29SAPC  H11Y 3926   3.484  -0.774   7.565 -2.4237 -0.4126 -0.0948
   29SAPC  C312 3927   3.418  -0.578   7.641 -0.5204 -0.4408 -0.3092
   29SAPC  H12X 3928   3.310  -0.605   7.640 -0.9161  1.0030  0.9799
   29SAPC  H12Y 3929   3.424  -0.478   7.593 -0.8660 -0.0728  0.4110
   29SAPC  C313 3930   3.473  -0.577   7.778 -0.2855  0.6454  0.4155
   29SAPC  H13X 3931   3.572  -0.527   7.775 -0.0549  0.4046  2.8817
   29SAPC  H13Y 3932   3.487  -0.683   7.811 -1.4923  1.0440  2.3007
   29SAPC  C314 3933   3.379  -0.504   7.881  0.5564 -0.4682 -0.1792
   29SAPC  H14X 3934   3.411  -0.547   7.978 -0.4301 -1.7588 -0.4201
   29SAPC  H14Y 3935   3.275  -0.531   7.854  0.7513  0.1545 -1.6093
   29SAPC  C315 3936   3.374  -0.353   7.882 -0.0546  1.0471  0.1715
   29SAPC  H15X 3937   3.361  -0.323   7.776  1.8745 -0.2858 -0.4753
   29SAPC  H15Y 3938   3.465  -0.300   7.918  0.3051  1.0331 -0.7132
   29SAPC  C316 3939   3.254  -0.305   7.960  0.0187 -0.1304 -0.4032
   29SAPC  H16X 3940   3.261  -0.344   8.063  0.7204 -2.3608 -1.2671
   29SAPC  H16Y 3941   3.152  -0.340   7.930  0.2588  1.9186 -3.9459
   29SAPC  C317 3942   3.263  -0.146   7.950  0.1447 -0.2926 -0.4693
   29SAPC  H17X 3943   3.357  -0.128   8.007 -0.0220 -0.6759 -0.0663
   29SAPC  H17Y 3944   3.185  -0.106   8.018  0.9885 -0.3726  0.5543
   29SAPC  C318 3945   3.261  -0.084   7.805  0.6042  0.5398  0.4461
   29SAPC  H18X 3946   3.273   0.026   7.822  1.4016  0.4455  0.5001
   29SAPC  H18Y 3947   3.162  -0.098   7.755  0.2896  0.7167  1.0120
   29SAPC  H18Z 3948   3.342  -0.117   7.738 -0.2023 -0.1231 -0.2136
   30SAPC     N 3949   5.734   6.313   5.898  0.3676 -0.8614 -0.5090
   30SAPC   C12 3950   5.595   6.276   5.835 -0.1737  0.0388 -0.0648
   30SAPC  H12A 3951   5.552   6.200   5.899 -2.8462  2.3846  1.0043
   30SAPC  H12B 3952   5.609   6.219   5.744 -2.1944 -0.6681  0.0358
   30SAPC   C13 3953   5.814   6.189   5.927  0.0183  0.0631  0.0515
   30SAPC  H13A 3954   5.760   6.131   6.000 -1.4200  0.4574 -0.6744
   30SAPC  H13B 3955   5.823   6.130   5.837 -1.0087  0.5538 -0.3816
   30SAPC  H13C 3956   5.917   6.205   5.954 -0.5906  2.0061  1.2939
   30SAPC   C14 3957   5.816   6.404   5.802  0.4926 -0.2439 -0.2442
   30SAPC  H14A 3958   5.812   6.375   5.698  0.9798 -0.0515 -0.3165
   30SAPC  H14B 3959   5.767   6.500   5.797  0.8285 -0.1155 -1.1258
   30SAPC  H14C 3960   5.917   6.418   5.837  0.8722  2.9304 -2.4626
   30SAPC   C15 3961   5.711   6.373   6.032  0.4605  0.0650  0.9000
   30SAPC  H15A 3962   5.661   6.304   6.098  0.4512 -0.9418 -0.1347
   30SAPC  H15B 3963   5.803   6.410   6.074 -0.0461  0.3763  1.7397
   30SAPC  H15C 3964   5.646   6.458   6.018  0.9476 -0.0094 -2.1148
   30SAPC   C11 3965   5.490   6.388   5.813 -0.3690 -0.6334 -0.6426
   30SAPC  H11A 3966   5.409   6.347   5.749 -2.1175  1.3700  0.2442
   30SAPC  H11B 3967   5.545   6.464   5.754 -0.1970  1.3984  2.0703
   30SAPC     P 3968   5.304   6.535   5.944  0.2519  0.1227 -0.0834
   30SAPC   O13 3969   5.231   6.474   5.835 -0.1552  0.4499  1.0854
   30SAPC   O14 3970   5.245   6.523   6.075  0.2314  0.1002 -0.6325
   30SAPC   O12 3971   5.447   6.452   5.937 -0.4909 -0.1336  0.1054
   30SAPC   O11 3972   5.342   6.683   5.903  0.1327  0.4960 -0.7382
   30SAPC    C1 3973   5.469   6.744   5.925  0.3628 -0.2083 -0.3494
   30SAPC    HA 3974   5.551   6.671   5.910 -0.2220 -1.0636  0.5656
   30SAPC    HB 3975   5.490   6.826   5.853  1.0866  0.1003  0.2082
   30SAPC    C2 3976   5.485   6.820   6.065 -0.3820 -0.6169 -0.0257
   30SAPC    HS 3977   5.591   6.850   6.083 -0.3656  1.5394 -3.3038
   30SAPC   O21 3978   5.438   6.739   6.170  0.5660 -0.4920 -0.0651
   30SAPC   C21 3979   5.523   6.666   6.233 -0.3026  0.5224 -0.1649
   30SAPC   O22 3980   5.639   6.649   6.200  0.0012  0.2247 -0.3408
   30SAPC   C22 3981   5.458   6.600   6.355  0.4352 -0.0094 -0.2495
   30SAPC   H2R 3982   5.400   6.673   6.416 -0.8597 -1.9564  0.9118
   30SAPC   H2S 3983   5.382   6.529   6.315 -0.1124  0.0912  0.5855
   30SAPC    C3 3984   5.420   6.961   6.060 -0.5723 -0.0251 -0.7331
   30SAPC    HX 3985   5.312   6.938   6.046 -0.8984  0.2344  1.2886
   30SAPC    HY 3986   5.458   7.015   5.971  1.8799  2.4515  1.7385
   30SAPC   O31 3987   5.425   7.039   6.179  0.2033 -0.1825 -0.0052
   30SAPC   C31 3988   5.545   7.091   6.218 -1.0846  0.2206 -0.1060
   30SAPC   O32 3989   5.652   7.070   6.162 -0.1144 -0.3662  0.3658
   30SAPC   C32 3990   5.529   7.168   6.353  0.0470 -0.3559 -0.4792
   30SAPC   H2X 3991   5.629   7.162   6.402 -0.5259  0.8105  0.8953
   30SAPC   H2Y 3992   5.457   7.115   6.419  0.9563 -1.0992 -0.0708
   30SAPC   C23 3993   5.560   6.531   6.452  0.6719 -0.0355 -0.3444
   30SAPC   H3R 3994   5.557   6.578   6.553  0.1042 -2.2806  0.7139
   30SAPC   H3S 3995   5.664   6.536   6.413  1.5061  1.2342  1.9414
   30SAPC   C24 3996   5.522   6.379   6.483 -0.1371  0.2334  0.8374
   30SAPC   H4R 3997   5.602   6.339   6.550  0.5152  0.5067  0.2343
   30SAPC   H4S 3998   5.520   6.322   6.388 -0.9708  2.9212 -0.7928
   30SAPC   C25 3999   5.391   6.374   6.561  0.7182  0.2978 -0.3170
   30SAPC   H5R 4000   5.304   6.355   6.497  0.7493 -1.1224  0.0370
   30SAPC   C26 4001   5.383   6.388   6.692  0.3510  0.7249 -0.3946
   30SAPC   H6R 4002   5.279   6.380   6.726  0.4788  1.7241  0.2642
   30SAPC   C27 4003   5.500   6.411   6.785  0.9617  1.0063  0.5947
   30SAPC   H7R 4004   5.589   6.464   6.746  1.5189 -1.2182 -1.2234
   30SAPC   H7S 4005   5.559   6.320   6.809 -0.6933 -1.1207 -2.9639
   30SAPC   C28 4006   5.441   6.484   6.905 -0.5361  0.4405 -0.1891
   30SAPC   H8R 4007   5.418   6.423   6.993 -0.4808 -0.9267 -1.0982
   30SAPC   C29 4008   5.421   6.614   6.923 -0.2955  0.1417  0.6545
   30SAPC   H9R 4009   5.363   6.651   7.009 -0.4487  0.3181  0.4749
   30SAPC  C210 4010   5.453   6.718   6.822 -0.2092 -0.4787  0.8864
   30SAPC  H10R 4011   5.513   6.687   6.733 -2.2313 -1.8118 -0.0484
   30SAPC  H10S 4012   5.512   6.800   6.868  0.8081 -0.4485 -0.4166
   30SAPC  C211 4013   5.329   6.786   6.766 -0.0656  0.4386 -0.8511
   30SAPC  H11R 4014   5.273   6.712   6.708  0.5490  0.5650 -1.6176
   30SAPC  C212 4015   5.301   6.920   6.767 -0.3378  0.3552 -0.1165
   30SAPC  H12R 4016   5.215   6.949   6.705 -0.7000  2.3225  1.2642
   30SAPC  C213 4017   5.385   7.033   6.825 -0.5341 -0.3446 -0.1437
   30SAPC  H13R 4018   5.423   7.018   6.928  0.5956  1.3574 -0.2860
   30SAPC  H13S 4019   5.324   7.125   6.830 -0.3052 -0.1623 -0.6350
   30SAPC  C214 4020   5.524   7.048   6.751  0.5610 -0.2070  0.6227
   30SAPC  H14R 4021   5.505   7.063   6.644  0.0685  0.2021  0.7629
   30SAPC  C215 4022   5.649   7.053   6.802  0.1872 -0.0023 -0.2505
   30SAPC  H15R 4023   5.725   7.075   6.727  0.3952 -1.0738 -0.3667
   30SAPC  C216 4024   5.701   7.051   6.943  0.0017 -0.3838 -0.0321
   30SAPC  H16R 4025   5.804   7.009   6.942 -0.5450 -1.7484 -0.2979
   30SAPC  H16S 4026   5.651   6.976   7.008  0.7459 -0.2357  0.7355
   30SAPC  C217 4027   5.712   7.190   7.011  0.3675  0.1835 -0.8203
   30SAPC  H17R 4028   5.627   7.255   6.979 -1.2931 -1.2383  0.5729
   30SAPC  H17S 4029   5.796   7.243   6.962  1.1434 -1.0278 -0.7859
   30SAPC  C218 4030   5.727   7.184   7.167  0.3707 -0.7040  0.0754
   30SAPC  H18R 4031   5.799   7.103   7.190  0.7998 -0.2247  0.4397
   30SAPC  H18S 4032   5.632   7.147   7.212  0.4337 -0.7078  0.2044
   30SAPC  C219 4033   5.770   7.315   7.242  0.4146 -0.6077 -0.4235
   30SAPC  H19R 4034   5.707   7.388   7.188 -0.2196 -0.9801 -0.1939
   30SAPC  H19S 4035   5.880   7.332   7.233  0.4141  1.1488  2.2163
   30SAPC  C220 4036   5.737   7.313   7.393  0.2576  0.0291  0.0689
   30SAPC  H20R 4037   5.628   7.329   7.392  0.0800 -1.0230  1.2068
   30SAPC  H20S 4038   5.786   7.401   7.439 -0.2767  0.8124 -0.8529
   30SAPC  H20T 4039   5.762   7.218   7.446 -1.4374 -1.2677 -1.3818
   30SAPC   C33 4040   5.492   7.314   6.327 -0.3757 -0.1230  0.3237
   30SAPC   H3X 4041   5.400   7.317   6.265 -0.9075 -0.6283  1.0829
   30SAPC   H3Y 4042   5.586   7.357   6.285  0.5042 -0.5976  1.7769
   30SAPC   C34 4043   5.458   7.388   6.463 -0.0852 -0.2421 -1.0914
   30SAPC   H4X 4044   5.543   7.369   6.532 -0.7421 -0.0154 -0.2015
   30SAPC   H4Y 4045   5.363   7.346   6.503  1.2104 -1.6037  0.6757
   30SAPC   C35 4046   5.429   7.534   6.433  0.0707  0.3657 -0.0238
   30SAPC   H5X 4047   5.321   7.552   6.417 -0.0209 -0.3958 -0.2583
   30SAPC   H5Y 4048   5.483   7.573   6.343  1.5489  1.8088  1.4541
   30SAPC   C36 4049   5.481   7.623   6.543 -0.6751  0.2561  0.1744
   30SAPC   H6X 4050   5.467   7.726   6.504 -0.2901  1.0148  1.9840
   30SAPC   H6Y 4051   5.588   7.596   6.558 -0.6167 -0.1135 -0.8520
   30SAPC   C37 4052   5.419   7.623   6.681  0.5824  0.2496  0.2816
   30SAPC   H7X 4053   5.310   7.637   6.666  0.6058  0.6424  0.4581
   30SAPC   H7Y 4054   5.456   7.715   6.731 -2.2271  1.6385 -0.0519
   30SAPC   C38 4055   5.426   7.502   6.775  1.2069  0.2747 -0.1936
   30SAPC   H8X 4056   5.519   7.507   6.836  0.1910 -1.6830  1.5709
   30SAPC   H8Y 4057   5.415   7.410   6.715 -0.1388  0.8056 -0.7789
   30SAPC   C39 4058   5.300   7.482   6.866 -0.2098 -0.7451 -0.3214
   30SAPC   H9X 4059   5.300   7.383   6.916 -0.2945 -1.0166 -0.8547
   30SAPC   H9Y 4060   5.205   7.491   6.808 -1.3417  3.2039  1.9350
   30SAPC  C310 4061   5.297   7.584   6.982  0.0318 -0.1659  0.2116
   30SAPC  H10X 4062   5.203   7.575   7.041  1.5977 -0.1534  2.8093
   30SAPC  H10Y 4063   5.310   7.686   6.939 -1.0249 -0.0755  0.0740
   30SAPC  C311 4064   5.395   7.569   7.095  0.2174  0.1911 -0.4107
   30SAPC  H11X 4065   5.490   7.621   7.069 -0.1308  0.2080 -1.7107
   30SAPC  H11Y 4066   5.404   7.460   7.111  0.4928  0.2471 -0.1620
   30SAPC  C312 4067   5.358   7.628   7.239  0.4742 -1.5031  0.1086
   30SAPC  H12X 4068   5.248   7.612   7.251  0.4377 -1.0316  0.4072
   30SAPC  H12Y 4069   5.363   7.738   7.229 -1.5362 -1.2027  1.8779
   30SAPC  C313 4070   5.457   7.597   7.355  0.0646  0.4431 -0.3233
   30SAPC  H13X 4071   5.559   7.625   7.320  0.2788 -0.7612 -0.6936
   30SAPC  H13Y 4072   5.464   7.487   7.370  3.3581  0.4663 -1.3746
   30SAPC  C314 4073   5.420   7.682   7.482 -0.2972 -0.5659 -0.4755
   30SAPC  H14X 4074   5.335   7.624   7.524  0.1537 -0.1204  1.0909
   30SAPC  H14Y 4075   5.374   7.781   7.464  2.2233  0.8631  0.7226
   30SAPC  C315 4076   5.523   7.688   7.591 -1.0258 -0.6507 -0.7544
   30SAPC  H15X 4077   5.563   7.791   7.600 -3.8359  0.2623  1.9304
   30SAPC  H15Y 4078   5.606   7.615   7.578 -1.4208 -1.2183 -0.1655
   30SAPC  C316 4079   5.480   7.670   7.738  0.8202  0.0212  0.2479
   30SAPC  H16X 4080   5.571   7.678   7.800  0.6736  0.3940  0.4192
   30SAPC  H16Y 4081   5.440   7.568   7.756  1.5639 -0.2732  0.2465
   30SAPC  C317 4082   5.372   7.768   7.793  0.3847  0.3467  0.9732
   30SAPC  H17X 4083   5.290   7.763   7.719  1.1027  1.1250  0.1108
   30SAPC  H17Y 4084   5.411   7.873   7.794  0.9188  0.2840 -3.4621
   30SAPC  C318 4085   5.344   7.741   7.940  0.2317 -0.0492 -0.0276
   30SAPC  H18X 4086   5.306   7.638   7.953  1.6868 -0.5509  0.2809
   30SAPC  H18Y 4087   5.266   7.806   7.986 -0.7101 -1.8087  0.9229
   30SAPC  H18Z 4088   5.434   7.758   8.003 -0.5434  1.5907  0.6789
   31SAPC     N 4089   7.019   1.072   5.775  0.2246 -0.2152  0.0744
   31SAPC   C12 4090   7.088   0.937   5.770 -0.6073 -0.8093  0.5193
   31SAPC  H12A 4091   7.193   0.957   5.784 -0.6406 -0.4422  0.2501
   31SAPC  H12B 4092   7.081   0.899   5.669  1.7315  0.9134 -0.3305
   31SAPC   C13 4093   7.061   1.157   5.658 -0.7648  0.0299 -0.0301
   31SAPC  H13A 4094   7.031   1.110   5.566  1.7770  0.3106 -1.0560
   31SAPC  H13B 4095   7.020   1.257   5.659  0.1982  0.4285  0.8965
   31SAPC  H13C 4096   7.165   1.187   5.664 -1.1303  1.0425  1.7242
   31SAPC   C14 4097   6.866   1.062   5.773  0.1030  0.4395  0.1743
   31SAPC  H14A 4098   6.823   1.159   5.754 -3.1452 -0.2150  3.6026
   31SAPC  H14B 4099   6.830   0.998   5.693  0.1640 -0.3254  0.7471
   31SAPC  H14C 4100   6.831   1.020   5.867 -1.6113 -2.1097 -1.5203
   31SAPC   C15 4101   7.051   1.140   5.904 -0.3858 -0.1241  0.0156
   31SAPC  H15A 4102   7.017   1.073   5.981 -1.7977  1.1876  0.5542
   31SAPC  H15B 4103   7.157   1.151   5.926  0.0582 -3.0084 -0.5337
   31SAPC  H15C 4104   6.999   1.235   5.908 -0.0642  0.1188 -1.3821
   31SAPC   C11 4105   7.034   0.824   5.853 -0.4560  0.1988  0.5637
   31SAPC  H11A 4106   7.076   0.723   5.833 -1.5092 -0.1150 -0.1560
   31SAPC  H11B 4107   6.926   0.815   5.827  0.2284  2.0329 -3.2907
   31SAPC     P 4108   7.183   0.822   6.065  0.1232  0.2337 -0.3024
   31SAPC   O13 4109   7.225   0.679   6.039  0.0582 -0.1802 -0.4417
   31SAPC   O14 4110   7.281   0.933   6.036  0.0770 -0.1300 -0.0469
   31SAPC   O12 4111   7.045   0.844   5.987 -0.1708  0.0466  0.0678
   31SAPC   O11 4112   7.134   0.840   6.214  0.1557  0.2545  0.1672
   31SAPC    C1 4113   7.045   0.950   6.239  0.0313  0.3177  0.3412
   31SAPC    HA 4114   7.003   0.998   6.148  1.6223 -0.1462 -0.6458
   31SAPC    HB 4115   6.953   0.915   6.293  1.2738 -2.5652  0.7042
   31SAPC    C2 4116   7.120   1.057   6.317 -0.2754  0.6120  0.1259
   31SAPC    HS 4117   7.224   1.059   6.278 -0.9499  3.4027 -1.6518
   31SAPC   O21 4118   7.126   1.012   6.452 -0.6412 -0.6288 -0.6012
   31SAPC   C21 4119   7.230   1.068   6.519 -0.3778  0.8814 -0.9332
   31SAPC   O22 4120   7.313   1.138   6.466  0.8631 -0.4489 -0.2293
   31SAPC   C22 4121   7.219   1.041   6.670 -0.1664  0.2056 -0.1666
   31SAPC   H2R 4122   7.165   0.945   6.687  0.8187  0.3369  4.3165
   31SAPC   H2S 4123   7.322   1.037   6.710  0.8704 -0.0367 -2.7831
   31SAPC    C3 4124   7.061   1.198   6.303  0.6908  0.0402 -0.0658
   31SAPC    HX 4125   7.050   1.235   6.199  2.8925  1.9307  0.3204
   31SAPC    HY 4126   7.143   1.262   6.344  0.5515  0.5850 -0.6280
   31SAPC   O31 4127   6.931   1.220   6.377  0.2612 -0.0820  0.0436
   31SAPC   C31 4128   6.909   1.353   6.384  0.0604 -0.5576  0.7988
   31SAPC   O32 4129   6.988   1.442   6.363 -0.0059  0.6966  0.4896
   31SAPC   C32 4130   6.763   1.375   6.436  0.5221 -0.3863  0.3262
   31SAPC   H2X 4131   6.698   1.313   6.371 -1.5112  2.2719 -0.2686
   31SAPC   H2Y 4132   6.742   1.484   6.422  1.4102 -0.3398 -0.7239
   31SAPC   C23 4133   7.142   1.153   6.743  0.1510 -0.7137 -0.2545
   31SAPC   H3R 4134   7.077   1.107   6.820  0.1233 -1.9290 -1.0046
   31SAPC   H3S 4135   7.082   1.208   6.668  0.2135 -0.7106 -0.3025
   31SAPC   C24 4136   7.241   1.245   6.816 -0.1621 -0.4182  0.6580
   31SAPC   H4R 4137   7.291   1.183   6.893  1.8310 -1.3933 -1.3614
   31SAPC   H4S 4138   7.186   1.322   6.874 -1.1095  1.5646 -2.7406
   31SAPC   C25 4139   7.329   1.324   6.720 -0.1334 -0.1190  0.6299
   31SAPC   H5R 4140   7.423   1.277   6.688  0.4460  1.1626  0.4223
   31SAPC   C26 4141   7.302   1.446   6.675  0.3700  0.2036 -0.7710
   31SAPC   H6R 4142   7.368   1.479   6.594  1.4677  0.5733  0.2405
   31SAPC   C27 4143   7.188   1.537   6.720  0.9346  0.0348  0.2801
   31SAPC   H7R 4144   7.211   1.568   6.824 -0.3302  1.1914  0.2185
   31SAPC   H7S 4145   7.091   1.483   6.729  0.5455  0.7865  0.5677
   31SAPC   C28 4146   7.184   1.659   6.625  0.7071 -0.4016 -0.3645
   31SAPC   H8R 4147   7.179   1.628   6.520 -2.2965 -2.1656  0.2349
   31SAPC   C29 4148   7.192   1.789   6.669 -0.4089  0.1714 -0.9366
   31SAPC   H9R 4149   7.211   1.862   6.589 -3.3662  3.3055  1.0853
   31SAPC  C210 4150   7.208   1.842   6.819  0.1788  0.1228 -0.4407
   31SAPC  H10R 4151   7.113   1.812   6.867  1.0381  0.3760  1.4399
   31SAPC  H10S 4152   7.199   1.953   6.814  0.0590  0.0932 -0.9456
   31SAPC  C211 4153   7.323   1.795   6.899  0.3164 -0.3261  0.4752
   31SAPC  H11R 4154   7.408   1.780   6.831  2.2993  0.9075  2.6289
   31SAPC  C212 4155   7.331   1.790   7.032 -0.0694  0.2002 -0.2042
   31SAPC  H12R 4156   7.424   1.750   7.075  1.6696  3.5869 -0.6248
   31SAPC  C213 4157   7.222   1.822   7.126 -0.2300  0.4548  0.2972
   31SAPC  H13R 4158   7.156   1.733   7.120 -1.7695  1.5989  0.1633
   31SAPC  H13S 4159   7.172   1.919   7.104  1.5137  0.9272 -1.8746
   31SAPC  C214 4160   7.282   1.829   7.268  0.1640  0.0643  0.2618
   31SAPC  H14R 4161   7.384   1.869   7.261  0.5329 -1.3855 -4.9336
   31SAPC  C215 4162   7.230   1.804   7.388  0.3127 -0.5940 -0.4632
   31SAPC  H15R 4163   7.308   1.822   7.464  0.0641  0.9062 -0.5411
   31SAPC  C216 4164   7.091   1.757   7.435  0.3851  0.3510  0.2822
   31SAPC  H16R 4165   7.021   1.746   7.349  0.0746 -0.4315  0.6365
   31SAPC  H16S 4166   7.045   1.835   7.500 -2.3777 -2.2005  1.5349
   31SAPC  C217 4167   7.103   1.628   7.515 -0.2001 -0.2363 -0.3923
   31SAPC  H17R 4168   7.168   1.638   7.605  1.0543  1.6137 -1.4812
   31SAPC  H17S 4169   7.146   1.564   7.434  0.5398 -2.7176  1.8755
   31SAPC  C218 4170   6.982   1.556   7.582 -0.1318  0.0264  0.2881
   31SAPC  H18R 4171   6.916   1.537   7.495  0.1794  0.8516 -0.1344
   31SAPC  H18S 4172   6.943   1.612   7.669 -2.1720 -0.8497 -0.0524
   31SAPC  C219 4173   7.022   1.419   7.640  1.1296 -0.5040  0.5295
   31SAPC  H19R 4174   7.101   1.427   7.717  0.0538 -0.9066  1.6817
   31SAPC  H19S 4175   7.073   1.358   7.561  2.4891  0.5408  0.5695
   31SAPC  C220 4176   6.904   1.344   7.690  0.1231  0.3553  0.3093
   31SAPC  H20R 4177   6.837   1.370   7.606  1.1653  2.2452  0.0430
   31SAPC  H20S 4178   6.857   1.384   7.782  0.4172  0.2113  0.5253
   31SAPC  H20T 4179   6.931   1.238   7.713  1.8989  1.2600  2.6526
   31SAPC   C33 4180   6.759   1.340   6.580 -0.3613  0.0910 -0.3647
   31SAPC   H3X 4181   6.821   1.250   6.599 -0.1713  0.2790 -0.0934
   31SAPC   H3Y 4182   6.658   1.319   6.622 -1.1318  0.9396 -1.7302
   31SAPC   C34 4183   6.791   1.468   6.664 -0.6337  0.2775 -0.2806
   31SAPC   H4X 4184   6.722   1.549   6.634 -0.2886  1.3141  1.6603
   31SAPC   H4Y 4185   6.894   1.511   6.662 -0.9977  1.1283 -0.6905
   31SAPC   C35 4186   6.784   1.439   6.815 -0.2834  0.6088  0.1217
   31SAPC   H5X 4187   6.678   1.426   6.845 -0.5195  0.6594 -0.6709
   31SAPC   H5Y 4188   6.818   1.524   6.878  0.7056 -0.5195  1.1426
   31SAPC   C36 4189   6.869   1.323   6.869 -0.4213 -0.3442  0.2334
   31SAPC   H6X 4190   6.969   1.322   6.819  0.9798 -0.3058  2.9759
   31SAPC   H6Y 4191   6.812   1.233   6.836  1.5502 -0.2465 -3.8511
   31SAPC   C37 4192   6.908   1.318   7.022 -0.5177  0.3646 -0.9822
   31SAPC   H7X 4193   6.983   1.237   7.031  0.3212  1.0734 -1.4896
   31SAPC   H7Y 4194   6.822   1.294   7.088  1.6142  0.5285  1.9453
   31SAPC   C38 4195   6.965   1.445   7.074  0.1074 -0.2943 -0.0341
   31SAPC   H8X 4196   6.887   1.521   7.093  0.3147 -0.7168  2.7408
   31SAPC   H8Y 4197   7.044   1.476   7.002  0.6409  2.2414  1.5987
   31SAPC   C39 4198   7.030   1.432   7.212 -0.3850 -0.1506  0.2462
   31SAPC   H9X 4199   6.957   1.387   7.283 -3.3853 -0.4629 -2.8576
   31SAPC   H9Y 4200   7.056   1.530   7.257 -0.1193 -0.1550  0.0988
   31SAPC  C310 4201   7.157   1.352   7.213 -0.7169 -0.4036  0.4723
   31SAPC  H10X 4202   7.144   1.250   7.172  0.1472 -0.1591 -0.4338
   31SAPC  H10Y 4203   7.192   1.324   7.314  0.1561 -2.3781 -0.3532
   31SAPC  C311 4204   7.267   1.430   7.139 -0.3900  0.1126  0.3773
   31SAPC  H11X 4205   7.283   1.523   7.198  1.3053  1.5834 -2.3083
   31SAPC  H11Y 4206   7.244   1.466   7.036  1.1790  1.9845  0.6413
   31SAPC  C312 4207   7.403   1.364   7.129  1.2336  0.2794  0.3700
   31SAPC  H12X 4208   7.465   1.411   7.049 -0.7866  1.4224 -0.5765
   31SAPC  H12Y 4209   7.386   1.257   7.104 -0.6590 -0.0960  3.0187
   31SAPC  C313 4210   7.484   1.367   7.257 -0.1199 -0.2368 -0.1629
   31SAPC  H13X 4211   7.427   1.328   7.344  0.9185  0.6301  0.9115
   31SAPC  H13Y 4212   7.504   1.474   7.281  0.4509 -0.1025 -1.2051
   31SAPC  C314 4213   7.617   1.281   7.249 -0.0555 -0.4020 -0.2998
   31SAPC  H14X 4214   7.687   1.327   7.176  0.3767 -1.5227 -0.6178
   31SAPC  H14Y 4215   7.594   1.180   7.207 -0.7924  0.4281 -1.9618
   31SAPC  C315 4216   7.695   1.276   7.386 -0.3321  0.4607  0.3401
   31SAPC  H15X 4217   7.698   1.377   7.432 -0.0428 -0.4297  2.3494
   31SAPC  H15Y 4218   7.797   1.244   7.355  0.4082  1.0001  2.1378
   31SAPC  C316 4219   7.645   1.187   7.500  0.0202  0.0195  0.0160
   31SAPC  H16X 4220   7.642   1.085   7.455  0.3544  0.0632 -0.1074
   31SAPC  H16Y 4221   7.542   1.218   7.526 -0.1062  0.2182 -0.6960
   31SAPC  C317 4222   7.735   1.173   7.621  0.3504  0.1733 -0.1427
   31SAPC  H17X 4223   7.750   1.275   7.664  0.0103  0.2794 -0.2713
   31SAPC  H17Y 4224   7.836   1.144   7.585  0.6708  2.1225 -0.9276
   31SAPC  C318 4225   7.672   1.071   7.722 -0.3903  0.4136  1.1044
   31SAPC  H18X 4226   7.655   0.972   7.676  0.4035  0.6106  0.3549
   31SAPC  H18Y 4227   7.580   1.120   7.760 -1.9237  0.3008 -2.2542
   31SAPC  H18Z 4228   7.746   1.064   7.804 -1.0923  0.3850  1.7365
   32SAPC     N 4229   0.338   0.635   6.164 -0.2631  0.4476  0.9343
   32SAPC   C12 4230   0.346   0.484   6.199  1.3626 -0.4100 -0.0609
   32SAPC  H12A 4231   0.451   0.459   6.198  1.2259 -0.9771 -1.1143
   32SAPC  H12B 4232   0.301   0.430   6.116 -3.5556  0.3252  1.9461
   32SAPC   C13 4233   0.418   0.665   6.046 -0.5500 -0.7372 -1.0020
   32SAPC  H13A 4234   0.524   0.658   6.063 -0.6426  0.1294 -0.0711
   32SAPC  H13B 4235   0.409   0.588   5.970 -1.3612 -2.7166  1.0608
   32SAPC  H13C 4236   0.380   0.756   6.002  0.2631  1.0729  1.9115
   32SAPC   C14 4237   0.201   0.672   6.131  0.7076 -0.2376 -0.0496
   32SAPC  H14A 4238   0.187   0.777   6.112 -0.7874 -0.0997  1.7219
   32SAPC  H14B 4239   0.169   0.610   6.048  2.8335 -0.2395 -0.9215
   32SAPC  H14C 4240   0.140   0.642   6.215  1.0001  1.0372  0.6226
   32SAPC   C15 4241   0.389   0.725   6.272  0.2832 -0.0855 -0.1188
   32SAPC  H15A 4242   0.497   0.720   6.277  0.3255  0.5501 -0.3911
   32SAPC  H15B 4243   0.365   0.827   6.245 -2.6215 -1.0260 -1.1833
   32SAPC  H15C 4244   0.356   0.698   6.371  1.0276 -0.3655  0.0623
   32SAPC   C11 4245   0.267   0.432   6.322  0.8512  0.1505  0.1557
   32SAPC  H11A 4246   0.298   0.487   6.413 -1.1234  2.9046 -0.7511
   32SAPC  H11B 4247   0.295   0.330   6.355 -1.5984 -0.9060 -0.9238
   32SAPC     P 4248   0.044   0.304   6.231  0.0917 -0.0928  0.0995
   32SAPC   O13 4249  -0.097   0.344   6.203 -0.2200 -0.0296 -0.5451
   32SAPC   O14 4250   0.121   0.260   6.116 -0.0691  0.4268 -0.7437
   32SAPC   O12 4251   0.118   0.430   6.304  0.1420  0.3756 -0.1503
   32SAPC   O11 4252   0.044   0.190   6.335  0.8840 -0.5540 -0.3073
   32SAPC    C1 4253   0.075   0.211   6.471 -0.2181 -0.2702  0.1224
   32SAPC    HA 4254   0.183   0.227   6.493 -0.1266  1.3656 -1.4413
   32SAPC    HB 4255   0.023   0.302   6.508  1.3761  1.1609 -1.0766
   32SAPC    C2 4256   0.035   0.081   6.549  0.5312  0.2866 -0.1342
   32SAPC    HS 4257  -0.068   0.045   6.532  0.2657  1.3272 -0.6938
   32SAPC   O21 4258   0.051   0.089   6.691 -0.4329  0.0339  0.0952
   32SAPC   C21 4259  -0.034   0.171   6.754  0.8739  0.1049  0.3276
   32SAPC   O22 4260  -0.117   0.240   6.697  0.9763 -0.1170 -0.4600
   32SAPC   C22 4261   0.006   0.180   6.903 -0.1229  0.1008  0.2559
   32SAPC   H2R 4262  -0.034   0.085   6.943  1.8028 -0.4495  0.9062
   32SAPC   H2S 4263   0.117   0.177   6.908  0.0153  2.7741 -0.3741
   32SAPC    C3 4264   0.135  -0.036   6.511 -0.2770  0.3744  0.2290
   32SAPC    HX 4265   0.118  -0.061   6.405 -1.3300  1.7090  0.0640
   32SAPC    HY 4266   0.114  -0.129   6.569  3.3287 -0.5870  0.1040
   32SAPC   O31 4267   0.272  -0.010   6.544 -0.2036 -0.2049 -0.1583
   32SAPC   C31 4268   0.369   0.009   6.451  0.3235 -0.2141 -0.0966
   32SAPC   O32 4269   0.353  -0.008   6.334 -0.4584  0.2399 -0.1808
   32SAPC   C32 4270   0.492   0.066   6.524 -0.1678 -0.0207 -0.4619
   32SAPC   H2X 4271   0.548  -0.019   6.570 -1.6982 -1.1068 -0.5339
   32SAPC   H2Y 4272   0.455   0.119   6.615 -0.7112 -0.9321 -0.1318
   32SAPC   C23 4273  -0.044   0.313   6.969 -0.7204 -0.0535  0.6893
   32SAPC   H3R 4274  -0.154   0.322   6.962 -0.5718  1.6263  0.1817
   32SAPC   H3S 4275  -0.003   0.398   6.910 -1.6061  0.7204  1.1760
   32SAPC   C24 4276  -0.009   0.317   7.120 -0.3910  0.5042  0.1909
   32SAPC   H4R 4277  -0.055   0.222   7.153 -0.9523 -0.5666 -3.4889
   32SAPC   H4S 4278  -0.060   0.396   7.179 -1.4058  0.1508 -0.1966
   32SAPC   C25 4279   0.135   0.313   7.152 -0.3421 -0.3903 -0.0284
   32SAPC   H5R 4280   0.200   0.400   7.132  0.7632 -1.5037 -1.3333
   32SAPC   C26 4281   0.198   0.210   7.207  0.1751  0.6695  0.2585
   32SAPC   H6R 4282   0.306   0.212   7.232 -0.0059 -2.1593  1.4762
   32SAPC   C27 4283   0.123   0.081   7.246  0.2364  0.8019 -1.0246
   32SAPC   H7R 4284   0.094   0.027   7.153 -0.1210 -0.9834  0.1017
   32SAPC   H7S 4285   0.038   0.115   7.309  0.3354  0.5590 -0.7593
   32SAPC   C28 4286   0.222  -0.007   7.323  0.1598 -0.1088 -0.0696
   32SAPC   H8R 4287   0.324  -0.022   7.283 -0.2690 -1.4119 -0.7157
   32SAPC   C29 4288   0.192  -0.067   7.443 -0.7108 -0.1863 -0.3055
   32SAPC   H9R 4289   0.270  -0.123   7.497 -1.2106 -1.3231 -0.7517
   32SAPC  C210 4290   0.066  -0.068   7.516 -0.2547  0.2383 -0.4665
   32SAPC  H10R 4291   0.038  -0.168   7.557  2.2230  0.5179  2.0042
   32SAPC  H10S 4292  -0.022  -0.034   7.457  0.2051  1.2317 -0.5835
   32SAPC  C211 4293   0.060   0.034   7.633  0.7321 -0.4757  0.6183
   32SAPC  H11R 4294   0.006   0.127   7.609 -0.1803 -0.7178  1.6772
   32SAPC  C212 4295   0.104   0.020   7.759  0.3273 -0.0855  0.0499
   32SAPC  H12R 4296   0.092   0.100   7.833 -0.6199 -1.6422  1.6320
   32SAPC  C213 4297   0.164  -0.095   7.816 -0.2029  0.3351 -0.0380
   32SAPC  H13R 4298   0.274  -0.099   7.800 -0.3802 -0.4901 -1.1477
   32SAPC  H13S 4299   0.127  -0.184   7.761 -0.7432  0.1128  0.6871
   32SAPC  C214 4300   0.142  -0.114   7.960  0.4177  0.0291  0.1645
   32SAPC  H14R 4301   0.057  -0.181   7.980 -0.0458  0.4331 -0.4371
   32SAPC  C215 4302   0.230  -0.072   8.055 -0.1405  0.3344 -0.7312
   32SAPC  H15R 4303   0.199  -0.075   8.161 -1.6960  1.5285 -1.1319
   32SAPC  C216 4304   0.360   0.003   8.043 -0.0507 -0.3005 -0.3764
   32SAPC  H16R 4305   0.386   0.027   7.938  0.4979 -0.3148 -0.2463
   32SAPC  H16S 4306   0.439  -0.070   8.074 -1.3500 -1.6178 -0.0952
   32SAPC  C217 4307   0.365   0.121   8.129  0.1375 -0.0193 -0.2021
   32SAPC  H17R 4308   0.469   0.161   8.130  0.7254 -1.5347 -0.4685
   32SAPC  H17S 4309   0.337   0.098   8.234 -0.0261  0.3602 -0.1621
   32SAPC  C218 4310   0.281   0.234   8.069 -0.0675 -0.3243  0.3778
   32SAPC  H18R 4311   0.181   0.219   8.115  0.2061 -0.0138  1.0874
   32SAPC  H18S 4312   0.283   0.215   7.960 -1.3968 -0.9388  0.4535
   32SAPC  C219 4313   0.325   0.380   8.103  0.0460 -0.0887 -0.1658
   32SAPC  H19R 4314   0.240   0.445   8.076  1.3403  1.1777 -1.2537
   32SAPC  H19S 4315   0.409   0.417   8.040  0.0563  1.4303  0.7115
   32SAPC  C220 4316   0.367   0.400   8.251  1.0120 -0.0560 -0.0898
   32SAPC  H20R 4317   0.292   0.353   8.319  1.5069  0.7796  1.0558
   32SAPC  H20S 4318   0.367   0.511   8.263  0.1219  0.2920 -2.9442
   32SAPC  H20T 4319   0.467   0.362   8.281  0.8539 -1.3491 -1.1696
   32SAPC   C33 4320   0.571   0.172   6.442  0.0316 -0.4283  0.2161
   32SAPC   H3X 4321   0.499   0.237   6.388 -2.1257 -3.9583 -1.3488
   32SAPC   H3Y 4322   0.627   0.113   6.366  0.9098 -1.9695  2.0167
   32SAPC   C34 4323   0.690   0.257   6.507  0.7349 -0.1632 -0.5549
   32SAPC   H4X 4324   0.752   0.301   6.426 -1.4799  4.2902  0.0014
   32SAPC   H4Y 4325   0.752   0.188   6.568  0.1559 -0.6832 -0.5516
   32SAPC   C35 4326   0.641   0.367   6.604  0.1055 -0.3141  0.1063
   32SAPC   H5X 4327   0.719   0.391   6.680  0.6525 -4.2850  0.9203
   32SAPC   H5Y 4328   0.558   0.323   6.664 -2.1644  1.3935 -1.7041
   32SAPC   C36 4329   0.588   0.487   6.532 -0.3996  0.0801 -0.5272
   32SAPC   H6X 4330   0.516   0.448   6.457 -1.0785  0.3524 -0.0280
   32SAPC   H6Y 4331   0.679   0.540   6.496  1.5013 -0.8972  2.6156
   32SAPC   C37 4332   0.519   0.596   6.621  0.6316 -0.9645 -0.1662
   32SAPC   H7X 4333   0.528   0.696   6.573  0.0403 -0.1860  1.3161
   32SAPC   H7Y 4334   0.584   0.602   6.711  0.6847 -0.2442 -0.2513
   32SAPC   C38 4335   0.377   0.570   6.673  0.1087  0.9685 -0.3594
   32SAPC   H8X 4336   0.358   0.473   6.724 -0.7579  1.0861 -0.4564
   32SAPC   H8Y 4337   0.297   0.579   6.597  0.4358  1.1637 -0.6852
   32SAPC   C39 4338   0.350   0.678   6.781 -0.4799  0.4383 -0.1831
   32SAPC   H9X 4339   0.403   0.770   6.750 -1.2390 -0.0821 -3.1385
   32SAPC   H9Y 4340   0.402   0.655   6.877  0.7854  1.5111 -0.5881
   32SAPC  C310 4341   0.204   0.699   6.805  0.0671  0.7242  0.4341
   32SAPC  H10X 4342   0.162   0.607   6.850  3.1097 -1.3427 -0.8150
   32SAPC  H10Y 4343   0.142   0.718   6.715  2.7562 -1.2854 -1.9116
   32SAPC  C311 4344   0.188   0.816   6.905 -0.1675  0.9386  0.2406
   32SAPC  H11X 4345   0.120   0.892   6.862  0.0029  0.9925  0.0615
   32SAPC  H11Y 4346   0.289   0.864   6.904  1.7884 -2.9903  1.4981
   32SAPC  C312 4347   0.146   0.779   7.047  0.3462  0.6843  0.3736
   32SAPC  H12X 4348   0.211   0.709   7.104 -1.7055 -2.4497 -1.0048
   32SAPC  H12Y 4349   0.047   0.731   7.030  1.1264 -0.4005 -1.1700
   32SAPC  C313 4350   0.104   0.903   7.120 -0.1939 -0.1466  0.0646
   32SAPC  H13X 4351   0.045   0.968   7.052 -1.8862 -2.1339 -0.4022
   32SAPC  H13Y 4352   0.199   0.958   7.139  0.3784 -0.2944 -2.1241
   32SAPC  C314 4353   0.020   0.883   7.249 -0.0711  0.0965 -0.0183
   32SAPC  H14X 4354   0.083   0.818   7.312 -1.0439 -1.8260 -0.9909
   32SAPC  H14Y 4355  -0.080   0.842   7.225  0.1486 -0.7804  0.5673
   32SAPC  C315 4356   0.001   1.010   7.335 -0.1242 -1.1317 -0.1387
   32SAPC  H15X 4357  -0.070   1.081   7.286  0.0420  0.2494  1.5601
   32SAPC  H15Y 4358   0.098   1.064   7.338 -0.6280 -0.1607 -0.8065
   32SAPC  C316 4359  -0.055   0.997   7.474 -0.6004 -0.8044  0.2596
   32SAPC  H16X 4360  -0.085   1.096   7.515 -1.0845 -1.3010  1.1179
   32SAPC  H16Y 4361   0.026   0.956   7.537  0.4992 -0.7543 -1.0984
   32SAPC  C317 4362  -0.185   0.918   7.478  0.5356 -0.5026 -0.1880
   32SAPC  H17X 4363  -0.162   0.809   7.475  1.5156 -0.3353  0.6760
   32SAPC  H17Y 4364  -0.250   0.934   7.390 -1.1329 -0.7744  0.9687
   32SAPC  C318 4365  -0.276   0.938   7.603 -0.5453 -0.1277  0.0135
   32SAPC  H18X 4366  -0.213   0.931   7.694 -2.7642 -1.3016  1.5315
   32SAPC  H18Y 4367  -0.367   0.873   7.607 -0.2323 -0.5274  0.8547
   32SAPC  H18Z 4368  -0.310   1.044   7.601 -0.0597  0.0050 -1.2080
   33POPC     N 4369   3.946   3.063   9.917 -0.8413  0.7453  0.1906
   33POPC   C12 4370   3.867   3.188   9.881 -0.0003 -0.3414  0.1645
   33POPC  H12A 4371   3.763   3.161   9.866 -0.2935 -0.0861  1.5967
   33POPC  H12B 4372   3.902   3.220   9.784  1.2572  0.2429  0.7940
   33POPC   C13 4373   4.093   3.102   9.898  0.1843  0.1006 -0.4943
   33POPC  H13A 4374   4.094   3.168   9.812 -1.3969 -0.1680 -0.7508
   33POPC  H13B 4375   4.131   3.152   9.986 -3.1415  0.8348  0.6130
   33POPC  H13C 4376   4.158   3.017   9.887 -2.4648 -2.2144  1.1038
   33POPC   C14 4377   3.923   3.010  10.057 -0.2792  0.4293  0.0652
   33POPC  H14A 4378   3.947   3.081  10.135 -2.8933  0.4980  0.8558
   33POPC  H14B 4379   3.825   2.967  10.070  0.2980 -0.3291  1.9509
   33POPC  H14C 4380   3.986   2.925  10.077 -1.0481 -0.3617 -0.8186
   33POPC   C15 4381   3.908   2.961   9.817  0.8276  0.1056  0.2269
   33POPC  H15A 4382   3.941   2.861   9.843 -1.2946 -0.2173  1.9167
   33POPC  H15B 4383   3.940   2.993   9.720 -0.1242 -1.5835 -0.6751
   33POPC  H15C 4384   3.801   2.951   9.806  0.7394  0.7093  0.5276
   33POPC   C11 4385   3.871   3.307   9.982  0.0135  0.4225 -0.4238
   33POPC  H11A 4386   3.976   3.345   9.990 -0.6508  2.1293  0.5728
   33POPC  H11B 4387   3.832   3.277  10.081  2.3423  1.2634  0.7857
   33POPC     P 4388   3.811   3.560   9.964 -0.0324 -0.3105  0.2704
   33POPC   O13 4389   3.829   3.572  10.107  0.5846  0.6324  0.0661
   33POPC   O14 4390   3.713   3.651   9.901 -0.0676 -0.1470 -0.2041
   33POPC   O12 4391   3.779   3.402   9.927  0.0576 -0.2949 -0.4838
   33POPC   O11 4392   3.959   3.581   9.901  0.0610  0.2263 -0.5573
   33POPC    C1 4393   3.971   3.648   9.769  0.6555  0.3727 -1.1998
   33POPC    HA 4394   3.878   3.692   9.728 -0.4655 -1.2536 -0.4684
   33POPC    HB 4395   4.034   3.740   9.775 -0.7611  1.4571 -2.5465
   33POPC    C2 4396   4.031   3.550   9.654  0.0278  0.2770  0.2963
   33POPC    HS 4397   4.065   3.610   9.567 -1.9448 -0.5366 -1.0751
   33POPC   O21 4398   3.927   3.457   9.615  0.1841  0.3400  0.0476
   33POPC   C21 4399   3.924   3.432   9.487 -0.2043  0.4512 -0.8982
   33POPC   O22 4400   3.990   3.487   9.400 -0.4044  0.1799  0.1952
   33POPC   C22 4401   3.829   3.313   9.460  0.3875 -0.4766  0.4495
   33POPC   H2R 4402   3.769   3.281   9.548 -0.7454  1.1918  0.3272
   33POPC   H2S 4403   3.896   3.229   9.433 -1.4215 -1.6106 -0.5786
   33POPC    C3 4404   4.152   3.468   9.708  0.1874 -1.4157 -0.0673
   33POPC    HX 4405   4.118   3.395   9.784 -0.5425  0.1500  1.1572
   33POPC    HY 4406   4.213   3.538   9.770  1.0581 -2.1691 -0.0539
   33POPC   O31 4407   4.218   3.404   9.597  0.0554 -0.3374  0.0484
   33POPC   C31 4408   4.301   3.480   9.526 -0.6144 -0.4308 -0.5729
   33POPC   O32 4409   4.345   3.588   9.565 -0.4705 -0.8729 -0.2913
   33POPC   C32 4410   4.321   3.417   9.391  0.2342 -0.4321 -0.0884
   33POPC   H2X 4411   4.255   3.466   9.316 -0.7559  0.3682  1.2829
   33POPC   H2Y 4412   4.296   3.309   9.394  0.5441 -0.4554  1.8469
   33POPC   C23 4413   3.729   3.328   9.339 -0.0555  0.3281  0.1957
   33POPC   H3R 4414   3.762   3.368   9.241 -1.1634  0.2273 -0.2231
   33POPC   H3S 4415   3.647   3.398   9.368 -1.7376 -1.1630 -0.9168
   33POPC   C24 4416   3.659   3.196   9.313 -0.5762  0.4617  0.2844
   33POPC   H4R 4417   3.611   3.171   9.409  1.6075  1.2365  1.6212
   33POPC   H4S 4418   3.733   3.116   9.291 -1.8527 -0.2277 -1.6424
   33POPC   C25 4419   3.560   3.195   9.197  0.1361  0.0218  0.0286
   33POPC   H5R 4420   3.478   3.266   9.224 -0.7493 -1.1821  0.5338
   33POPC   H5S 4421   3.511   3.096   9.188  0.1479 -0.0691  0.8607
   33POPC   C26 4422   3.613   3.225   9.061 -0.1463 -0.4924 -0.4123
   33POPC   H6R 4423   3.700   3.156   9.052  0.0117 -0.2904 -0.4421
   33POPC   H6S 4424   3.652   3.329   9.055  2.1912 -1.2029  1.6307
   33POPC   C27 4425   3.517   3.202   8.942  0.1459 -0.0901  0.4030
   33POPC   H7R 4426   3.438   3.279   8.957  0.1328  0.8734 -4.0421
   33POPC   H7S 4427   3.472   3.101   8.928 -2.2551  1.3512 -2.9463
   33POPC   C28 4428   3.588   3.232   8.807 -0.7599 -0.1846  0.2068
   33POPC   H8R 4429   3.525   3.192   8.725  0.2162  1.8097 -1.5745
   33POPC   H8S 4430   3.671   3.160   8.806 -0.8964 -0.3440  0.3034
   33POPC   C29 4431   3.628   3.369   8.776  0.5767  0.0796  0.1494
   33POPC   H91 4432   3.726   3.395   8.819  0.2239  0.6470  0.6213
   33POPC  C210 4433   3.576   3.464   8.690 -0.5113  0.1641  0.0165
   33POPC  H101 4434   3.612   3.567   8.704  1.9956 -0.6379 -0.2687
   33POPC  C211 4435   3.450   3.432   8.614  0.1260 -0.3747  0.9854
   33POPC  H11R 4436   3.382   3.519   8.611  1.9638  1.0152 -1.8037
   33POPC  H11S 4437   3.396   3.351   8.669  0.9408 -0.0447  2.2975
   33POPC  C212 4438   3.461   3.386   8.470 -0.3620 -0.4774 -0.4986
   33POPC  H12R 4439   3.356   3.384   8.432 -0.8433  2.9858  0.5156
   33POPC  H12S 4440   3.482   3.277   8.472 -0.4898 -0.5177 -1.1152
   33POPC  C213 4441   3.568   3.465   8.384 -0.3258  0.6095  0.1133
   33POPC  H13R 4442   3.669   3.432   8.416 -0.6215  0.0824  0.5133
   33POPC  H13S 4443   3.552   3.571   8.413  1.1147  0.5573  1.1719
   33POPC  C214 4444   3.547   3.431   8.232 -0.1641  0.0731 -0.0633
   33POPC  H14R 4445   3.549   3.322   8.210  0.2896  0.3606 -1.4616
   33POPC  H14S 4446   3.630   3.472   8.171  0.1481  0.0313  0.3382
   33POPC  C215 4447   3.415   3.491   8.190  0.6824  0.6166  0.1699
   33POPC  H15R 4448   3.405   3.595   8.225 -2.0339  0.4710 -0.0743
   33POPC  H15S 4449   3.328   3.441   8.238 -0.9141  3.0868 -0.0595
   33POPC  C216 4450   3.396   3.491   8.033 -0.4556 -0.4638  0.0522
   33POPC  H16R 4451   3.375   3.384   8.010 -0.7670 -0.4192  0.1294
   33POPC  H16S 4452   3.494   3.525   7.995 -0.9965 -0.7023 -1.6271
   33POPC  C217 4453   3.282   3.584   7.986 -0.7121  0.1146 -0.2317
   33POPC  H17R 4454   3.324   3.686   7.980  0.2753 -0.2848 -0.1573
   33POPC  H17S 4455   3.215   3.581   8.075 -0.8001 -1.0065 -0.3221
   33POPC  C218 4456   3.208   3.535   7.865  0.3224  0.2370 -0.1130
   33POPC  H18R 4457   3.123   3.603   7.842 -0.0131  0.0828  0.6607
   33POPC  H18S 4458   3.166   3.434   7.883 -0.9367  0.6134 -0.8924
   33POPC  H18T 4459   3.275   3.526   7.777  1.5633  3.4912  0.4377
   33POPC   C33 4460   4.471   3.417   9.361 -0.1356  0.6956 -0.5683
   33POPC   H3X 4461   4.514   3.347   9.436 -2.7356  0.8064  1.0764
   33POPC   H3Y 4462   4.507   3.519   9.385  2.9390 -0.2994 -0.7035
   33POPC   C34 4463   4.506   3.380   9.221 -0.0713 -0.3807 -0.7138
   33POPC   H4X 4464   4.488   3.456   9.143 -2.1239 -1.5365 -1.4135
   33POPC   H4Y 4465   4.446   3.292   9.189 -0.6100 -0.0245 -0.6882
   33POPC   C35 4466   4.652   3.348   9.204 -0.1298  0.7673  0.5086
   33POPC   H5X 4467   4.666   3.314   9.099 -2.2732  0.4780  0.2797
   33POPC   H5Y 4468   4.661   3.266   9.278 -0.0845  0.2459 -0.0756
   33POPC   C36 4469   4.764   3.451   9.244 -0.5736 -0.5236 -0.1921
   33POPC   H6X 4470   4.758   3.464   9.355  0.5678 -1.2795 -0.0393
   33POPC   H6Y 4471   4.742   3.550   9.197 -0.4382  0.2489  1.3360
   33POPC   C37 4472   4.904   3.412   9.204  0.1549 -0.1759 -0.6376
   33POPC   H7X 4473   4.950   3.333   9.268 -0.2371  1.4413  1.7166
   33POPC   H7Y 4474   4.971   3.498   9.226 -1.5141  0.8053  0.7603
   33POPC   C38 4475   4.925   3.374   9.055 -0.3037  0.4917  0.4900
   33POPC   H8X 4476   4.890   3.456   8.990  2.1632 -0.6270 -2.3825
   33POPC   H8Y 4477   4.865   3.285   9.029  1.9532 -0.3410 -2.1324
   33POPC   C39 4478   5.071   3.346   9.017 -0.3671  0.5647 -0.1874
   33POPC   H9X 4479   5.092   3.251   9.070  0.0832  0.3311 -0.7806
   33POPC   H9Y 4480   5.140   3.432   9.026  0.6780 -0.4132  1.3156
   33POPC  C310 4481   5.100   3.316   8.874  0.1943  0.0313  0.0726
   33POPC  H10X 4482   5.079   3.409   8.817 -0.9030  0.5332  1.2751
   33POPC  H10Y 4483   5.031   3.242   8.828  0.5219 -0.7349  0.8011
   33POPC  C311 4484   5.250   3.273   8.851 -0.5020  0.3127  0.2598
   33POPC  H11X 4485   5.270   3.177   8.903 -3.3485 -0.5733 -0.1658
   33POPC  H11Y 4486   5.319   3.349   8.893  1.7011 -2.1536  1.1851
   33POPC  C312 4487   5.273   3.257   8.697  0.2155  0.6846  0.3389
   33POPC  H12X 4488   5.236   3.349   8.646 -0.8887 -1.4059 -2.8040
   33POPC  H12Y 4489   5.205   3.175   8.666  2.6585 -1.1832 -0.2406
   33POPC  C313 4490   5.410   3.214   8.641 -0.2229  0.2763 -0.2634
   33POPC  H13X 4491   5.438   3.122   8.697  1.1244  0.0346 -1.3018
   33POPC  H13Y 4492   5.491   3.283   8.674 -1.7027  0.7010  2.6939
   33POPC  C314 4493   5.409   3.183   8.498  0.5877  0.3632 -0.3507
   33POPC  H14X 4494   5.313   3.140   8.463 -0.2980  1.3568  0.8210
   33POPC  H14Y 4495   5.489   3.109   8.478  0.2650  0.0472 -0.4829
   33POPC  C315 4496   5.434   3.314   8.423  0.1219  0.4080 -0.0539
   33POPC  H15X 4497   5.529   3.361   8.457  1.1099 -1.1515 -0.6092
   33POPC  H15Y 4498   5.352   3.387   8.442  1.2476  2.0075 -1.2931
   33POPC  C316 4499   5.445   3.286   8.269  0.1089  0.4805  0.1500
   33POPC  H16X 4500   5.541   3.231   8.265  1.7673  3.2421  0.6356
   33POPC  H16Y 4501   5.462   3.378   8.210 -1.0343 -1.0436 -2.6058
   33POPC  H16Z 4502   5.365   3.224   8.224 -0.2694  1.1868 -0.1471
   34POPC     N 4503   3.735   4.948  10.337 -0.2057 -0.2809 -0.1444
   34POPC   C12 4504   3.673   4.812  10.293  1.0182 -0.6032  0.4341
   34POPC  H12A 4505   3.565   4.803  10.290  0.9080  0.9194 -0.5175
   34POPC  H12B 4506   3.703   4.747  10.374  2.8114  0.9723  1.0485
   34POPC   C13 4507   3.688   4.988  10.475 -0.2267 -0.0045 -0.0209
   34POPC  H13A 4508   3.704   4.913  10.551 -0.8813 -0.1080  0.0193
   34POPC  H13B 4509   3.739   5.073  10.518 -1.1049  0.4340  0.1529
   34POPC  H13C 4510   3.583   5.013  10.482 -0.0013  1.4502 -1.4051
   34POPC   C14 4511   3.886   4.947  10.344  0.3779  0.3854  0.3013
   34POPC  H14A 4512   3.922   5.041  10.381 -2.7552  1.5055  0.7018
   34POPC  H14B 4513   3.912   4.870  10.415  0.0500  1.2529  1.3815
   34POPC  H14C 4514   3.929   4.926  10.247 -0.6783 -1.3918  0.1919
   34POPC   C15 4515   3.691   5.051  10.237 -0.1694  0.6501 -0.1739
   34POPC  H15A 4516   3.585   5.059  10.220 -0.1577  0.7655 -0.1910
   34POPC  H15B 4517   3.746   5.033  10.146 -0.5847 -2.8694  0.1963
   34POPC  H15C 4518   3.726   5.146  10.274  1.2307  0.9904 -2.2838
   34POPC   C11 4519   3.709   4.751  10.151  0.9222  0.3106  0.0972
   34POPC  H11A 4520   3.819   4.761  10.135  0.9087  1.4561  0.6571
   34POPC  H11B 4521   3.661   4.809  10.069  1.5378 -0.1199 -0.5743
   34POPC     P 4522   3.527   4.564  10.115 -0.0463  0.3217 -0.1183
   34POPC   O13 4523   3.440   4.637  10.211  0.2278  0.2402 -0.2090
   34POPC   O14 4524   3.534   4.417  10.123  0.2174 -0.5254 -0.5108
   34POPC   O12 4525   3.671   4.615  10.146 -0.1100 -0.1570 -0.1263
   34POPC   O11 4526   3.508   4.613   9.967 -0.2566  0.1266  0.3194
   34POPC    C1 4527   3.525   4.524   9.858  0.6751  0.8282 -0.4361
   34POPC    HA 4528   3.460   4.550   9.772  0.3759  0.9794 -0.1656
   34POPC    HB 4529   3.515   4.417   9.886 -0.5915  0.7462 -1.1958
   34POPC    C2 4530   3.669   4.539   9.804  0.5116  0.7816 -0.1832
   34POPC    HS 4531   3.745   4.531   9.885 -0.8299  1.3165  1.1649
   34POPC   O21 4532   3.678   4.673   9.746 -0.1396  0.8779  0.0690
   34POPC   C21 4533   3.793   4.735   9.731  0.7006  0.1798 -0.7271
   34POPC   O22 4534   3.901   4.688   9.758 -0.1656  0.2593  0.2774
   34POPC   C22 4535   3.777   4.871   9.670 -0.4247 -0.5640  0.0645
   34POPC   H2R 4536   3.725   4.931   9.747  0.5084  0.7742 -0.3339
   34POPC   H2S 4537   3.708   4.871   9.583  0.8759 -1.9340 -0.9781
   34POPC    C3 4538   3.703   4.426   9.699  0.7085  0.4562 -0.0244
   34POPC    HX 4539   3.676   4.331   9.748  0.1800  0.3993 -0.4207
   34POPC    HY 4540   3.813   4.434   9.695  0.6117  1.3617 -1.0728
   34POPC   O31 4541   3.652   4.455   9.565 -0.2266  0.2812 -0.0523
   34POPC   C31 4542   3.537   4.399   9.541  0.0012  0.5497  0.3734
   34POPC   O32 4543   3.484   4.319   9.617  0.4975 -0.1001 -0.1334
   34POPC   C32 4544   3.475   4.457   9.414  0.6062 -0.1651 -0.1801
   34POPC   H2X 4545   3.369   4.427   9.421  0.7446 -0.1228  2.3444
   34POPC   H2Y 4546   3.509   4.421   9.314 -0.0949 -0.2468 -0.3872
   34POPC   C23 4547   3.917   4.928   9.640  0.4655  1.1632 -0.1962
   34POPC   H3R 4548   3.979   4.907   9.730  0.1545  0.0236 -0.2471
   34POPC   H3S 4549   3.903   5.038   9.637 -0.9208  1.0895  2.5388
   34POPC   C24 4550   3.979   4.897   9.505  0.3190  0.5568 -0.4282
   34POPC   H4R 4551   4.002   4.792   9.478  2.6189  1.4269 -2.0201
   34POPC   H4S 4552   4.073   4.955   9.491 -0.2204  0.7353 -3.5156
   34POPC   C25 4553   3.885   4.949   9.405 -0.7198 -0.3422 -0.2255
   34POPC   H5R 4554   3.846   5.047   9.440  0.6615  1.3748 -3.3126
   34POPC   H5S 4555   3.810   4.867   9.404 -0.8646 -0.2938  2.7919
   34POPC   C26 4556   3.944   4.963   9.261  0.0192  0.7875 -0.1095
   34POPC   H6R 4557   3.997   4.869   9.233  0.4941  1.2919 -0.9373
   34POPC   H6S 4558   4.010   5.052   9.257  1.4329  0.0086  3.7582
   34POPC   C27 4559   3.837   5.006   9.165 -0.0620  0.3341 -0.2199
   34POPC   H7R 4560   3.784   5.093   9.209 -1.2685  0.1432 -1.2419
   34POPC   H7S 4561   3.765   4.921   9.160 -1.0016  1.0264  1.2362
   34POPC   C28 4562   3.894   5.050   9.025 -0.0577 -0.6284 -0.4338
   34POPC   H8R 4563   3.809   5.078   8.959  0.8274  1.4943 -0.7269
   34POPC   H8S 4564   3.957   4.972   8.977  1.0383  1.3316 -2.2993
   34POPC   C29 4565   3.984   5.175   9.021  0.1055  0.3586  0.3006
   34POPC   H91 4566   4.069   5.174   9.091 -1.0494 -1.4958  1.7516
   34POPC  C210 4567   3.965   5.272   8.929 -0.1241  0.1441  0.0276
   34POPC  H101 4568   4.032   5.358   8.943 -1.2825  1.2366 -1.0753
   34POPC  C211 4569   3.869   5.291   8.820  0.2581  0.0686 -0.5589
   34POPC  H11R 4570   3.776   5.327   8.868 -1.1915  0.5617 -3.5884
   34POPC  H11S 4571   3.853   5.195   8.767  1.5999 -0.6883  0.3662
   34POPC  C212 4572   3.922   5.405   8.735 -0.2009  0.0017 -0.4465
   34POPC  H12R 4573   4.022   5.379   8.694  0.1037  2.0149 -1.0492
   34POPC  H12S 4574   3.931   5.503   8.787 -1.6037 -0.0176 -0.1674
   34POPC  C213 4575   3.836   5.438   8.615  0.4054 -0.0403 -0.2895
   34POPC  H13R 4576   3.731   5.456   8.646  0.5263  0.8136 -0.3667
   34POPC  H13S 4577   3.839   5.340   8.561  0.0765  0.8156 -1.9042
   34POPC  C214 4578   3.896   5.545   8.529 -0.0298 -0.5117  1.0630
   34POPC  H14R 4579   3.976   5.505   8.463  0.1665  1.2419  0.2097
   34POPC  H14S 4580   3.938   5.627   8.592 -0.9386  0.3260  0.6011
   34POPC  C215 4581   3.790   5.606   8.442  0.0108 -0.3965  0.4182
   34POPC  H15R 4582   3.705   5.659   8.490 -0.3999 -0.6542 -0.0073
   34POPC  H15S 4583   3.727   5.527   8.396 -1.4805  1.6400 -1.1487
   34POPC  C216 4584   3.843   5.684   8.320 -0.0722  0.7323  0.2298
   34POPC  H16R 4585   3.875   5.610   8.244  1.7800 -0.9663  2.5878
   34POPC  H16S 4586   3.928   5.751   8.344 -0.0293 -0.2808  3.0000
   34POPC  C217 4587   3.729   5.769   8.262 -0.5598  0.0567  0.0722
   34POPC  H17R 4588   3.774   5.832   8.182  2.9889 -1.3703  0.8575
   34POPC  H17S 4589   3.704   5.837   8.346 -1.5657  0.7109 -0.7332
   34POPC  C218 4590   3.597   5.703   8.223 -0.9999 -0.3006  0.7098
   34POPC  H18R 4591   3.557   5.648   8.311  1.7086  0.2277  2.3201
   34POPC  H18S 4592   3.615   5.635   8.137  0.9259 -2.4463  2.7414
   34POPC  H18T 4593   3.520   5.772   8.184  1.2612  0.5263 -2.4840
   34POPC   C33 4594   3.489   4.613   9.408 -0.1715  0.6757 -0.9722
   34POPC   H3X 4595   3.596   4.639   9.391  0.2865 -1.3531 -1.2969
   34POPC   H3Y 4596   3.458   4.669   9.498  0.0407 -0.9896  0.1677
   34POPC   C34 4597   3.418   4.675   9.278  0.4110 -0.0385 -0.1077
   34POPC   H4X 4598   3.438   4.784   9.267 -0.9831  0.2927  0.5463
   34POPC   H4Y 4599   3.310   4.656   9.297  0.5774 -1.6963 -0.7692
   34POPC   C35 4600   3.462   4.611   9.141 -0.3921  0.3824  0.3665
   34POPC   H5X 4601   3.440   4.502   9.146  0.9823  0.1242  1.1017
   34POPC   H5Y 4602   3.573   4.618   9.146 -0.3015 -0.2704 -0.6636
   34POPC   C36 4603   3.397   4.673   9.024 -0.4161  0.2496  0.1326
   34POPC   H6X 4604   3.286   4.662   9.030 -0.3502  0.4521  2.3482
   34POPC   H6Y 4605   3.426   4.618   8.932  2.4708  3.9665 -1.2696
   34POPC   C37 4606   3.418   4.820   9.013 -0.1720 -0.0685 -0.3103
   34POPC   H7X 4607   3.524   4.846   9.034  0.0878 -1.8145  0.6317
   34POPC   H7Y 4608   3.353   4.859   9.094 -0.2535 -1.3237  0.2514
   34POPC   C38 4609   3.372   4.884   8.878  0.7637  0.0687  0.4494
   34POPC   H8X 4610   3.371   4.994   8.890  4.4288  0.5382 -2.6790
   34POPC   H8Y 4611   3.264   4.865   8.859 -0.0714  1.7055  3.3258
   34POPC   C39 4612   3.457   4.838   8.763 -0.3936 -0.2320 -0.2095
   34POPC   H9X 4613   3.408   4.870   8.669 -3.0685 -4.0906 -0.2313
   34POPC   H9Y 4614   3.468   4.727   8.759 -2.2611 -0.4006 -1.2577
   34POPC  C310 4615   3.601   4.901   8.762  0.1911  0.0503 -0.0487
   34POPC  H10X 4616   3.660   4.889   8.856 -0.7275 -2.0191  0.2969
   34POPC  H10Y 4617   3.586   5.011   8.771  0.2714  0.0560  0.0168
   34POPC  C311 4618   3.676   4.865   8.637 -0.4017 -0.0001 -0.0299
   34POPC  H11X 4619   3.611   4.884   8.549 -3.9785  0.0940  2.5676
   34POPC  H11Y 4620   3.683   4.754   8.639  0.1082 -0.0555 -2.4739
   34POPC  C312 4621   3.815   4.931   8.639 -0.3335 -0.0639  0.2129
   34POPC  H12X 4622   3.889   4.851   8.620  0.3365  0.9480 -1.4960
   34POPC  H12Y 4623   3.846   4.984   8.732 -1.0666  0.6027  0.0885
   34POPC  C313 4624   3.818   5.037   8.527 -0.3897 -0.0819 -0.2171
   34POPC  H13X 4625   3.749   5.119   8.556  0.0142  1.3084 -2.9969
   34POPC  H13Y 4626   3.780   4.988   8.435  1.7000 -1.5505 -0.3361
   34POPC  C314 4627   3.951   5.098   8.503 -0.4501  0.6211  0.3096
   34POPC  H14X 4628   4.029   5.022   8.525 -1.1454 -0.7099 -1.5932
   34POPC  H14Y 4629   3.976   5.184   8.568  2.2370  1.0165 -1.1667
   34POPC  C315 4630   3.952   5.135   8.353 -0.7584  0.7273 -0.3887
   34POPC  H15X 4631   3.884   5.220   8.332 -0.4108  0.6497 -1.9558
   34POPC  H15Y 4632   3.905   5.057   8.289  0.1558 -0.7589  0.7081
   34POPC  C316 4633   4.094   5.165   8.295 -0.2679 -0.7327  0.8623
   34POPC  H16X 4634   4.150   5.084   8.245  0.1257  0.3039 -0.3948
   34POPC  H16Y 4635   4.152   5.222   8.371 -0.8559  1.6790 -0.4475
   34POPC  H16Z 4636   4.074   5.243   8.219 -0.0556 -1.7467 -0.2431
   35POPC     N 4637   1.091   2.086  10.223  0.4380  0.1860 -0.2880
   35POPC   C12 4638   1.176   2.133  10.102  0.4480  0.0760 -0.7443
   35POPC  H12A 4639   1.276   2.132  10.144 -0.3639 -0.3989  1.2644
   35POPC  H12B 4640   1.134   2.231  10.085  0.2481  0.2422  0.6264
   35POPC   C13 4641   1.098   2.181  10.336  0.7406 -0.3215  0.3524
   35POPC  H13A 4642   1.061   2.159  10.435 -1.6524  2.8714  0.2533
   35POPC  H13B 4643   1.203   2.201  10.353  0.7608  2.2531 -2.3739
   35POPC  H13C 4644   1.056   2.275  10.305 -0.8038 -0.9028  0.6496
   35POPC   C14 4645   0.943   2.086  10.187  0.4798  0.2321 -0.1389
   35POPC  H14A 4646   0.887   2.019  10.251 -1.8505  2.3126  0.0775
   35POPC  H14B 4647   0.895   2.181  10.205  1.1896  0.7750 -1.0620
   35POPC  H14C 4648   0.927   2.055  10.085  0.4682  0.7806 -0.3034
   35POPC   C15 4649   1.137   1.952  10.259  0.0592  0.3179  0.6740
   35POPC  H15A 4650   1.172   1.893  10.176  2.1176 -0.3668  1.9697
   35POPC  H15B 4651   1.054   1.902  10.307  0.5373  0.1061  1.3024
   35POPC  H15C 4652   1.214   1.953  10.335  1.0147 -0.1944 -0.2825
   35POPC   C11 4653   1.174   2.045   9.973  0.5731 -0.0585 -0.1479
   35POPC  H11A 4654   1.221   2.106   9.894  0.6034 -0.6256 -0.5732
   35POPC  H11B 4655   1.067   2.035   9.943  0.5308  0.5547 -0.2090
   35POPC     P 4656   1.385   1.896  10.012 -0.0198 -0.0589 -0.0771
   35POPC   O13 4657   1.418   1.763  10.063  0.4540  0.0432 -0.6436
   35POPC   O14 4658   1.421   2.011  10.099 -0.4146  0.2259 -0.3499
   35POPC   O12 4659   1.228   1.916   9.996  0.1602 -0.0437  0.1127
   35POPC   O11 4660   1.446   1.921   9.874  0.3745  0.1168 -0.3958
   35POPC    C1 4661   1.405   1.849   9.758  0.4463 -0.5583  0.1325
   35POPC    HA 4662   1.393   1.908   9.665 -0.1943 -1.9137 -0.6744
   35POPC    HB 4663   1.304   1.805   9.776  0.4036  0.8126  3.4373
   35POPC    C2 4664   1.503   1.735   9.720 -0.9820  0.4271  0.2562
   35POPC    HS 4665   1.538   1.683   9.812  1.7095  2.2533  0.3336
   35POPC   O21 4666   1.618   1.802   9.664 -0.3474  0.1575  0.2994
   35POPC   C21 4667   1.731   1.732   9.653 -0.5501 -0.0329  0.0695
   35POPC   O22 4668   1.752   1.625   9.705 -0.4223 -0.1751  0.0715
   35POPC   C22 4669   1.823   1.808   9.564 -0.3937 -0.0835 -0.3478
   35POPC   H2R 4670   1.919   1.826   9.617 -1.0009  0.6260  0.5284
   35POPC   H2S 4671   1.795   1.913   9.539  2.5835  1.3599  2.0866
   35POPC    C3 4672   1.437   1.627   9.617  0.6243  0.0302  0.4337
   35POPC    HX 4673   1.357   1.576   9.675 -0.0057 -0.1992 -0.6288
   35POPC    HY 4674   1.515   1.556   9.585  1.7463  1.9331 -1.1652
   35POPC   O31 4675   1.384   1.680   9.494  0.6306 -0.2453  0.2048
   35POPC   C31 4676   1.248   1.677   9.481 -0.2313  0.3457  0.5067
   35POPC   O32 4677   1.172   1.658   9.575  0.4634  0.2280 -0.5174
   35POPC   C32 4678   1.204   1.725   9.342  0.1730 -0.4368 -0.7453
   35POPC   H2X 4679   1.256   1.654   9.274  2.4693 -0.9726  1.4831
   35POPC   H2Y 4680   1.254   1.822   9.320 -0.1975 -0.0579  0.0487
   35POPC   C23 4681   1.843   1.742   9.421  0.7939 -1.4039 -1.0791
   35POPC   H3R 4682   1.919   1.800   9.365 -0.0526  1.4798  0.6173
   35POPC   H3S 4683   1.747   1.761   9.368  0.7252  1.6577  0.0199
   35POPC   C24 4684   1.883   1.595   9.422 -1.2273  0.5706  0.2586
   35POPC   H4R 4685   1.801   1.533   9.464 -0.4296 -0.1253  0.8144
   35POPC   H4S 4686   1.970   1.582   9.491 -1.9866 -1.5562  0.8283
   35POPC   C25 4687   1.919   1.543   9.275  0.1596  0.0707 -0.3732
   35POPC   H5R 4688   1.921   1.433   9.292 -0.6642  0.0365 -0.4680
   35POPC   H5S 4689   2.023   1.574   9.251  0.2755 -0.6446 -0.8218
   35POPC   C26 4690   1.817   1.583   9.167 -0.5019  0.1162 -0.1069
   35POPC   H6R 4691   1.835   1.689   9.139 -2.5461  0.0529 -1.7865
   35POPC   H6S 4692   1.711   1.571   9.197 -0.7318  2.6725  0.2013
   35POPC   C27 4693   1.863   1.500   9.041  0.1552  0.7037 -0.0719
   35POPC   H7R 4694   1.862   1.393   9.069 -0.7722  0.6507 -0.2684
   35POPC   H7S 4695   1.971   1.509   9.017 -0.2025 -2.3018 -3.3808
   35POPC   C28 4696   1.776   1.515   8.915  0.8340 -0.3726 -0.0206
   35POPC   H8R 4697   1.668   1.492   8.933  0.7943 -0.3331 -0.2061
   35POPC   H8S 4698   1.806   1.437   8.842  0.5484  0.5946 -1.2077
   35POPC   C29 4699   1.789   1.655   8.851 -0.4080  0.4525 -0.2671
   35POPC   H91 4700   1.893   1.674   8.820 -0.7376  2.3526 -0.2461
   35POPC  C210 4701   1.697   1.758   8.839 -0.1358 -0.0725 -0.5229
   35POPC  H101 4702   1.722   1.851   8.786  1.0071 -0.6659 -1.0363
   35POPC  C211 4703   1.562   1.744   8.903  0.7605 -0.0507 -0.7278
   35POPC  H11R 4704   1.542   1.655   8.967 -2.8293  1.0430 -0.2048
   35POPC  H11S 4705   1.486   1.721   8.825 -0.7880  0.4934  0.5970
   35POPC  C212 4706   1.497   1.861   8.985  0.2443  0.3126  0.1424
   35POPC  H12R 4707   1.389   1.852   9.009  0.2683  1.9131  0.9087
   35POPC  H12S 4708   1.508   1.956   8.928  0.3231 -0.8946 -1.8989
   35POPC  C213 4709   1.579   1.877   9.123 -0.3122 -0.0591 -0.2253
   35POPC  H13R 4710   1.685   1.872   9.091 -0.4286 -0.0148 -0.6234
   35POPC  H13S 4711   1.544   1.791   9.185 -1.7241  0.8717  0.2802
   35POPC  C214 4712   1.556   2.007   9.201  0.3458  0.3339  0.8675
   35POPC  H14R 4713   1.626   2.084   9.162  1.1825  0.5508  2.7137
   35POPC  H14S 4714   1.578   1.987   9.308 -0.9948  1.4152  1.3692
   35POPC  C215 4715   1.414   2.067   9.194  0.3631  0.1848 -0.4284
   35POPC  H15R 4716   1.336   1.988   9.190 -0.4293  0.9967 -1.5669
   35POPC  H15S 4717   1.403   2.132   9.105 -0.3879 -0.2569 -0.6653
   35POPC  C216 4718   1.381   2.146   9.324 -0.5624  0.3135 -0.4786
   35POPC  H16R 4719   1.437   2.241   9.311 -1.0648  0.3802 -2.3338
   35POPC  H16S 4720   1.421   2.099   9.417  0.0535  2.0696  0.1524
   35POPC  C217 4721   1.233   2.166   9.348  0.2025 -0.4740 -0.0943
   35POPC  H17R 4722   1.175   2.079   9.386  0.4567 -0.3177  0.6499
   35POPC  H17S 4723   1.189   2.208   9.255 -3.7742 -1.9608  1.0060
   35POPC  C218 4724   1.211   2.280   9.451 -0.3777 -0.2867 -0.1521
   35POPC  H18R 4725   1.111   2.329   9.443  0.2690  0.9592 -0.7516
   35POPC  H18S 4726   1.286   2.363   9.450  0.0717 -0.6942 -1.5516
   35POPC  H18T 4727   1.225   2.241   9.554  0.8463  1.3586  0.3360
   35POPC   C33 4728   1.050   1.728   9.322 -1.1204 -0.2467 -0.8452
   35POPC   H3X 4729   0.995   1.793   9.393  1.5363 -0.0314  1.0785
   35POPC   H3Y 4730   1.008   1.629   9.351  0.7489 -0.3472  1.7319
   35POPC   C34 4731   1.012   1.761   9.179 -0.1248 -1.3326  0.0049
   35POPC   H4X 4732   0.906   1.790   9.187  1.0321  2.8787  1.4103
   35POPC   H4Y 4733   1.024   1.667   9.120 -1.6145 -1.8787  0.5575
   35POPC   C35 4734   1.078   1.880   9.107 -0.1103  0.2161  0.5546
   35POPC   H5X 4735   1.179   1.848   9.073  0.5606  0.8071  1.9420
   35POPC   H5Y 4736   1.102   1.966   9.174  3.0985  0.4777 -0.8042
   35POPC   C36 4737   1.003   1.915   8.978 -0.6603 -0.0350 -0.2999
   35POPC   H6X 4738   0.897   1.930   9.009 -1.5486 -0.0023 -3.2653
   35POPC   H6Y 4739   1.000   1.821   8.920 -1.9511  0.5439 -1.1845
   35POPC   C37 4740   1.061   2.040   8.907 -0.1447  0.2421 -0.0447
   35POPC   H7X 4741   1.048   2.124   8.979  2.5405 -1.0868  2.0538
   35POPC   H7Y 4742   0.984   2.062   8.830 -0.7116  0.8116  0.6753
   35POPC   C38 4743   1.200   2.031   8.841  0.1350  0.0539  0.1062
   35POPC   H8X 4744   1.203   1.928   8.799 -0.1609  0.3106 -0.5443
   35POPC   H8Y 4745   1.266   2.052   8.928 -0.0356 -1.3607  0.5854
   35POPC   C39 4746   1.247   2.145   8.747 -0.2243  0.6318 -0.1057
   35POPC   H9X 4747   1.358   2.159   8.747  0.4272 -3.7213 -0.9429
   35POPC   H9Y 4748   1.212   2.247   8.774 -0.7948  0.4439 -0.1425
   35POPC  C310 4749   1.191   2.106   8.606 -0.1383 -0.0478 -0.3759
   35POPC  H10X 4750   1.081   2.087   8.606 -0.4096  1.2256  2.8895
   35POPC  H10Y 4751   1.243   2.013   8.575 -0.3817 -0.7023  1.1070
   35POPC  C311 4752   1.228   2.210   8.501  0.1255 -0.3121 -0.1559
   35POPC  H11X 4753   1.241   2.307   8.554  0.9904 -2.2368  3.3218
   35POPC  H11Y 4754   1.143   2.214   8.430  0.5953 -2.1502 -0.8400
   35POPC  C312 4755   1.354   2.188   8.421 -0.9057 -0.5210  0.0554
   35POPC  H12X 4756   1.442   2.196   8.490  0.6737  1.2312 -2.0677
   35POPC  H12Y 4757   1.359   2.273   8.349  0.0312 -0.5909  0.0335
   35POPC  C313 4758   1.371   2.056   8.342 -0.2601  0.0506 -0.3195
   35POPC  H13X 4759   1.271   2.018   8.311  0.3884 -2.6395  0.7281
   35POPC  H13Y 4760   1.419   1.974   8.400  4.3163  1.9936 -1.1981
   35POPC  C314 4761   1.449   2.066   8.205 -0.9565 -0.6862  0.6313
   35POPC  H14X 4762   1.391   2.122   8.128  1.0804 -0.2585 -0.6144
   35POPC  H14Y 4763   1.452   1.962   8.167  1.6417 -0.2293 -0.4691
   35POPC  C315 4764   1.592   2.109   8.218 -0.7684 -0.6949  0.1704
   35POPC  H15X 4765   1.654   2.044   8.283 -0.9258 -0.5710  0.4470
   35POPC  H15Y 4766   1.597   2.202   8.278  0.6088 -0.0342 -0.9405
   35POPC  C316 4767   1.665   2.125   8.081  0.6736  0.1660 -0.3313
   35POPC  H16X 4768   1.661   2.025   8.032 -1.4149  0.0119  0.0961
   35POPC  H16Y 4769   1.772   2.146   8.099 -0.0686  2.0085  2.2277
   35POPC  H16Z 4770   1.604   2.200   8.027 -0.1947 -1.6558 -1.9273
   36POPC     N 4771   1.189   6.722   9.746 -0.0230  0.1288 -0.1465
   36POPC   C12 4772   1.167   6.867   9.710 -0.0332  0.3072 -0.0182
   36POPC  H12A 4773   1.082   6.877   9.644 -0.6677  0.5212  0.8079
   36POPC  H12B 4774   1.261   6.901   9.671 -0.0941  0.9031  0.3456
   36POPC   C13 4775   1.322   6.702   9.810 -0.9995  0.4966 -0.1891
   36POPC  H13A 4776   1.323   6.615   9.873 -0.1324  0.8024  0.2178
   36POPC  H13B 4777   1.413   6.705   9.752 -1.7596  0.0894 -1.4255
   36POPC  H13C 4778   1.333   6.786   9.877  0.3209 -0.6339  1.0212
   36POPC   C14 4779   1.086   6.666   9.834  0.6269  0.3797 -0.1454
   36POPC  H14A 4780   1.115   6.571   9.878  1.0347 -0.2664 -1.7800
   36POPC  H14B 4781   1.073   6.734   9.917  2.2228  1.0131 -0.3989
   36POPC  H14C 4782   0.998   6.652   9.774  0.1769 -3.5598  1.3068
   36POPC   C15 4783   1.203   6.644   9.620 -0.9101  0.6087  0.5412
   36POPC  H15A 4784   1.117   6.625   9.557 -1.0515 -0.5986  1.0848
   36POPC  H15B 4785   1.233   6.543   9.641  0.6809  1.0781  0.6423
   36POPC  H15C 4786   1.284   6.680   9.557  0.3121 -2.9818 -0.0599
   36POPC   C11 4787   1.141   6.955   9.831  0.0868  0.2926  0.3035
   36POPC  H11A 4788   1.055   6.917   9.890 -0.0923 -1.7377 -1.2252
   36POPC  H11B 4789   1.108   7.047   9.779  0.8843  0.2197 -0.3429
   36POPC     P 4790   1.362   7.081   9.884  0.3612 -0.3315 -0.2817
   36POPC   O13 4791   1.504   7.055   9.922 -0.2788  0.5947 -0.1219
   36POPC   O14 4792   1.300   7.205   9.935 -0.0377  0.2432 -0.2284
   36POPC   O12 4793   1.259   6.970   9.916  0.0237 -0.4024 -0.0378
   36POPC   O11 4794   1.360   7.087   9.725  0.0563  0.1897 -0.2044
   36POPC    C1 4795   1.428   7.200   9.657  0.9304 -0.4492 -0.7142
   36POPC    HA 4796   1.470   7.157   9.563  0.3305  0.8335 -1.5827
   36POPC    HB 4797   1.514   7.241   9.714  0.3612  2.4055 -1.8145
   36POPC    C2 4798   1.334   7.309   9.613  0.0280 -0.4241 -0.5294
   36POPC    HS 4799   1.291   7.358   9.703 -0.7062 -1.6060 -0.2255
   36POPC   O21 4800   1.237   7.248   9.530 -0.3261 -0.0490  0.1898
   36POPC   C21 4801   1.114   7.282   9.550  0.7254  0.0947 -0.0748
   36POPC   O22 4802   1.067   7.343   9.644 -0.7261  0.0553  0.3414
   36POPC   C22 4803   1.025   7.210   9.449 -0.1362 -0.5743  0.7071
   36POPC   H2R 4804   0.983   7.120   9.497  2.1648 -1.5183  1.0113
   36POPC   H2S 4805   1.092   7.183   9.364 -1.8246  0.2534 -0.9445
   36POPC    C3 4806   1.404   7.420   9.535  0.5226  0.3487  0.0765
   36POPC    HX 4807   1.478   7.466   9.604 -0.7218 -2.1286  3.1984
   36POPC    HY 4808   1.339   7.506   9.507 -0.7262 -0.9768 -1.2303
   36POPC   O31 4809   1.485   7.367   9.426  0.9137 -0.2089  0.1989
   36POPC   C31 4810   1.421   7.350   9.316  0.6310 -0.7520 -0.1374
   36POPC   O32 4811   1.308   7.387   9.291  0.1964 -0.4450 -0.1709
   36POPC   C32 4812   1.522   7.303   9.207 -0.4646 -0.1951  0.1435
   36POPC   H2X 4813   1.564   7.212   9.254 -2.0984 -0.2720  1.5166
   36POPC   H2Y 4814   1.603   7.379   9.196  0.4558 -1.7009 -4.6255
   36POPC   C23 4815   0.908   7.296   9.383 -0.6708 -0.0377 -0.5075
   36POPC   H3R 4816   0.867   7.379   9.444 -1.4212 -0.3590 -0.5649
   36POPC   H3S 4817   0.825   7.228   9.355  0.0176 -0.3969 -1.7079
   36POPC   C24 4818   0.939   7.365   9.252  0.2738  0.0481  0.0877
   36POPC   H4R 4819   1.013   7.304   9.195  1.3368  1.8412 -0.4956
   36POPC   H4S 4820   0.967   7.473   9.255  0.0712  0.1495 -1.1912
   36POPC   C25 4821   0.814   7.366   9.164  1.3992  0.5505  0.2424
   36POPC   H5R 4822   0.739   7.430   9.214 -1.6689 -3.5330  1.1223
   36POPC   H5S 4823   0.779   7.266   9.130  0.2176  0.9000  0.4077
   36POPC   C26 4824   0.853   7.436   9.036  0.5819  0.1962  0.0396
   36POPC   H6R 4825   0.935   7.392   8.975  0.8277  1.9961 -0.9477
   36POPC   H6S 4826   0.882   7.541   9.057  1.1731  0.2733 -1.1208
   36POPC   C27 4827   0.721   7.444   8.949  0.2308  0.1342  0.6915
   36POPC   H7R 4828   0.639   7.499   9.000 -2.2205 -3.6801  1.0383
   36POPC   H7S 4829   0.688   7.340   8.930 -0.6506  0.3115  1.2334
   36POPC   C28 4830   0.725   7.530   8.815 -0.3003 -0.6336  0.8387
   36POPC   H8R 4831   0.625   7.538   8.768  0.1491  3.7794  0.4168
   36POPC   H8S 4832   0.774   7.465   8.739 -1.5906 -0.2061 -0.3754
   36POPC   C29 4833   0.790   7.672   8.808  0.3895 -0.1549  0.0240
   36POPC   H91 4834   0.725   7.757   8.833  2.0655  1.2649 -0.3739
   36POPC  C210 4835   0.924   7.700   8.793 -0.8753 -0.2750 -0.1686
   36POPC  H101 4836   0.965   7.801   8.807  4.0663 -1.9430 -1.5139
   36POPC  C211 4837   1.043   7.603   8.785 -0.1076  0.0635 -0.4430
   36POPC  H11R 4838   1.015   7.499   8.755 -0.8688  0.4670 -1.1493
   36POPC  H11S 4839   1.097   7.609   8.882 -0.5531  1.6250 -0.2810
   36POPC  C212 4840   1.141   7.648   8.677 -0.7309  0.0215 -0.0824
   36POPC  H12R 4841   1.116   7.637   8.570 -1.0060 -0.2972  0.0131
   36POPC  H12S 4842   1.235   7.591   8.689 -0.6853  0.3576  1.2309
   36POPC  C213 4843   1.198   7.793   8.695  0.4553  0.3787 -0.2824
   36POPC  H13R 4844   1.199   7.834   8.798  3.1516 -2.2313  0.8287
   36POPC  H13S 4845   1.122   7.857   8.646  2.2702  2.5164 -0.3954
   36POPC  C214 4846   1.338   7.818   8.633 -0.0410 -0.6054  0.4502
   36POPC  H14R 4847   1.420   7.790   8.702  0.7245 -1.1891 -0.6864
   36POPC  H14S 4848   1.341   7.928   8.613  1.0252 -0.3040  2.2028
   36POPC  C215 4849   1.362   7.751   8.496  0.0156 -0.0867  0.3545
   36POPC  H15R 4850   1.264   7.759   8.445 -1.6068 -2.9986  2.8524
   36POPC  H15S 4851   1.376   7.642   8.512  2.9705 -0.3855 -3.5711
   36POPC  C216 4852   1.478   7.816   8.418 -0.4240  0.8462 -0.7245
   36POPC  H16R 4853   1.494   7.753   8.328 -0.5214  0.8432 -0.7402
   36POPC  H16S 4854   1.577   7.816   8.469 -0.4436  4.3467 -0.6094
   36POPC  C217 4855   1.448   7.956   8.363  0.2835 -0.0558 -0.0672
   36POPC  H17R 4856   1.460   8.024   8.449 -0.0966  1.1265 -0.9374
   36POPC  H17S 4857   1.344   7.973   8.329  0.4815  1.3017  0.0021
   36POPC  C218 4858   1.549   7.998   8.250 -0.7837  0.3628 -0.4515
   36POPC  H18R 4859   1.654   8.005   8.286  0.0841  2.1042 -3.2006
   36POPC  H18S 4860   1.512   8.096   8.212 -2.3617  1.1270  2.8368
   36POPC  H18T 4861   1.557   7.917   8.175  0.2017  0.1421 -0.1067
   36POPC   C33 4862   1.464   7.280   9.072 -0.5935  0.0901  0.2333
   36POPC   H3X 4863   1.411   7.371   9.038 -1.0329  0.8290  2.8170
   36POPC   H3Y 4864   1.382   7.207   9.089  0.0347 -0.4827  0.8869
   36POPC   C34 4865   1.570   7.228   8.982  0.6707  0.6411 -0.0278
   36POPC   H4X 4866   1.636   7.157   9.036  0.1946  1.1917  1.2877
   36POPC   H4Y 4867   1.639   7.314   8.970 -0.2621  1.2355 -1.2672
   36POPC   C35 4868   1.518   7.171   8.849 -0.8642  0.3937 -0.3565
   36POPC   H5X 4869   1.465   7.074   8.857 -0.4338  0.0732 -1.3284
   36POPC   H5Y 4870   1.612   7.147   8.795 -0.9383  1.3524 -0.9278
   36POPC   C36 4871   1.433   7.272   8.771 -0.1224  0.1249 -0.4559
   36POPC   H6X 4872   1.485   7.370   8.780  0.8519 -0.3897 -0.4210
   36POPC   H6Y 4873   1.330   7.293   8.807 -0.9278  0.4595 -2.8533
   36POPC   C37 4874   1.436   7.250   8.615  0.8095  0.1810  0.2945
   36POPC   H7X 4875   1.545   7.246   8.595  0.6659 -2.1048 -0.2014
   36POPC   H7Y 4876   1.388   7.338   8.569  3.3058  0.5386 -1.7086
   36POPC   C38 4877   1.371   7.116   8.576 -0.6263 -0.0858 -0.4419
   36POPC   H8X 4878   1.438   7.038   8.618  0.1776  1.2402  0.7891
   36POPC   H8Y 4879   1.393   7.101   8.468  1.9503  3.1472 -0.4203
   36POPC   C39 4880   1.223   7.093   8.614 -0.2286 -0.3669 -0.4569
   36POPC   H9X 4881   1.216   7.093   8.725 -1.2169 -1.5321 -0.4984
   36POPC   H9Y 4882   1.198   6.992   8.575 -0.8733  0.4801 -2.3056
   36POPC  C310 4883   1.126   7.196   8.562  0.1729 -0.9249  0.3513
   36POPC  H10X 4884   1.138   7.290   8.620  2.2734 -0.9718  0.0061
   36POPC  H10Y 4885   1.022   7.157   8.576 -1.0476  1.8526 -0.5956
   36POPC  C311 4886   1.129   7.228   8.409  0.6844 -0.2285  0.2349
   36POPC  H11X 4887   1.116   7.136   8.348 -0.3261  0.7624 -1.0701
   36POPC  H11Y 4888   1.235   7.259   8.393  0.5544  0.3571  0.4936
   36POPC  C312 4889   1.022   7.335   8.369 -0.0952  0.1696  0.2201
   36POPC  H12X 4890   1.041   7.368   8.265  1.3609 -0.2065  0.3613
   36POPC  H12Y 4891   1.024   7.426   8.432  0.8960  0.4076 -0.1433
   36POPC  C313 4892   0.877   7.279   8.380 -0.1594  0.2720  0.2148
   36POPC  H13X 4893   0.849   7.241   8.481 -0.8782  0.6533  0.1569
   36POPC  H13Y 4894   0.879   7.190   8.313  1.2661  1.1878 -0.9970
   36POPC  C314 4895   0.765   7.373   8.329  0.7137  0.5290  0.1277
   36POPC  H14X 4896   0.764   7.371   8.218  1.9925 -1.2214  0.1289
   36POPC  H14Y 4897   0.787   7.475   8.366  2.3198 -0.5048  2.1012
   36POPC  C315 4898   0.626   7.338   8.372  0.8383 -0.5916  0.5974
   36POPC  H15X 4899   0.583   7.238   8.350 -1.8784  1.2432 -2.8984
   36POPC  H15Y 4900   0.560   7.402   8.310  1.2517  0.9894  1.7487
   36POPC  C316 4901   0.587   7.374   8.518 -0.4410 -0.3223  0.2307
   36POPC  H16X 4902   0.582   7.484   8.526 -1.5326 -0.5285  2.8704
   36POPC  H16Y 4903   0.661   7.328   8.587 -1.2924 -0.0445  1.3425
   36POPC  H16Z 4904   0.485   7.333   8.533 -1.2634  0.3555 -3.1659
   37POPC     N 4905   2.834   3.322   5.924  0.1210  0.3623  0.3768
   37POPC   C12 4906   2.936   3.280   6.023  0.4928  0.3202  0.4162
   37POPC  H12A 4907   3.036   3.288   5.983  0.6875 -1.4728  0.4981
   37POPC  H12B 4908   2.917   3.177   6.051 -0.3951  0.5268  0.5858
   37POPC   C13 4909   2.829   3.468   5.904 -0.1710 -0.0448 -0.1379
   37POPC  H13A 4910   2.923   3.501   5.860 -1.3208 -0.9248 -3.3738
   37POPC  H13B 4911   2.754   3.513   5.841 -0.6384 -0.3773  0.1773
   37POPC  H13C 4912   2.820   3.520   5.998  2.6142 -2.8438  1.8069
   37POPC   C14 4913   2.858   3.268   5.790  0.0939  0.3203  0.3824
   37POPC  H14A 4914   2.788   3.302   5.715  2.1666  1.4307 -1.0960
   37POPC  H14B 4915   2.952   3.298   5.746  0.2370  0.8199  1.0193
   37POPC  H14C 4916   2.849   3.161   5.784 -2.0216  0.4140  1.2801
   37POPC   C15 4917   2.699   3.278   5.968 -0.4143 -0.3296 -0.8752
   37POPC  H15A 4918   2.670   3.333   6.056 -1.9474 -2.0568 -0.2574
   37POPC  H15B 4919   2.693   3.170   5.978 -1.2421 -0.2172 -0.1125
   37POPC  H15C 4920   2.632   3.314   5.892  1.4682  1.8765 -1.5338
   37POPC   C11 4921   2.933   3.348   6.163 -0.4017 -0.1311 -0.9362
   37POPC  H11A 4922   2.935   3.458   6.148  1.4963 -0.1957 -1.3539
   37POPC  H11B 4923   3.026   3.321   6.218 -0.7947 -1.0286 -0.7150
   37POPC     P 4924   2.816   3.189   6.335 -0.7762 -0.1250  0.1539
   37POPC   O13 4925   2.871   3.078   6.253 -0.2469  0.1633 -0.0952
   37POPC   O14 4926   2.677   3.175   6.381 -0.1947 -0.1117 -0.1693
   37POPC   O12 4927   2.825   3.315   6.247 -0.0403  0.1779  0.4705
   37POPC   O11 4928   2.917   3.212   6.459 -0.8686  0.1405  0.5521
   37POPC    C1 4929   2.881   3.308   6.562 -0.2458  0.8138  0.1546
   37POPC    HA 4930   2.806   3.268   6.634  0.0525 -0.6938 -0.3693
   37POPC    HB 4931   2.846   3.400   6.511  1.9411  1.8409  0.4367
   37POPC    C2 4932   2.992   3.369   6.646  0.0163  0.4118  0.0133
   37POPC    HS 4933   3.064   3.399   6.567  0.2052  0.5623  0.2408
   37POPC   O21 4934   3.036   3.264   6.731 -0.2083  0.2684 -0.2304
   37POPC   C21 4935   3.160   3.282   6.780  0.8006  0.3114 -0.6593
   37POPC   O22 4936   3.241   3.363   6.734  0.4170  0.1810  0.0167
   37POPC   C22 4937   3.165   3.186   6.897 -0.7318  0.0972 -0.2055
   37POPC   H2R 4938   3.155   3.083   6.857  4.1345 -0.3161 -0.6337
   37POPC   H2S 4939   3.083   3.198   6.971 -0.7512 -0.9431 -0.0579
   37POPC    C3 4940   2.948   3.494   6.727  0.7588 -0.4512  0.2337
   37POPC    HX 4941   2.933   3.577   6.655  0.6197 -1.2653 -0.6857
   37POPC    HY 4942   3.028   3.521   6.799  1.2442 -2.5324  0.5057
   37POPC   O31 4943   2.823   3.460   6.794  0.4423 -0.2692 -0.4508
   37POPC   C31 4944   2.705   3.509   6.755  0.4265 -0.5472 -0.1191
   37POPC   O32 4945   2.692   3.589   6.666  0.0843 -0.0575  0.1062
   37POPC   C32 4946   2.590   3.465   6.841 -0.4953 -0.4158 -0.8014
   37POPC   H2X 4947   2.509   3.535   6.810 -0.4909  0.3739  0.9460
   37POPC   H2Y 4948   2.599   3.493   6.948 -1.1302  1.5456 -1.2316
   37POPC   C23 4949   3.307   3.187   6.956  0.6534 -0.2941 -0.0605
   37POPC   H3R 4950   3.331   3.283   7.005  1.8283 -1.5899  1.9462
   37POPC   H3S 4951   3.385   3.183   6.877 -0.7113  0.0783 -1.4465
   37POPC   C24 4952   3.339   3.081   7.059 -0.3824 -0.9590  0.0438
   37POPC   H4R 4953   3.261   3.071   7.138 -0.2797 -0.2757  0.2342
   37POPC   H4S 4954   3.426   3.113   7.121 -1.0247  1.5478 -0.2672
   37POPC   C25 4955   3.382   2.942   7.013  0.6918  0.0884 -0.0473
   37POPC   H5R 4956   3.445   2.885   7.085 -0.2350 -1.1882 -0.2207
   37POPC   H5S 4957   3.422   2.947   6.910  0.2945  1.5934 -0.1460
   37POPC   C26 4958   3.258   2.853   7.004  0.1878  0.1650  0.0416
   37POPC   H6R 4959   3.191   2.886   6.922 -0.5422  1.3781  1.1099
   37POPC   H6S 4960   3.195   2.856   7.095 -0.8761  2.7938 -0.7298
   37POPC   C27 4961   3.294   2.706   6.976  0.2353  0.8453 -0.1616
   37POPC   H7R 4962   3.345   2.671   7.068 -1.0280 -0.3125  0.1043
   37POPC   H7S 4963   3.367   2.714   6.893  1.8226  1.6353  1.2799
   37POPC   C28 4964   3.176   2.620   6.940 -0.8644  0.6209  0.3836
   37POPC   H8R 4965   3.103   2.610   7.023 -2.3919  0.7656 -0.9215
   37POPC   H8S 4966   3.222   2.520   6.931 -4.2103 -1.0036  0.3658
   37POPC   C29 4967   3.096   2.648   6.817 -0.2061 -0.7025  0.2148
   37POPC   H91 4968   3.162   2.671   6.732  0.1474  1.3342  0.9964
   37POPC  C210 4969   2.961   2.646   6.807 -0.2944 -0.0845  0.1669
   37POPC  H101 4970   2.906   2.676   6.717  1.4384  0.1097 -0.8558
   37POPC  C211 4971   2.868   2.608   6.922  0.7931 -0.2342 -1.0286
   37POPC  H11R 4972   2.918   2.541   6.996 -0.0035  1.1056  0.7555
   37POPC  H11S 4973   2.786   2.546   6.880 -0.2124  1.1144 -1.0951
   37POPC  C212 4974   2.797   2.730   6.987  0.4422 -0.1925 -0.1877
   37POPC  H12R 4975   2.756   2.792   6.905  0.4239 -0.4734 -0.3913
   37POPC  H12S 4976   2.872   2.794   7.039 -0.8832  0.1519  1.3072
   37POPC  C213 4977   2.683   2.700   7.089 -0.6993 -0.1996 -0.1603
   37POPC  H13R 4978   2.646   2.800   7.121 -1.3318 -0.5681  0.2811
   37POPC  H13S 4979   2.721   2.642   7.176  0.3167 -0.0944 -0.5345
   37POPC  C214 4980   2.563   2.629   7.017 -0.1681 -0.3900  0.7009
   37POPC  H14R 4981   2.589   2.523   6.998  1.3774  0.2421 -0.8509
   37POPC  H14S 4982   2.554   2.679   6.918 -0.5697  0.3336  1.1012
   37POPC  C215 4983   2.423   2.649   7.081 -0.8970 -0.7700  0.1822
   37POPC  H15R 4984   2.352   2.633   6.997 -0.2891  0.9518 -0.6841
   37POPC  H15S 4985   2.426   2.757   7.108 -1.2944 -0.4906 -0.8638
   37POPC  C216 4986   2.408   2.559   7.200  0.6060  0.1318 -0.2703
   37POPC  H16R 4987   2.489   2.581   7.273  0.6688  0.4206 -0.4272
   37POPC  H16S 4988   2.417   2.452   7.171 -0.1920  0.0871 -0.3497
   37POPC  C217 4989   2.274   2.572   7.278 -0.3487  0.3043  0.3505
   37POPC  H17R 4990   2.247   2.673   7.313 -2.7569  0.0387 -0.5894
   37POPC  H17S 4991   2.296   2.505   7.364 -1.3374 -0.0291  0.3567
   37POPC  C218 4992   2.150   2.517   7.203 -0.1800 -0.3727 -0.0681
   37POPC  H18R 4993   2.136   2.577   7.110 -1.6006  0.8898  0.9221
   37POPC  H18S 4994   2.059   2.532   7.265  0.1334 -0.5134  0.4325
   37POPC  H18T 4995   2.153   2.411   7.171  0.2645  0.3338 -2.5230
   37POPC   C33 4996   2.554   3.317   6.836 -0.1131  0.3799 -0.3837
   37POPC   H3X 4997   2.544   3.298   6.727  0.4577 -0.7249 -0.2406
   37POPC   H3Y 4998   2.448   3.322   6.870  0.4666  0.9365  1.3785
   37POPC   C34 4999   2.640   3.222   6.918 -0.2677  0.7330 -0.4807
   37POPC   H4X 5000   2.748   3.230   6.895 -0.1651  1.3559  0.1986
   37POPC   H4Y 5001   2.623   3.115   6.892  1.4289  0.7810 -1.8021
   37POPC   C35 5002   2.629   3.241   7.074 -0.5063  0.6276 -0.3611
   37POPC   H5X 5003   2.524   3.272   7.091 -0.8951 -0.4037 -0.8559
   37POPC   H5Y 5004   2.700   3.322   7.100 -0.2293  0.4991 -0.7040
   37POPC   C36 5005   2.644   3.115   7.158 -0.1125  0.1449  0.1645
   37POPC   H6X 5006   2.744   3.068   7.147 -0.7332 -0.9077 -1.0578
   37POPC   H6Y 5007   2.570   3.033   7.147  1.0556 -0.9354  0.2635
   37POPC   C37 5008   2.649   3.155   7.311 -0.4958 -0.6154  0.1500
   37POPC   H7X 5009   2.562   3.218   7.339  0.2763  0.2578  0.6352
   37POPC   H7Y 5010   2.736   3.225   7.317 -0.8005 -0.2746  0.6227
   37POPC   C38 5011   2.669   3.041   7.405 -0.2454 -0.2216  0.7064
   37POPC   H8X 5012   2.608   2.959   7.362 -3.2121  2.6027 -0.7235
   37POPC   H8Y 5013   2.620   3.073   7.499  0.5443  1.4327  0.5809
   37POPC   C39 5014   2.811   3.012   7.432 -0.8431 -0.7766 -0.1581
   37POPC   H9X 5015   2.821   2.962   7.531 -0.4375 -1.5547 -0.5816
   37POPC   H9Y 5016   2.882   3.097   7.429 -0.5082 -1.0301  0.5578
   37POPC  C310 5017   2.870   2.903   7.341 -0.0747 -0.5324  0.6449
   37POPC  H10X 5018   2.880   2.932   7.234  0.8772 -2.2610  0.2470
   37POPC  H10Y 5019   2.794   2.823   7.348 -0.3257 -0.3353  0.1609
   37POPC  C311 5020   3.002   2.840   7.381 -0.1029 -0.2797  0.3653
   37POPC  H11X 5021   3.000   2.801   7.485  0.2810 -1.0504  0.0922
   37POPC  H11Y 5022   3.089   2.907   7.362 -0.2480 -0.6602 -1.7676
   37POPC  C312 5023   3.028   2.708   7.295  0.3971  0.4349  0.2108
   37POPC  H12X 5024   3.057   2.730   7.190 -0.1864 -1.0062 -0.2618
   37POPC  H12Y 5025   2.928   2.659   7.296  0.5391  0.1282 -0.3365
   37POPC  C313 5026   3.125   2.600   7.358  0.3568  0.3843  0.6266
   37POPC  H13X 5027   3.136   2.524   7.277  1.2987  1.5459 -0.3497
   37POPC  H13Y 5028   3.083   2.550   7.448  0.4602 -1.2130 -0.1894
   37POPC  C314 5029   3.265   2.660   7.385  0.2114 -0.2634 -0.4398
   37POPC  H14X 5030   3.269   2.747   7.455  2.1521  1.0979 -2.1896
   37POPC  H14Y 5031   3.313   2.690   7.289 -0.2661  0.4032 -0.4716
   37POPC  C315 5032   3.365   2.559   7.460  0.0681 -0.0077 -0.2716
   37POPC  H15X 5033   3.376   2.461   7.408  0.6147  0.1842 -0.5276
   37POPC  H15Y 5034   3.310   2.540   7.555  2.8797 -0.0368  1.4214
   37POPC  C316 5035   3.508   2.617   7.484  0.1950 -0.2340  0.2324
   37POPC  H16X 5036   3.576   2.542   7.528  0.3126 -0.0438  0.3768
   37POPC  H16Y 5037   3.488   2.712   7.539 -0.6898  0.3994 -1.1661
   37POPC  H16Z 5038   3.559   2.648   7.390  1.0639  0.0060  0.7788
   38POPC     N 5039   3.741   6.323   6.028  0.3982 -0.0289 -0.1612
   38POPC   C12 5040   3.659   6.330   6.153 -0.6871  0.2363  0.3197
   38POPC  H12A 5041   3.559   6.359   6.123 -1.0250 -0.7481  0.4551
   38POPC  H12B 5042   3.693   6.409   6.218 -2.4252  0.6798  0.7373
   38POPC   C13 5043   3.880   6.290   6.061  0.2626 -0.3227  0.1877
   38POPC  H13A 5044   3.934   6.250   5.977 -2.0476 -1.7788 -0.6331
   38POPC  H13B 5045   3.935   6.373   6.103  3.2976 -1.7033 -0.9091
   38POPC  H13C 5046   3.882   6.213   6.137 -1.2620 -0.7749 -0.2329
   38POPC   C14 5047   3.696   6.219   5.943  0.1002 -0.2527  0.4414
   38POPC  H14A 5048   3.697   6.121   5.990 -1.7765 -1.6183 -2.2280
   38POPC  H14B 5049   3.591   6.231   5.921 -0.7157 -0.0963  4.1280
   38POPC  H14C 5050   3.756   6.205   5.854  1.8506 -0.4361  1.6237
   38POPC   C15 5051   3.739   6.454   5.954 -0.5103  0.3717  0.1070
   38POPC  H15A 5052   3.826   6.467   5.892 -0.4401  0.8018  0.2962
   38POPC  H15B 5053   3.734   6.534   6.027 -0.8252  1.3324 -0.9625
   38POPC  H15C 5054   3.651   6.466   5.893  0.2907  0.3587 -1.0684
   38POPC   C11 5055   3.641   6.206   6.242  0.3539 -0.0183 -0.6445
   38POPC  H11A 5056   3.599   6.247   6.336 -2.3375 -1.4986 -1.1313
   38POPC  H11B 5057   3.739   6.163   6.273 -0.8988 -1.8687  0.8669
   38POPC     P 5058   3.406   6.108   6.164  0.0019  0.1504 -0.1264
   38POPC   O13 5059   3.354   5.987   6.095  0.2774 -0.2680 -0.6309
   38POPC   O14 5060   3.382   6.235   6.095 -0.1333  0.6880  0.3195
   38POPC   O12 5061   3.564   6.099   6.184 -0.1438 -0.4997  0.1473
   38POPC   O11 5062   3.331   6.109   6.308  0.4719  0.2003  0.8756
   38POPC    C1 5063   3.329   6.000   6.392  0.0161  0.4209 -0.0024
   38POPC    HA 5064   3.358   5.904   6.344  2.4969  0.5682  1.1161
   38POPC    HB 5065   3.228   5.988   6.437 -0.1417  0.4421 -0.3457
   38POPC    C2 5066   3.437   6.018   6.504 -0.4500 -0.9045 -0.1729
   38POPC    HS 5067   3.533   6.015   6.447 -1.1576  0.6208 -1.5088
   38POPC   O21 5068   3.424   5.904   6.584  0.0343  0.4262  0.0321
   38POPC   C21 5069   3.490   5.798   6.539 -0.1343  0.4563 -0.1495
   38POPC   O22 5070   3.563   5.793   6.441  0.3075  0.6814  0.0540
   38POPC   C22 5071   3.463   5.685   6.644  0.0902 -0.2833  0.2518
   38POPC   H2R 5072   3.374   5.634   6.603  0.0762 -0.9724  1.1264
   38POPC   H2S 5073   3.430   5.722   6.743 -0.3560  0.2242 -0.0836
   38POPC    C3 5074   3.409   6.149   6.586  0.3983  0.3938  0.3723
   38POPC    HX 5075   3.308   6.136   6.630 -0.3258  1.5914 -0.8884
   38POPC    HY 5076   3.410   6.235   6.515 -1.0238 -0.6060 -0.8778
   38POPC   O31 5077   3.488   6.160   6.713  0.4721 -0.2034 -0.0222
   38POPC   C31 5078   3.622   6.198   6.697  0.2435  0.2176 -0.4440
   38POPC   O32 5079   3.659   6.227   6.586  0.1961  0.2114  0.6472
   38POPC   C32 5080   3.704   6.196   6.823  0.0548 -0.1604 -0.3335
   38POPC   H2X 5081   3.804   6.243   6.813  0.1041  0.1990  1.6460
   38POPC   H2Y 5082   3.736   6.094   6.852  1.5855  0.1319 -0.9275
   38POPC   C23 5083   3.564   5.567   6.638  0.2670 -0.2843  0.0504
   38POPC   H3R 5084   3.600   5.548   6.535  2.2775  0.0078  0.6825
   38POPC   H3S 5085   3.511   5.477   6.676  0.3133 -0.1221  0.4967
   38POPC   C24 5086   3.684   5.581   6.728  0.1340  0.6396 -0.5072
   38POPC   H4R 5087   3.735   5.483   6.743  2.8270  1.6873 -2.4070
   38POPC   H4S 5088   3.646   5.602   6.830  0.6309 -2.8912  0.4853
   38POPC   C25 5089   3.790   5.682   6.690  0.1301  0.2242 -0.3918
   38POPC   H5R 5090   3.735   5.778   6.701  2.2492  1.3928  0.1140
   38POPC   H5S 5091   3.819   5.670   6.584 -2.6519 -0.3187 -1.1352
   38POPC   C26 5092   3.913   5.681   6.787 -0.6155  0.0348  0.4576
   38POPC   H6R 5093   4.005   5.652   6.731 -0.1028  0.6551  0.9581
   38POPC   H6S 5094   3.906   5.597   6.859 -0.9784  0.9805  1.5365
   38POPC   C27 5095   3.931   5.816   6.856 -0.3673 -0.4454 -0.2533
   38POPC   H7R 5096   3.828   5.835   6.891 -0.5585  2.0821 -2.0109
   38POPC   H7S 5097   3.946   5.897   6.782  1.7528  0.3746  1.0149
   38POPC   C28 5098   4.024   5.831   6.974  0.1594 -0.5157 -0.0093
   38POPC   H8R 5099   4.128   5.810   6.938  1.2455  2.0378  1.4960
   38POPC   H8S 5100   3.997   5.748   7.043  0.7963 -1.3689 -0.7793
   38POPC   C29 5101   4.019   5.963   7.039  0.1375 -0.2277  0.1636
   38POPC   H91 5102   4.031   6.049   6.971  0.5478 -1.7201 -1.7024
   38POPC  C210 5103   3.979   5.991   7.164 -0.1598  0.9990 -0.0055
   38POPC  H101 5104   3.980   6.097   7.194 -0.7940  0.9003  0.3761
   38POPC  C211 5105   3.922   5.889   7.269  0.3094 -0.2472  0.4375
   38POPC  H11R 5106   3.893   5.792   7.223  0.8839  0.2507 -1.0288
   38POPC  H11S 5107   3.831   5.936   7.312  0.0753 -1.5527  1.3805
   38POPC  C212 5108   4.030   5.867   7.381 -0.1638  0.8078  0.4170
   38POPC  H12R 5109   4.067   5.964   7.420 -1.2373  1.0312  0.9060
   38POPC  H12S 5110   4.112   5.807   7.337  0.0984  1.5269 -0.0704
   38POPC  C213 5111   3.979   5.802   7.513 -0.4889  0.2829 -0.5627
   38POPC  H13R 5112   3.965   5.695   7.488  0.6439  0.1219 -0.5392
   38POPC  H13S 5113   3.894   5.863   7.551 -0.2469  0.4495 -0.2930
   38POPC  C214 5114   4.082   5.804   7.624 -0.1411 -0.2465 -0.3989
   38POPC  H14R 5115   4.168   5.750   7.578 -0.3911  1.3601 -2.8792
   38POPC  H14S 5116   4.042   5.749   7.711 -1.3080  0.1522 -0.6747
   38POPC  C215 5117   4.126   5.942   7.675 -0.1680 -0.3028 -0.4390
   38POPC  H15R 5118   4.044   6.004   7.717 -0.6271 -0.9632 -0.3620
   38POPC  H15S 5119   4.174   5.985   7.585 -0.1318  0.7435  0.0688
   38POPC  C216 5120   4.227   5.944   7.786 -0.1054 -0.5265  0.1602
   38POPC  H16R 5121   4.318   5.890   7.753  0.2214 -0.4351  0.8981
   38POPC  H16S 5122   4.206   5.883   7.876 -2.5212 -0.7002 -0.4976
   38POPC  C217 5123   4.283   6.089   7.821 -0.3603 -0.2046  0.1156
   38POPC  H17R 5124   4.208   6.154   7.872 -0.3235  0.2536 -0.4017
   38POPC  H17S 5125   4.298   6.148   7.728 -1.2348 -0.6837 -0.3433
   38POPC  C218 5126   4.415   6.085   7.904  0.3151 -0.1885  0.3681
   38POPC  H18R 5127   4.458   6.182   7.938  0.9998 -0.0816 -0.7971
   38POPC  H18S 5128   4.485   6.038   7.832  0.2877  1.1501 -0.5384
   38POPC  H18T 5129   4.407   6.012   7.988  0.4379 -1.2826 -0.5642
   38POPC   C33 5130   3.621   6.245   6.946  0.4224 -0.1609  0.1886
   38POPC   H3X 5131   3.530   6.181   6.953 -0.6401  1.4044  1.3381
   38POPC   H3Y 5132   3.578   6.347   6.937  0.0808 -0.1558  1.6811
   38POPC   C34 5133   3.712   6.232   7.072 -0.1908 -0.5901 -0.0696
   38POPC   H4X 5134   3.810   6.272   7.040 -0.2651 -2.0723 -2.2177
   38POPC   H4Y 5135   3.718   6.126   7.105  0.2677 -0.8041 -0.8409
   38POPC   C35 5136   3.654   6.323   7.185 -0.5102  0.2301 -0.6183
   38POPC   H5X 5137   3.545   6.309   7.201 -0.5050  1.7162  0.9236
   38POPC   H5Y 5138   3.663   6.428   7.152 -1.2471  0.1927 -0.9345
   38POPC   C36 5139   3.727   6.309   7.315 -0.4288 -0.3897 -1.1763
   38POPC   H6X 5140   3.823   6.260   7.289 -1.1347 -0.7575 -3.1696
   38POPC   H6Y 5141   3.679   6.237   7.386  0.6581  0.4618  0.4485
   38POPC   C37 5142   3.755   6.440   7.391 -0.5065 -0.6860  0.2896
   38POPC   H7X 5143   3.659   6.460   7.443 -0.9315 -0.4653 -0.5823
   38POPC   H7Y 5144   3.773   6.521   7.317  0.1489 -0.6845  0.4456
   38POPC   C38 5145   3.868   6.434   7.495 -0.3608  0.4357 -0.2032
   38POPC   H8X 5146   3.857   6.527   7.555 -1.9697  0.0457  0.1316
   38POPC   H8Y 5147   3.969   6.443   7.449 -1.1233  0.5188 -1.8739
   38POPC   C39 5148   3.856   6.319   7.595  0.1664  0.0455 -0.8892
   38POPC   H9X 5149   3.949   6.306   7.654  0.6549 -1.3711 -1.9388
   38POPC   H9Y 5150   3.863   6.228   7.531  2.6264 -0.8179  0.5533
   38POPC  C310 5151   3.731   6.334   7.678  0.7329 -0.0100 -0.4298
   38POPC  H10X 5152   3.648   6.296   7.614  1.4645  0.8335 -1.8965
   38POPC  H10Y 5153   3.718   6.442   7.699 -0.1147 -0.0116 -0.8849
   38POPC  C311 5154   3.745   6.263   7.813  0.6127 -0.0029 -0.4269
   38POPC  H11X 5155   3.651   6.278   7.870  0.8416  3.1274 -0.8027
   38POPC  H11Y 5156   3.825   6.319   7.865  1.3781  0.8078 -2.4153
   38POPC  C312 5157   3.774   6.108   7.801 -0.3418 -0.2951 -0.0942
   38POPC  H12X 5158   3.866   6.088   7.743 -0.6499  2.2462 -1.5099
   38POPC  H12Y 5159   3.693   6.069   7.735  0.7918 -1.0405 -1.0619
   38POPC  C313 5160   3.779   6.042   7.944  0.2571  0.0119  0.5374
   38POPC  H13X 5161   3.745   5.936   7.947 -0.9100  0.3773  0.4488
   38POPC  H13Y 5162   3.707   6.102   8.003  0.3315  0.3926  0.2391
   38POPC  C314 5163   3.916   6.037   8.008 -0.3481 -0.1313 -0.4245
   38POPC  H14X 5164   4.000   5.982   7.961 -0.1675 -1.0786  0.9767
   38POPC  H14Y 5165   3.896   5.984   8.104  0.9314 -1.1294 -0.6968
   38POPC  C315 5166   3.969   6.176   8.040  0.0789  0.3516 -0.5513
   38POPC  H15X 5167   3.895   6.248   8.082  0.5771 -0.4754  1.7879
   38POPC  H15Y 5168   3.997   6.228   7.945 -1.0874  1.2937 -0.4047
   38POPC  C316 5169   4.106   6.185   8.113 -0.0880  0.3386  0.0299
   38POPC  H16X 5170   4.170   6.275   8.111 -1.6116  1.4575  0.1559
   38POPC  H16Y 5171   4.170   6.096   8.094  0.3048  0.4983  0.5911
   38POPC  H16Z 5172   4.081   6.178   8.221 -1.5151 -2.6126 -0.4305
   39POPC     N 5173   1.203   2.535   5.991 -0.4690  0.0800  0.2933
   39POPC   C12 5174   1.334   2.468   6.022 -0.9244 -0.2184  0.4048
   39POPC  H12A 5175   1.323   2.360   6.019 -0.0911 -0.2718 -1.1674
   39POPC  H12B 5176   1.347   2.485   6.128 -2.3943  3.4481  0.0475
   39POPC   C13 5177   1.213   2.675   6.026  0.4809 -0.2126  0.3936
   39POPC  H13A 5178   1.248   2.690   6.127 -0.5788  1.1188  0.5767
   39POPC  H13B 5179   1.293   2.725   5.971 -1.2483  0.4882 -1.5676
   39POPC  H13C 5180   1.114   2.719   6.024  0.7277  0.3217 -2.5472
   39POPC   C14 5181   1.161   2.526   5.847 -0.2281  0.3000  0.5471
   39POPC  H14A 5182   1.071   2.581   5.822  2.0558  2.8404 -2.4424
   39POPC  H14B 5183   1.232   2.565   5.776 -0.2729 -0.7475 -0.0714
   39POPC  H14C 5184   1.155   2.420   5.831 -0.5780  0.1887  1.3939
   39POPC   C15 5185   1.089   2.481   6.069 -0.2891  0.1159 -0.1358
   39POPC  H15A 5186   1.086   2.528   6.166  1.5720  0.2142 -0.1029
   39POPC  H15B 5187   1.090   2.373   6.074 -2.1696  0.0444 -0.7225
   39POPC  H15C 5188   0.996   2.504   6.020 -1.3017 -0.9771  1.2213
   39POPC   C11 5189   1.464   2.519   5.946 -0.3122 -0.4393  0.7527
   39POPC  H11A 5190   1.431   2.508   5.841 -0.2642 -3.6390  1.0277
   39POPC  H11B 5191   1.542   2.441   5.958  0.3108  0.2035  0.9244
   39POPC     P 5192   1.629   2.691   6.046  0.1268 -0.0411  0.0635
   39POPC   O13 5193   1.657   2.835   6.015  0.0897 -0.2256  0.2117
   39POPC   O14 5194   1.735   2.592   6.008 -0.4366 -0.2665  0.3174
   39POPC   O12 5195   1.496   2.655   5.983  0.1047  0.1892  0.4605
   39POPC   O11 5196   1.586   2.685   6.194 -0.4410  0.2037 -0.2712
   39POPC    C1 5197   1.675   2.664   6.305 -0.2653 -0.1291 -0.1293
   39POPC    HA 5198   1.637   2.712   6.397 -1.7900 -1.5179 -0.0100
   39POPC    HB 5199   1.779   2.691   6.275  0.3130 -1.1447  0.8993
   39POPC    C2 5200   1.690   2.511   6.339  0.8179  0.4539 -0.2200
   39POPC    HS 5201   1.730   2.461   6.248  0.4051 -1.5491  0.6689
   39POPC   O21 5202   1.562   2.468   6.367  0.3783  0.3336 -0.0526
   39POPC   C21 5203   1.514   2.358   6.303 -0.6430 -1.0375  0.6913
   39POPC   O22 5204   1.568   2.300   6.208 -0.5556 -0.9889  0.3506
   39POPC   C22 5205   1.380   2.318   6.361 -0.3280 -0.9826 -0.6163
   39POPC   H2R 5206   1.315   2.323   6.271  1.0453 -0.3561 -1.5966
   39POPC   H2S 5207   1.351   2.395   6.435 -0.0413  0.3850 -1.8913
   39POPC    C3 5208   1.799   2.480   6.450 -0.5053  0.5512  0.5720
   39POPC    HX 5209   1.889   2.534   6.415 -1.2319  0.9616 -0.7255
   39POPC    HY 5210   1.830   2.373   6.443  1.1543  0.9096  2.1546
   39POPC   O31 5211   1.756   2.521   6.588 -0.0732  0.2738  0.8202
   39POPC   C31 5212   1.852   2.525   6.675  0.4711 -0.2153  0.0692
   39POPC   O32 5213   1.973   2.515   6.651  0.0840  0.3875 -0.3568
   39POPC   C32 5214   1.792   2.549   6.813  0.1467 -0.1439  0.1641
   39POPC   H2X 5215   1.725   2.636   6.796  0.1029  0.0633  1.3791
   39POPC   H2Y 5216   1.724   2.466   6.841  0.2061 -0.1556  0.2723
   39POPC   C23 5217   1.397   2.179   6.421  0.7672 -0.1059 -0.4081
   39POPC   H3R 5218   1.440   2.120   6.338  0.7291  0.6190 -0.9476
   39POPC   H3S 5219   1.302   2.128   6.449  0.2356  0.9361 -0.2723
   39POPC   C24 5220   1.485   2.175   6.548 -0.3951 -0.1027 -0.4703
   39POPC   H4R 5221   1.441   2.238   6.629 -1.7752  1.5410 -2.4649
   39POPC   H4S 5222   1.591   2.204   6.528 -0.0974 -0.9098 -0.1017
   39POPC   C25 5223   1.495   2.044   6.615  0.3326 -0.1756 -0.1546
   39POPC   H5R 5224   1.395   2.009   6.646  0.4816 -0.2127  0.2913
   39POPC   H5S 5225   1.550   2.051   6.712 -1.1216  1.4146  0.5631
   39POPC   C26 5226   1.564   1.929   6.536  0.1441  0.5726 -0.4019
   39POPC   H6R 5227   1.659   1.969   6.494 -0.6401  1.4467 -1.3631
   39POPC   H6S 5228   1.504   1.900   6.448 -0.8184  0.9089  0.1368
   39POPC   C27 5229   1.584   1.802   6.627 -0.3142 -0.5355 -1.5246
   39POPC   H7R 5230   1.487   1.786   6.679 -0.3974  0.2389 -1.4288
   39POPC   H7S 5231   1.654   1.824   6.711 -2.4612  1.6909 -0.2523
   39POPC   C28 5232   1.612   1.666   6.552  0.0763 -0.5859 -0.0073
   39POPC   H8R 5233   1.527   1.655   6.481  0.3014 -0.8391 -0.2353
   39POPC   H8S 5234   1.617   1.579   6.621 -0.1256 -0.4809  0.1420
   39POPC   C29 5235   1.747   1.686   6.485  0.2691 -0.3377 -0.5617
   39POPC   H91 5236   1.740   1.766   6.410  0.0174 -2.0486 -2.4202
   39POPC  C210 5237   1.865   1.621   6.505  0.1149  0.6854  0.8488
   39POPC  H101 5238   1.965   1.646   6.465  0.2796 -0.1927  0.6926
   39POPC  C211 5239   1.885   1.509   6.607 -0.4928  0.4817 -0.0068
   39POPC  H11R 5240   1.990   1.473   6.601 -1.1003 -1.1130 -1.8288
   39POPC  H11S 5241   1.809   1.428   6.601 -1.0812  0.9837  0.7172
   39POPC  C212 5242   1.862   1.540   6.757  0.5299 -0.5708  0.2197
   39POPC  H12R 5243   1.872   1.448   6.817  0.3242 -0.0010  1.1366
   39POPC  H12S 5244   1.760   1.577   6.782  1.1847  0.5254  1.3398
   39POPC  C213 5245   1.962   1.634   6.821 -0.9887 -0.8886  0.5033
   39POPC  H13R 5246   1.957   1.732   6.770 -1.5163 -0.0559  2.1025
   39POPC  H13S 5247   2.066   1.595   6.817  0.1950  2.0416  1.5754
   39POPC  C214 5248   1.929   1.650   6.965 -0.2058  0.0401  0.3675
   39POPC  H14R 5249   1.929   1.546   7.006 -0.3072  0.5496  1.6724
   39POPC  H14S 5250   1.828   1.694   6.972  0.4483  1.4752  0.9736
   39POPC  C215 5251   2.037   1.730   7.038  0.7341  0.2929  0.3966
   39POPC  H15R 5252   2.027   1.838   7.013  0.1519  0.0268 -0.5239
   39POPC  H15S 5253   2.137   1.701   6.998  0.8494 -0.2776  1.0991
   39POPC  C216 5254   2.040   1.707   7.188 -0.0603  0.3247 -0.2867
   39POPC  H16R 5255   2.113   1.784   7.222 -0.6328  1.7384 -2.2306
   39POPC  H16S 5256   2.080   1.606   7.210 -0.9969 -0.2923 -1.3894
   39POPC  C217 5257   1.902   1.722   7.245 -0.1825  0.2116 -0.5957
   39POPC  H17R 5258   1.825   1.658   7.196 -0.7701  1.0069 -0.7231
   39POPC  H17S 5259   1.861   1.825   7.240  1.0599  0.6753 -1.3569
   39POPC  C218 5260   1.899   1.689   7.388 -0.1339  0.3806 -0.1417
   39POPC  H18R 5261   1.944   1.591   7.414  0.0911  0.3254 -0.7246
   39POPC  H18S 5262   1.793   1.696   7.422 -0.1021 -0.3886  0.1394
   39POPC  H18T 5263   1.953   1.759   7.455  0.0287 -0.6374  0.7988
   39POPC   C33 5264   1.894   2.585   6.926  0.1956  0.6432 -0.3228
   39POPC   H3X 5265   1.988   2.527   6.918  0.0597  0.0707  2.0823
   39POPC   H3Y 5266   1.853   2.535   7.016 -2.4760  2.3899 -0.5098
   39POPC   C34 5267   1.910   2.737   6.941  0.6225  0.2580  0.1424
   39POPC   H4X 5268   1.939   2.752   7.047  0.7450 -1.3645  0.3520
   39POPC   H4Y 5269   1.811   2.785   6.920  0.2409 -1.3111 -1.7152
   39POPC   C35 5270   2.021   2.788   6.843 -0.5480 -0.8108 -0.6198
   39POPC   H5X 5271   1.987   2.790   6.737 -0.5559  1.3444 -0.5918
   39POPC   H5Y 5272   2.107   2.718   6.851 -0.5677 -0.6585  1.1075
   39POPC   C36 5273   2.071   2.926   6.872 -1.3003  0.0808  0.0848
   39POPC   H6X 5274   1.996   3.001   6.840  0.8800  2.3234  0.0732
   39POPC   H6Y 5275   2.152   2.940   6.797 -0.8740 -0.1437  0.4989
   39POPC   C37 5276   2.121   2.959   7.015 -1.5349 -0.2613 -0.3110
   39POPC   H7X 5277   2.205   2.892   7.047 -0.7229  0.8032 -0.1926
   39POPC   H7Y 5278   2.046   2.953   7.096  0.5000 -0.4133  1.6164
   39POPC   C38 5279   2.172   3.103   7.017 -0.1176  0.4548 -0.1863
   39POPC   H8X 5280   2.091   3.177   6.997  0.9454  1.8655  0.6402
   39POPC   H8Y 5281   2.240   3.122   6.931  2.4218 -1.8401  1.2262
   39POPC   C39 5282   2.250   3.129   7.145  0.9875  0.8017  0.0795
   39POPC   H9X 5283   2.285   3.234   7.145  2.8851  0.3337  5.3145
   39POPC   H9Y 5284   2.335   3.059   7.142 -1.2204 -2.0696  1.5728
   39POPC  C310 5285   2.171   3.128   7.272 -0.0671 -0.0925  0.2608
   39POPC  H10X 5286   2.116   3.032   7.285  2.3323 -1.3567  1.5296
   39POPC  H10Y 5287   2.099   3.212   7.263  0.0483 -0.1368 -1.1696
   39POPC  C311 5288   2.257   3.156   7.399 -0.5834  0.0487  0.2733
   39POPC  H11X 5289   2.313   3.251   7.389  0.5119 -0.4681  1.3213
   39POPC  H11Y 5290   2.330   3.073   7.412  1.0315  1.2477 -1.0331
   39POPC  C312 5291   2.181   3.181   7.526  0.2891 -0.6255 -0.3352
   39POPC  H12X 5292   2.109   3.101   7.552 -0.3279  0.2885  0.8338
   39POPC  H12Y 5293   2.112   3.268   7.518 -0.3477 -1.0274  0.6738
   39POPC  C313 5294   2.273   3.213   7.646 -0.4924 -0.2052  0.3592
   39POPC  H13X 5295   2.218   3.254   7.733  1.1570  1.1180  0.7968
   39POPC  H13Y 5296   2.344   3.294   7.621  0.2604 -1.5187 -1.8995
   39POPC  C314 5297   2.352   3.094   7.697  0.9712  0.1968  0.5454
   39POPC  H14X 5298   2.456   3.082   7.659  0.2727 -1.0346 -1.0642
   39POPC  H14Y 5299   2.308   3.000   7.657 -1.4744  0.2932  2.8240
   39POPC  C315 5300   2.359   3.082   7.847 -1.1072 -0.4799  0.0950
   39POPC  H15X 5301   2.401   2.984   7.878  1.4543  0.0311 -1.5381
   39POPC  H15Y 5302   2.258   3.078   7.891 -0.1110 -1.1877  2.3867
   39POPC  C316 5303   2.435   3.188   7.914  0.3502 -0.5933 -0.4202
   39POPC  H16X 5304   2.412   3.292   7.883 -0.0400 -0.4341  0.4101
   39POPC  H16Y 5305   2.544   3.179   7.891  1.0486  2.0667  1.5726
   39POPC  H16Z 5306   2.425   3.187   8.024  0.5722  1.5517 -0.3630
   40POPC     N 5307   6.907   0.554   6.267  0.4252 -0.3850  0.8146
   40POPC   C12 5308   7.007   0.483   6.182  0.5211 -1.3083 -0.3976
   40POPC  H12A 5309   7.036   0.398   6.242 -0.4557 -0.9469  0.6150
   40POPC  H12B 5310   7.097   0.539   6.163 -0.2990 -0.5346 -2.0669
   40POPC   C13 5311   6.805   0.464   6.319 -0.1936  0.4459  0.4522
   40POPC  H13A 5312   6.730   0.504   6.386 -0.4474  1.0822 -0.2067
   40POPC  H13B 5313   6.754   0.416   6.237 -2.8588  1.1187  1.6367
   40POPC  H13C 5314   6.853   0.382   6.369 -0.8917 -0.0448  0.3256
   40POPC   C14 5315   6.972   0.634   6.379  0.0206  0.2371  0.1670
   40POPC  H14A 5316   6.905   0.709   6.420 -2.8460 -1.6601 -0.9042
   40POPC  H14B 5317   6.996   0.568   6.461 -1.5331 -0.3808  0.1430
   40POPC  H14C 5318   7.060   0.682   6.339  2.4912 -3.1315  1.3400
   40POPC   C15 5319   6.843   0.659   6.177  0.5559  0.6551  0.0221
   40POPC  H15A 5320   6.756   0.713   6.212 -0.3072  0.7971 -2.2226
   40POPC  H15B 5321   6.802   0.609   6.090  0.6021  2.0711 -0.8320
   40POPC  H15C 5322   6.918   0.726   6.138 -0.1976  2.6160  1.8422
   40POPC   C11 5323   6.956   0.426   6.044 -0.5898 -0.0786  0.8133
   40POPC  H11A 5324   7.048   0.377   6.006 -0.0207  1.5444  0.0428
   40POPC  H11B 5325   6.924   0.505   5.972  0.5055 -0.9400 -0.6369
   40POPC     P 5326   6.725   0.319   5.987  0.2017 -0.2430  0.2234
   40POPC   O13 5327   6.650   0.198   6.024 -0.1140 -0.4458 -0.2021
   40POPC   O14 5328   6.748   0.334   5.837  0.4493  0.0095  0.9458
   40POPC   O12 5329   6.860   0.320   6.063 -0.2954  0.3168  0.3878
   40POPC   O11 5330   6.652   0.452   6.037  0.1758  0.4159  0.0362
   40POPC    C1 5331   6.519   0.484   6.011 -0.1095 -0.2125 -0.2800
   40POPC    HA 5332   6.480   0.568   6.073 -1.3380  0.6077 -2.1083
   40POPC    HB 5333   6.448   0.405   6.044 -2.3911  1.7799 -0.2799
   40POPC    C2 5334   6.477   0.517   5.865  0.2936  0.3462  0.3657
   40POPC    HS 5335   6.555   0.470   5.801  1.2227  0.5015  1.3648
   40POPC   O21 5336   6.475   0.659   5.832  0.2171 -0.8023  0.2034
   40POPC   C21 5337   6.591   0.717   5.839 -0.1166  0.8038 -0.4349
   40POPC   O22 5338   6.698   0.658   5.826  0.5617 -0.0549  0.0673
   40POPC   C22 5339   6.583   0.867   5.860  1.0712  0.7125 -0.0021
   40POPC   H2R 5340   6.545   0.915   5.768  1.8627  1.0356 -0.1571
   40POPC   H2S 5341   6.687   0.899   5.880  0.7901  1.8026 -0.2485
   40POPC    C3 5342   6.330   0.460   5.837  0.2285  0.4402 -0.5039
   40POPC    HX 5343   6.337   0.350   5.851 -2.5722  0.1416 -1.1368
   40POPC    HY 5344   6.300   0.479   5.732  0.8323 -0.7743 -0.8961
   40POPC   O31 5345   6.236   0.513   5.930  0.8651 -0.6775 -0.6282
   40POPC   C31 5346   6.176   0.627   5.891  0.1839 -0.5035  0.5085
   40POPC   O32 5347   6.198   0.699   5.793  0.8169 -0.1544 -0.3941
   40POPC   C32 5348   6.055   0.652   5.985  0.0689  1.0920  0.2279
   40POPC   H2X 5349   5.978   0.574   5.971 -0.6247  1.8940 -0.5792
   40POPC   H2Y 5350   6.011   0.752   5.960  0.5282  1.6257  1.5040
   40POPC   C23 5351   6.487   0.920   5.966 -0.4328  0.3289 -0.5591
   40POPC   H3R 5352   6.414   0.841   5.995  1.8559 -1.6361  0.0506
   40POPC   H3S 5353   6.449   1.013   5.918 -0.0538  0.7128 -0.1180
   40POPC   C24 5354   6.560   0.959   6.097  0.4061  0.1484  0.0760
   40POPC   H4R 5355   6.656   1.010   6.074  0.5828 -0.1102  0.2515
   40POPC   H4S 5356   6.583   0.863   6.148  2.2506 -0.2671 -1.4708
   40POPC   C25 5357   6.492   1.052   6.193  0.7936 -0.6840 -0.1988
   40POPC   H5R 5358   6.387   1.031   6.222  0.6973 -0.9527 -0.7364
   40POPC   H5S 5359   6.500   1.154   6.150 -1.7856  0.3777  1.7488
   40POPC   C26 5360   6.572   1.061   6.332  0.4204  0.6215 -0.2461
   40POPC   H6R 5361   6.564   1.162   6.377  0.8474 -0.3133  2.0072
   40POPC   H6S 5362   6.681   1.060   6.309  0.0495  2.1331 -2.2608
   40POPC   C27 5363   6.536   0.959   6.440  0.0061  0.0828  0.6309
   40POPC   H7R 5364   6.561   0.859   6.399  1.3009  1.3788 -1.9335
   40POPC   H7S 5365   6.428   0.945   6.459 -0.9657  0.2329 -4.2108
   40POPC   C28 5366   6.615   0.969   6.573  0.2613 -0.1466  0.4073
   40POPC   H8R 5367   6.590   0.884   6.639  3.1982 -0.9223  0.5965
   40POPC   H8S 5368   6.590   1.059   6.633  2.0973  0.2106  0.6652
   40POPC   C29 5369   6.763   0.961   6.550  0.1337  0.3616  0.4992
   40POPC   H91 5370   6.809   1.047   6.499  3.2959 -1.3305  0.4093
   40POPC  C210 5371   6.846   0.860   6.590  0.2159 -0.1655 -0.1648
   40POPC  H101 5372   6.954   0.875   6.575  0.5705 -0.5582  1.8881
   40POPC  C211 5373   6.809   0.732   6.662 -1.7818 -0.2947  0.0976
   40POPC  H11R 5374   6.864   0.647   6.617  2.5617  3.2730 -1.7333
   40POPC  H11S 5375   6.699   0.721   6.657 -1.8066  0.9447 -2.7779
   40POPC  C212 5376   6.847   0.756   6.816 -1.0317  0.4752 -0.7579
   40POPC  H12R 5377   6.772   0.686   6.859 -0.9733 -0.0473 -1.4912
   40POPC  H12S 5378   6.819   0.861   6.836 -1.7684  0.4449 -1.6313
   40POPC  C213 5379   6.990   0.745   6.867 -0.1925 -0.2118 -0.5268
   40POPC  H13R 5380   7.024   0.848   6.893  2.0155 -0.9745 -0.3113
   40POPC  H13S 5381   7.049   0.690   6.792  2.0706 -0.0057  1.0320
   40POPC  C214 5382   7.016   0.663   6.991  0.5475  0.4392  0.0509
   40POPC  H14R 5383   7.125   0.666   7.010  0.5699  2.0066 -0.1986
   40POPC  H14S 5384   6.995   0.558   6.964  0.6502  0.0351  1.5037
   40POPC  C215 5385   6.940   0.699   7.117  0.3591  0.1738  0.1474
   40POPC  H15R 5386   6.834   0.693   7.087  0.3263 -2.8357  0.7446
   40POPC  H15S 5387   6.965   0.803   7.147  0.3462  0.5439 -1.1089
   40POPC  C216 5388   6.973   0.609   7.242 -0.5605 -0.6307 -0.0116
   40POPC  H16R 5389   7.082   0.620   7.257 -0.6036  0.4153 -0.4345
   40POPC  H16S 5390   6.956   0.503   7.213 -0.5438 -0.6391  0.0092
   40POPC  C217 5391   6.901   0.643   7.370 -0.3124 -0.1930 -0.7829
   40POPC  H17R 5392   6.794   0.613   7.363 -0.3980 -0.6400  1.8284
   40POPC  H17S 5393   6.903   0.754   7.372  2.9720 -0.1399 -3.0034
   40POPC  C218 5394   6.958   0.577   7.499  0.0051 -1.0260 -0.2063
   40POPC  H18R 5395   6.937   0.468   7.506 -0.6846 -0.8107  1.4039
   40POPC  H18S 5396   6.915   0.627   7.589 -0.5337  1.0846 -1.6138
   40POPC  H18T 5397   7.068   0.588   7.503 -0.2555  1.5919  1.0721
   40POPC   C33 5398   6.095   0.648   6.135  0.1065 -0.5502 -0.1394
   40POPC   H3X 5399   6.148   0.552   6.150 -2.8056 -2.2534 -0.4600
   40POPC   H3Y 5400   6.011   0.639   6.206  0.4266 -1.2409  0.1484
   40POPC   C34 5401   6.177   0.770   6.182  0.0482 -0.5883  0.0318
   40POPC   H4X 5402   6.115   0.862   6.190  1.9014  0.6026  1.1546
   40POPC   H4Y 5403   6.263   0.801   6.120 -1.2494  0.5184 -1.2511
   40POPC   C35 5404   6.222   0.750   6.324  0.1439 -0.5924 -0.9142
   40POPC   H5X 5405   6.140   0.707   6.385  1.6698 -0.9988  0.8916
   40POPC   H5Y 5406   6.235   0.851   6.369  2.0647 -1.7936  1.3316
   40POPC   C36 5407   6.350   0.667   6.337  1.1155  0.4241 -0.8565
   40POPC   H6X 5408   6.433   0.728   6.295 -0.5099  2.3852 -1.3089
   40POPC   H6Y 5409   6.332   0.570   6.287 -0.4046 -0.3303  1.0759
   40POPC   C37 5410   6.383   0.645   6.484 -0.5212 -0.5144  0.3255
   40POPC   H7X 5411   6.290   0.593   6.515 -1.0273  0.8113  1.0855
   40POPC   H7Y 5412   6.398   0.735   6.547 -3.4546 -1.5435  2.6384
   40POPC   C38 5413   6.496   0.544   6.495  0.0154  0.3217 -0.4640
   40POPC   H8X 5414   6.592   0.596   6.475 -0.1524  0.8738  0.1020
   40POPC   H8Y 5415   6.484   0.469   6.415 -1.8163 -0.1915  0.2558
   40POPC   C39 5416   6.491   0.472   6.633  0.3678  0.6571 -0.2349
   40POPC   H9X 5417   6.407   0.399   6.636 -2.4410  3.6699 -1.3294
   40POPC   H9Y 5418   6.469   0.545   6.713  1.5565 -1.2217  1.8491
   40POPC  C310 5419   6.618   0.391   6.668  0.4791  0.4358 -0.8339
   40POPC  H10X 5420   6.710   0.453   6.670  0.2818  0.7385 -1.0938
   40POPC  H10Y 5421   6.631   0.307   6.596 -3.5111  0.0632 -1.2129
   40POPC  C311 5422   6.604   0.317   6.802  0.5916 -0.1522  0.4564
   40POPC  H11X 5423   6.690   0.260   6.842  1.0068 -1.1853 -1.8319
   40POPC  H11Y 5424   6.527   0.238   6.795 -0.0525  0.5380 -0.4935
   40POPC  C312 5425   6.555   0.410   6.920 -0.3418  1.2593  0.2433
   40POPC  H12X 5426   6.450   0.443   6.906 -1.0783 -1.3640 -0.7448
   40POPC  H12Y 5427   6.613   0.505   6.919  0.2693  0.8868 -1.8607
   40POPC  C313 5428   6.574   0.346   7.055 -0.3952  0.4275 -0.1091
   40POPC  H13X 5429   6.683   0.329   7.067 -0.6423 -3.0290 -2.1580
   40POPC  H13Y 5430   6.519   0.250   7.045 -0.2307  0.5713 -2.7288
   40POPC  C314 5431   6.513   0.430   7.174  0.4798  0.5176  0.0166
   40POPC  H14X 5432   6.405   0.413   7.155 -0.0161  1.9110  1.5047
   40POPC  H14Y 5433   6.545   0.536   7.171  0.7947  0.3973 -1.5873
   40POPC  C315 5434   6.537   0.360   7.312 -0.2967 -0.1914 -0.4528
   40POPC  H15X 5435   6.644   0.367   7.339 -0.1053 -0.7359 -1.0524
   40POPC  H15Y 5436   6.521   0.253   7.285  0.6791 -0.2354 -0.8714
   40POPC  C316 5437   6.453   0.416   7.432  0.0710  0.4508 -0.0789
   40POPC  H16X 5438   6.489   0.515   7.468  0.0189  1.2431 -2.1518
   40POPC  H16Y 5439   6.455   0.346   7.519  0.8092  0.9721  0.3237
   40POPC  H16Z 5440   6.351   0.429   7.391 -0.4384 -0.1688  0.9708
   41CHL1    C3 5441   4.374   4.263   9.767 -0.1220 -0.2657 -0.8261
   41CHL1    H3 5442   4.428   4.311   9.682  0.6328 -0.4064 -0.4219
   41CHL1    O3 5443   4.467   4.250   9.876 -0.0281  0.1816 -0.2054
   41CHL1   H3' 5444   4.418   4.212   9.949  1.3190  2.1938  1.8143
   41CHL1    C4 5445   4.239   4.334   9.793 -0.4511 -0.0041  0.6529
   41CHL1   H4A 5446   4.170   4.288   9.866 -1.5396 -0.3709 -0.5895
   41CHL1   H4B 5447   4.265   4.435   9.832 -0.5513  0.5717 -0.7336
   41CHL1    C5 5448   4.162   4.347   9.661 -0.3071 -0.2161 -0.1910
   41CHL1    C6 5449   4.140   4.474   9.609 -0.2162 -0.2782  0.1873
   41CHL1    H6 5450   4.169   4.563   9.667  2.1167  0.3809 -1.9553
   41CHL1    C7 5451   4.076   4.502   9.477  0.2294  0.8041  0.1296
   41CHL1   H7A 5452   3.993   4.575   9.493 -0.2761  0.3803 -0.5420
   41CHL1   H7B 5453   4.148   4.545   9.404  0.5254 -1.5142 -0.9864
   41CHL1    C8 5454   4.005   4.374   9.419  0.6614  0.7008  0.1511
   41CHL1    H8 5455   3.904   4.361   9.464 -0.6839  1.7244 -2.4276
   41CHL1   C14 5456   3.987   4.391   9.271 -0.7477 -1.0369  0.4662
   41CHL1   H14 5457   4.087   4.412   9.228 -1.6125 -1.6326 -1.9483
   41CHL1   C15 5458   3.895   4.512   9.230  0.0253 -0.1984 -0.2767
   41CHL1  H15A 5459   3.806   4.512   9.296 -1.8529  1.9692 -2.7018
   41CHL1  H15B 5460   3.948   4.609   9.240  1.0370 -0.7935  0.1862
   41CHL1   C16 5461   3.849   4.492   9.085 -0.3687  0.0041 -0.0681
   41CHL1  H16A 5462   3.741   4.513   9.073 -0.5218 -0.9301 -0.3395
   41CHL1  H16B 5463   3.910   4.547   9.011  0.4053 -0.0270  0.5369
   41CHL1   C17 5464   3.904   4.350   9.054  0.0667 -0.4606 -0.4640
   41CHL1   H17 5465   4.008   4.354   9.016 -0.1293 -1.9226 -1.1883
   41CHL1   C13 5466   3.926   4.272   9.191 -0.5621  0.1816  0.6139
   41CHL1   C18 5467   3.787   4.240   9.248 -0.0790  0.6954 -0.4036
   41CHL1  H18A 5468   3.734   4.159   9.193 -0.6578  0.4002  0.5713
   41CHL1  H18B 5469   3.795   4.195   9.350  0.2125  1.0330 -0.2774
   41CHL1  H18C 5470   3.717   4.326   9.243  0.5006  1.1546 -0.6534
   41CHL1   C12 5471   4.027   4.158   9.199 -0.0600  0.2888 -0.8730
   41CHL1  H12A 5472   3.986   4.063   9.158 -0.4271  0.3627 -0.6818
   41CHL1  H12B 5473   4.123   4.189   9.153 -0.2271  1.2439 -0.5949
   41CHL1   C11 5474   4.067   4.128   9.350 -0.1131  0.1603 -0.2713
   41CHL1  H11A 5475   3.977   4.084   9.399 -0.7090  1.4570 -0.1819
   41CHL1  H11B 5476   4.161   4.068   9.350 -0.3893 -0.3405  2.5084
   41CHL1    C9 5477   4.094   4.250   9.439 -0.3749  0.2115  0.2049
   41CHL1    H9 5478   4.187   4.287   9.390  1.0391  2.0449  4.0795
   41CHL1   C10 5479   4.139   4.214   9.582  0.5132 -0.6415  0.5779
   41CHL1   C19 5480   4.032   4.120   9.654  0.7342  0.3363  0.4505
   41CHL1  H19A 5481   3.927   4.148   9.632  0.8524 -0.5842 -1.3761
   41CHL1  H19B 5482   4.037   4.017   9.612  1.2815 -0.2026  1.8094
   41CHL1  H19C 5483   4.049   4.104   9.763 -1.7262 -2.1892  0.5180
   41CHL1    C1 5484   4.270   4.135   9.576  0.1394 -0.0350  0.4817
   41CHL1   H1A 5485   4.246   4.039   9.525 -1.7905  1.3781 -1.3802
   41CHL1   H1B 5486   4.346   4.183   9.511 -0.2686  0.7313  0.5524
   41CHL1    C2 5487   4.343   4.118   9.714 -0.6400  0.3657  0.2428
   41CHL1   H2A 5488   4.435   4.061   9.690 -1.2767  0.0806 -1.5555
   41CHL1   H2B 5489   4.279   4.077   9.795  0.3891  0.7361  1.2628
   41CHL1   C20 5490   3.816   4.278   8.949  0.3095 -0.7715  0.3881
   41CHL1   H20 5491   3.719   4.253   8.997 -0.2536 -0.2713 -0.4604
   41CHL1   C21 5492   3.897   4.162   8.895 -0.8313  1.1006  0.2974
   41CHL1  H21A 5493   3.849   4.116   8.805  1.6548 -0.8360 -0.0926
   41CHL1  H21B 5494   3.904   4.082   8.973  1.0293 -0.2707 -1.2289
   41CHL1  H21C 5495   3.991   4.207   8.857 -0.8671  0.0055 -1.1280
   41CHL1   C22 5496   3.783   4.375   8.830  0.5071  0.0632  0.8135
   41CHL1  H22A 5497   3.743   4.474   8.858 -0.6388  0.1184 -0.9576
   41CHL1  H22B 5498   3.880   4.395   8.780  1.0240  1.3601  2.2767
   41CHL1   C23 5499   3.669   4.324   8.741 -0.1893  0.2809 -0.0501
   41CHL1  H23A 5500   3.691   4.233   8.680 -2.8222 -0.1361 -0.4495
   41CHL1  H23B 5501   3.580   4.312   8.805 -0.7565  1.9254 -0.5120
   41CHL1   C24 5502   3.632   4.432   8.641  0.7057 -0.3822 -0.9351
   41CHL1  H24A 5503   3.611   4.524   8.699 -1.5606  0.2052 -2.6264
   41CHL1  H24B 5504   3.723   4.445   8.578  0.9790  1.6102 -0.1599
   41CHL1   C25 5505   3.513   4.405   8.546  0.1675 -0.0379  0.5990
   41CHL1   H25 5506   3.509   4.470   8.456  0.9285 -3.3934 -1.9507
   41CHL1   C26 5507   3.520   4.265   8.488 -0.6029  0.1553  1.1373
   41CHL1  H26A 5508   3.504   4.188   8.567 -3.2373 -0.1061  0.4027
   41CHL1  H26B 5509   3.447   4.256   8.404  1.5700 -1.5429 -0.6393
   41CHL1  H26C 5510   3.627   4.258   8.459 -0.5179 -1.1139  1.7041
   41CHL1   C27 5511   3.384   4.432   8.623  0.9842  0.6966  0.4870
   41CHL1  H27A 5512   3.366   4.348   8.693 -2.1580  0.3649 -0.6476
   41CHL1  H27B 5513   3.376   4.535   8.665 -2.5614 -0.5645  3.1999
   41CHL1  H27C 5514   3.306   4.419   8.545  1.1910  1.7196  0.0991
   42CHL1    C3 5515   3.018   4.183   9.690 -0.6659  0.5443 -0.4409
   42CHL1    H3 5516   3.010   4.072   9.685 -1.0200  0.6438 -2.3779
   42CHL1    O3 5517   3.025   4.202   9.826 -0.2494 -0.2535 -0.3044
   42CHL1   H3' 5518   3.042   4.295   9.846 -0.9682  0.2526 -1.9420
   42CHL1    C4 5519   3.148   4.241   9.635  0.2334 -0.8169  0.1506
   42CHL1   H4A 5520   3.154   4.350   9.652  2.4946 -0.5505 -2.2620
   42CHL1   H4B 5521   3.231   4.200   9.696 -0.4203 -1.7775  0.4216
   42CHL1    C5 5522   3.163   4.216   9.491  0.1533 -0.3670 -0.9186
   42CHL1    C6 5523   3.267   4.156   9.439  0.3293 -0.0675 -1.2673
   42CHL1    H6 5524   3.338   4.128   9.519  0.6043  1.8739 -0.8063
   42CHL1    C7 5525   3.283   4.117   9.296  0.4547 -0.6971 -0.5957
   42CHL1   H7A 5526   3.389   4.126   9.265  0.4988  1.5437  0.1016
   42CHL1   H7B 5527   3.245   4.013   9.285  0.8333 -0.8808 -0.1922
   42CHL1    C8 5528   3.192   4.202   9.205 -0.0216  0.6065  0.4124
   42CHL1    H8 5529   3.246   4.298   9.198  1.6720 -0.2834  1.0407
   42CHL1   C14 5530   3.193   4.144   9.060  0.5867 -0.0073  0.1836
   42CHL1   H14 5531   3.149   4.043   9.076  0.4180 -0.0925 -0.7750
   42CHL1   C15 5532   3.319   4.114   8.985 -1.0028 -0.4292 -0.1656
   42CHL1  H15A 5533   3.380   4.204   8.965  0.1408 -1.1857 -0.1822
   42CHL1  H15B 5534   3.378   4.026   9.021  0.4737  0.9243  0.7697
   42CHL1   C16 5535   3.257   4.076   8.847  0.3447 -0.3996  0.0920
   42CHL1  H16A 5536   3.322   4.116   8.766  0.9427  1.6838  1.5569
   42CHL1  H16B 5537   3.265   3.965   8.841  1.2102 -0.2551 -1.7628
   42CHL1   C17 5538   3.116   4.134   8.834  0.0832  0.0108  0.2858
   42CHL1   H17 5539   3.039   4.056   8.849  0.6729  0.1324  4.8044
   42CHL1   C13 5540   3.104   4.227   8.963 -0.2388  0.4142  0.4425
   42CHL1   C18 5541   3.171   4.365   8.923  0.0878 -0.3785 -1.0778
   42CHL1  H18A 5542   3.105   4.423   8.855  0.7178 -0.6141 -1.8949
   42CHL1  H18B 5543   3.186   4.430   9.012 -0.4068 -1.1650 -0.4030
   42CHL1  H18C 5544   3.271   4.347   8.878 -0.0996 -0.6125 -1.4091
   42CHL1   C12 5545   2.961   4.240   9.019  0.4419 -0.8732  0.5966
   42CHL1  H12A 5546   2.897   4.295   8.947  1.2520  0.6339  1.0106
   42CHL1  H12B 5547   2.914   4.139   9.026 -1.5247  0.0514  0.9561
   42CHL1   C11 5548   2.968   4.303   9.155  0.5249  0.4181  0.1251
   42CHL1  H11A 5549   3.007   4.405   9.134 -0.5767  1.2099  1.8181
   42CHL1  H11B 5550   2.865   4.316   9.193 -0.0322 -1.7249 -0.5397
   42CHL1    C9 5551   3.049   4.218   9.260 -0.3539 -0.2200 -0.4594
   42CHL1    H9 5552   3.013   4.113   9.265  1.4361 -0.8680 -0.8099
   42CHL1   C10 5553   3.040   4.265   9.408  0.1112  0.7653 -0.5189
   42CHL1   C19 5554   3.046   4.422   9.397  0.7185  0.1055 -0.1282
   42CHL1  H19A 5555   2.952   4.461   9.351  0.2275 -0.2627  0.5577
   42CHL1  H19B 5556   3.053   4.464   9.500  1.7258 -1.4804  0.4626
   42CHL1  H19C 5557   3.145   4.441   9.352  1.0164 -1.4949 -0.1809
   42CHL1    C1 5558   2.904   4.232   9.479  0.1408 -0.1203 -0.2572
   42CHL1   H1A 5559   2.833   4.289   9.416 -0.4327 -0.6342 -0.0843
   42CHL1   H1B 5560   2.883   4.124   9.461  1.2316 -0.8145  2.4211
   42CHL1    C2 5561   2.900   4.255   9.630  0.2067 -0.4259  0.0713
   42CHL1   H2A 5562   2.805   4.218   9.674  0.9686  0.1721  2.2678
   42CHL1   H2B 5563   2.913   4.363   9.650 -0.8494 -0.4312  0.8488
   42CHL1   C20 5564   3.082   4.190   8.697  0.8476 -0.3247 -0.3717
   42CHL1   H20 5565   3.160   4.268   8.685  0.4566  0.0587 -0.4178
   42CHL1   C21 5566   2.944   4.260   8.683  0.0921 -0.0892 -0.3317
   42CHL1  H21A 5567   2.862   4.209   8.737 -1.7405  0.2015 -2.7612
   42CHL1  H21B 5568   2.916   4.260   8.575  0.1445  1.5711 -0.3605
   42CHL1  H21C 5569   2.960   4.364   8.720  2.0836 -0.0781 -1.1611
   42CHL1   C22 5570   3.105   4.078   8.583  0.4727  0.5140  0.8832
   42CHL1  H22A 5571   3.194   4.013   8.601 -0.4066 -0.3358  2.1787
   42CHL1  H22B 5572   3.019   4.011   8.564 -1.0349  2.8692 -0.7895
   42CHL1   C23 5573   3.124   4.140   8.440  0.1799 -0.1794  0.9207
   42CHL1  H23A 5574   3.031   4.197   8.420  0.0183 -0.9745 -0.7269
   42CHL1  H23B 5575   3.213   4.207   8.438  0.6116 -0.7553  0.4951
   42CHL1   C24 5576   3.138   4.032   8.331  0.2637  0.1936 -0.5832
   42CHL1  H24A 5577   3.224   3.966   8.355 -0.9199 -0.6039  1.7088
   42CHL1  H24B 5578   3.043   3.974   8.337 -0.2959  1.0879 -0.6997
   42CHL1   C25 5579   3.143   4.075   8.185 -0.8477 -0.3344  0.0195
   42CHL1   H25 5580   3.221   4.153   8.169 -1.0800  0.3574  2.0603
   42CHL1   C26 5581   3.172   3.949   8.100 -0.0818 -0.0733  0.2694
   42CHL1  H26A 5582   3.276   3.917   8.119  0.7256  2.1458 -0.3055
   42CHL1  H26B 5583   3.098   3.869   8.121  0.8118 -0.2775  2.7361
   42CHL1  H26C 5584   3.152   3.970   7.992  3.7674 -0.6915 -0.6387
   42CHL1   C27 5585   3.004   4.136   8.146 -0.4913  0.9355 -0.0313
   42CHL1  H27A 5586   2.994   4.234   8.198  1.2952 -0.8146  3.7765
   42CHL1  H27B 5587   2.998   4.151   8.036 -1.8031 -0.9586 -0.2356
   42CHL1  H27C 5588   2.914   4.078   8.176 -1.2324  1.6155 -0.8925
   43CHL1    C3 5589   4.996   4.546   9.606 -0.1082 -0.3520  0.1925
   43CHL1    H3 5590   4.935   4.638   9.602  2.4505  1.5053  1.9915
   43CHL1    O3 5591   5.086   4.551   9.716  0.4079  0.8265 -0.4339
   43CHL1   H3' 5592   5.145   4.621   9.685  0.3601  1.1096  0.1088
   43CHL1    C4 5593   4.906   4.423   9.617  0.6521  0.5845 -0.7551
   43CHL1   H4A 5594   4.976   4.337   9.626  1.1932  1.0375 -0.6487
   43CHL1   H4B 5595   4.858   4.436   9.716  0.7915 -0.9495 -0.4756
   43CHL1    C5 5596   4.812   4.425   9.503 -0.2487  0.7933 -0.7684
   43CHL1    C6 5597   4.680   4.444   9.522 -0.2212 -0.3995  0.3875
   43CHL1    H6 5598   4.636   4.443   9.623 -2.0169 -0.3728 -0.3692
   43CHL1    C7 5599   4.589   4.458   9.400 -0.3112  0.4602 -0.1238
   43CHL1   H7A 5600   4.489   4.416   9.424 -0.0333 -0.8476 -1.1656
   43CHL1   H7B 5601   4.571   4.563   9.370  1.3229  0.4161 -1.3194
   43CHL1    C8 5602   4.633   4.380   9.275 -0.3705  0.4771 -0.2298
   43CHL1    H8 5603   4.636   4.270   9.291 -2.3271  0.3504 -0.5033
   43CHL1   C14 5604   4.539   4.409   9.157  0.1780  0.5998 -0.1883
   43CHL1   H14 5605   4.525   4.518   9.142  1.9041  1.0455  1.3541
   43CHL1   C15 5606   4.394   4.356   9.174  0.3854  0.4198  0.4388
   43CHL1  H15A 5607   4.390   4.256   9.223  0.7646  0.0581 -0.2729
   43CHL1  H15B 5608   4.343   4.428   9.241 -1.1420  0.0474 -0.2969
   43CHL1   C16 5609   4.329   4.350   9.031  0.2382 -0.1587  0.3581
   43CHL1  H16A 5610   4.287   4.254   8.995  0.8180  0.3993 -1.9160
   43CHL1  H16B 5611   4.249   4.427   9.025 -0.8150 -1.3184 -0.9475
   43CHL1   C17 5612   4.448   4.390   8.937  0.2928 -0.1298  0.1452
   43CHL1   H17 5613   4.455   4.500   8.925  0.1190 -0.0782  0.4997
   43CHL1   C13 5614   4.572   4.343   9.018 -0.6744  0.0452  0.3695
   43CHL1   C18 5615   4.568   4.185   9.018 -0.2821 -0.4880 -0.0847
   43CHL1  H18A 5616   4.612   4.135   8.930 -0.4287  1.0628 -1.0497
   43CHL1  H18B 5617   4.619   4.151   9.111 -3.2038 -0.3244  1.6313
   43CHL1  H18C 5618   4.468   4.138   9.027 -0.0846 -0.8369  0.2850
   43CHL1   C12 5619   4.708   4.388   8.975 -0.1205  0.2898 -0.8601
   43CHL1  H12A 5620   4.743   4.330   8.887  0.0206  0.9744 -1.2590
   43CHL1  H12B 5621   4.712   4.495   8.947 -1.9465  0.4251 -0.6161
   43CHL1   C11 5622   4.810   4.361   9.094 -0.4621  0.0276  0.2426
   43CHL1  H11A 5623   4.811   4.252   9.114 -0.4040 -0.0177 -0.0071
   43CHL1  H11B 5624   4.918   4.384   9.077 -0.0803 -0.3073  2.0408
   43CHL1    C9 5625   4.774   4.429   9.232 -0.2102  0.2834  0.0588
   43CHL1    H9 5626   4.763   4.538   9.213 -1.1648  0.1492 -0.1822
   43CHL1   C10 5627   4.875   4.419   9.361  0.3013  0.0002  0.1731
   43CHL1   C19 5628   4.946   4.280   9.354  0.1599  0.1481  0.3011
   43CHL1  H19A 5629   4.870   4.203   9.379  1.1503 -0.3748  1.7687
   43CHL1  H19B 5630   4.993   4.259   9.255  2.3730  1.0102  1.1196
   43CHL1  H19C 5631   5.031   4.279   9.426  0.9784  1.1901 -0.6227
   43CHL1    C1 5632   4.975   4.538   9.354 -0.7836 -0.0558  0.0012
   43CHL1   H1A 5633   5.029   4.544   9.257 -0.9731  0.6786 -0.0660
   43CHL1   H1B 5634   4.927   4.637   9.368  2.8530  1.5048  2.0521
   43CHL1    C2 5635   5.074   4.542   9.473 -0.5221  0.1851 -0.0082
   43CHL1   H2A 5636   5.132   4.636   9.464 -1.5777  1.0413  1.8023
   43CHL1   H2B 5637   5.136   4.450   9.480 -0.3620  0.1680 -1.4421
   43CHL1   C20 5638   4.428   4.348   8.790  0.5286  0.3188 -0.4174
   43CHL1   H20 5639   4.462   4.242   8.790  1.5469  0.5963  1.5091
   43CHL1   C21 5640   4.511   4.435   8.694 -0.1914  0.0638  0.1405
   43CHL1  H21A 5641   4.620   4.429   8.713  0.0530 -1.1776 -1.4878
   43CHL1  H21B 5642   4.476   4.540   8.701  0.5102  0.4141 -1.3762
   43CHL1  H21C 5643   4.505   4.412   8.585 -3.8628 -2.5050  0.7903
   43CHL1   C22 5644   4.278   4.360   8.753  0.1522 -0.1786 -0.2106
   43CHL1  H22A 5645   4.219   4.285   8.811  1.1466 -2.5698 -2.1969
   43CHL1  H22B 5646   4.246   4.466   8.765  0.7451 -0.0653  0.3802
   43CHL1   C23 5647   4.254   4.318   8.606  0.6281  0.1107 -0.1756
   43CHL1  H23A 5648   4.292   4.399   8.541  1.5038 -0.5848 -0.5392
   43CHL1  H23B 5649   4.313   4.225   8.587 -0.9646 -1.0089  0.2519
   43CHL1   C24 5650   4.113   4.285   8.568 -0.4191 -0.3478 -0.2039
   43CHL1  H24A 5651   4.106   4.182   8.608  0.1217 -0.8454 -1.3872
   43CHL1  H24B 5652   4.041   4.347   8.626 -1.9907 -2.7765  0.4774
   43CHL1   C25 5653   4.090   4.262   8.413  0.6364  0.3182  0.0638
   43CHL1   H25 5654   4.089   4.365   8.370 -3.6388  0.3692  0.0722
   43CHL1   C26 5655   4.196   4.176   8.329 -0.2136  0.0303 -0.4520
   43CHL1  H26A 5656   4.172   4.194   8.222 -2.7735  1.6360  0.3426
   43CHL1  H26B 5657   4.299   4.214   8.345  0.1285 -0.9739 -0.2299
   43CHL1  H26C 5658   4.188   4.068   8.355  1.1244  0.3790  1.6016
   43CHL1   C27 5659   3.951   4.203   8.383 -0.1325 -0.5196  0.3676
   43CHL1  H27A 5660   3.876   4.252   8.449  0.6353  0.2899  0.6477
   43CHL1  H27B 5661   3.927   4.239   8.281  0.4270  0.2063  0.4875
   43CHL1  H27C 5662   3.940   4.093   8.389  3.6514 -0.9737  0.2393
   44CHL1    C3 5663   5.311   3.865   9.641  0.7095 -0.1990  0.2786
   44CHL1    H3 5664   5.310   3.976   9.641 -1.9495 -0.1841 -1.6775
   44CHL1    O3 5665   5.321   3.833   9.778 -0.8361  0.3025 -0.7664
   44CHL1   H3' 5666   5.408   3.867   9.799 -1.0387  0.8117 -0.7617
   44CHL1    C4 5667   5.177   3.809   9.593  0.2936  0.4847  0.4717
   44CHL1   H4A 5668   5.184   3.700   9.611 -1.4595  0.3258  0.2340
   44CHL1   H4B 5669   5.097   3.842   9.662 -0.1382 -2.6872  1.5751
   44CHL1    C5 5670   5.147   3.841   9.449 -0.1281 -0.4875 -0.0410
   44CHL1    C6 5671   5.038   3.911   9.407 -0.0631  0.3837 -0.2477
   44CHL1    H6 5672   4.965   3.949   9.480 -0.0625  1.8527 -1.0047
   44CHL1    C7 5673   5.004   3.931   9.258  0.0370 -0.5871 -0.3287
   44CHL1   H7A 5674   4.895   3.924   9.242 -0.0307 -0.4360  0.0663
   44CHL1   H7B 5675   5.019   4.038   9.233 -0.0897 -0.9062 -1.8193
   44CHL1    C8 5676   5.096   3.851   9.167  0.4673 -0.3708 -0.0583
   44CHL1    H8 5677   5.061   3.747   9.158  0.0041 -0.5035  2.8235
   44CHL1   C14 5678   5.094   3.918   9.029  0.4326 -0.3856 -0.9456
   44CHL1   H14 5679   5.146   4.015   9.043 -0.8552  0.2572 -0.5331
   44CHL1   C15 5680   4.954   3.951   8.962 -0.0302 -0.4806  0.4482
   44CHL1  H15A 5681   4.881   3.871   8.987 -1.3688 -0.3976 -2.9373
   44CHL1  H15B 5682   4.906   4.047   8.988 -1.1293 -0.5866 -1.1085
   44CHL1   C16 5683   4.989   3.951   8.810  0.6803  0.3147 -0.2758
   44CHL1  H16A 5684   4.921   3.883   8.755  0.7717 -1.3873  1.6452
   44CHL1  H16B 5685   4.974   4.048   8.759 -2.4285 -0.8216 -1.6248
   44CHL1   C17 5686   5.139   3.925   8.795  0.3504 -0.0280  0.1419
   44CHL1   H17 5687   5.184   4.026   8.807 -0.1123 -0.0095  1.9197
   44CHL1   C13 5688   5.172   3.841   8.922  0.3007  0.4310  0.3280
   44CHL1   C18 5689   5.119   3.699   8.912  0.2906 -0.0477 -0.0684
   44CHL1  H18A 5690   5.153   3.643   8.822  0.6502  0.0819 -0.0116
   44CHL1  H18B 5691   5.156   3.636   8.996  1.3584 -0.0857 -0.5514
   44CHL1  H18C 5692   5.009   3.705   8.905  0.3961  2.2433  0.0698
   44CHL1   C12 5693   5.322   3.856   8.957  0.4224 -0.0970 -0.5441
   44CHL1  H12A 5694   5.380   3.793   8.886  0.1661 -0.5898 -0.3103
   44CHL1  H12B 5695   5.352   3.963   8.950  0.8203 -0.2441 -1.1371
   44CHL1   C11 5696   5.348   3.813   9.100  0.5019 -0.3133 -0.0600
   44CHL1  H11A 5697   5.352   3.702   9.111  2.7663 -0.6166 -3.4005
   44CHL1  H11B 5698   5.452   3.844   9.126  1.3167 -1.9826 -1.2342
   44CHL1    C9 5699   5.244   3.866   9.208 -0.2976 -0.2866 -0.4215
   44CHL1    H9 5700   5.269   3.974   9.212  1.4706 -0.5719 -2.7148
   44CHL1   C10 5701   5.259   3.804   9.351 -0.2788  0.2058  0.4520
   44CHL1   C19 5702   5.246   3.648   9.337  0.0260  0.0524  0.0244
   44CHL1  H19A 5703   5.163   3.611   9.273 -0.3529 -0.8109  1.0037
   44CHL1  H19B 5704   5.337   3.615   9.282  0.2019 -2.0619  1.5278
   44CHL1  H19C 5705   5.255   3.593   9.433  1.3043 -0.1045 -0.1774
   44CHL1    C1 5706   5.403   3.838   9.407  0.1113  0.1732 -0.2234
   44CHL1   H1A 5707   5.480   3.785   9.348  2.3807  1.7151  1.2854
   44CHL1   H1B 5708   5.425   3.946   9.394 -2.7041  1.0983  1.9939
   44CHL1    C2 5709   5.429   3.807   9.559  0.2194 -0.2697  0.5841
   44CHL1   H2A 5710   5.512   3.871   9.596 -0.9317  1.4407  0.2499
   44CHL1   H2B 5711   5.448   3.699   9.573 -1.6504 -0.8076 -0.7951
   44CHL1   C20 5712   5.180   3.863   8.659 -0.0158  0.5863 -0.0552
   44CHL1   H20 5713   5.267   3.798   8.685 -0.6403 -0.4665 -0.5679
   44CHL1   C21 5714   5.216   3.976   8.561 -0.9458 -0.2469 -0.3125
   44CHL1  H21A 5715   5.127   4.043   8.557 -0.6477  0.1518 -0.2671
   44CHL1  H21B 5716   5.249   3.953   8.458  2.1410 -0.1931  0.6217
   44CHL1  H21C 5717   5.302   4.028   8.607 -3.0409  2.0271  1.1706
   44CHL1   C22 5718   5.074   3.766   8.593 -1.2459  0.1937 -0.0047
   44CHL1  H22A 5719   5.030   3.697   8.668 -2.7002 -0.3436 -1.3245
   44CHL1  H22B 5720   4.990   3.824   8.550 -1.4301  0.8735  1.2631
   44CHL1   C23 5721   5.142   3.677   8.489  0.0049 -0.0883  0.1316
   44CHL1  H23A 5722   5.216   3.731   8.426 -1.1057 -0.1509 -1.2307
   44CHL1  H23B 5723   5.199   3.599   8.544  0.1997 -0.1457 -0.1520
   44CHL1   C24 5724   5.047   3.615   8.382 -0.0720  0.6168  0.0016
   44CHL1  H24A 5725   5.013   3.694   8.312 -4.0184 -0.4343  0.6006
   44CHL1  H24B 5726   5.105   3.556   8.308  0.6617 -0.3759  1.3441
   44CHL1   C25 5727   4.927   3.530   8.431 -0.4146  0.3209 -0.2888
   44CHL1   H25 5728   4.871   3.596   8.500  0.3365  0.9456 -0.2733
   44CHL1   C26 5729   4.833   3.491   8.322  0.0067  0.1062 -0.0090
   44CHL1  H26A 5730   4.735   3.445   8.346  0.3313 -0.6203 -0.0656
   44CHL1  H26B 5731   4.808   3.568   8.247 -0.6832 -1.4874 -1.4395
   44CHL1  H26C 5732   4.899   3.424   8.263  1.8065  1.0043  0.9397
   44CHL1   C27 5733   4.972   3.400   8.498  0.0271 -0.6910 -0.2049
   44CHL1  H27A 5734   4.886   3.341   8.536  0.0751 -0.2090  0.6652
   44CHL1  H27B 5735   5.034   3.354   8.418  0.2335  2.5338 -1.9664
   44CHL1  H27C 5736   5.035   3.436   8.582  2.1235 -1.2523 -1.4915
   45CHL1    C3 5737   2.236   4.606   9.848  0.3621  0.5502 -0.7619
   45CHL1    H3 5738   2.305   4.551   9.916  0.3464  1.2194 -0.1970
   45CHL1    O3 5739   2.171   4.710   9.926  0.1398 -0.6305 -0.3077
   45CHL1   H3' 5740   2.121   4.762   9.862  1.0300  0.2820 -0.2565
   45CHL1    C4 5741   2.309   4.678   9.741 -0.1054 -0.6263  0.0391
   45CHL1   H4A 5742   2.246   4.746   9.680 -1.1288 -1.4050  0.2086
   45CHL1   H4B 5743   2.381   4.743   9.794 -0.5198 -1.8522  2.1736
   45CHL1    C5 5744   2.383   4.578   9.650  0.2497 -0.5827 -0.4432
   45CHL1    C6 5745   2.516   4.571   9.649 -0.1112 -0.0727  0.4867
   45CHL1    H6 5746   2.564   4.632   9.727 -2.5917 -2.3618  3.9158
   45CHL1    C7 5747   2.588   4.475   9.558 -0.0582 -0.1577  0.5336
   45CHL1   H7A 5748   2.683   4.524   9.527 -0.0409  0.0957  0.9814
   45CHL1   H7B 5749   2.615   4.386   9.618 -1.7299 -1.4722 -0.6293
   45CHL1    C8 5750   2.499   4.413   9.441  0.6273  0.0301 -0.4136
   45CHL1    H8 5751   2.552   4.320   9.413 -0.9362 -1.8282  2.5257
   45CHL1   C14 5752   2.492   4.495   9.315 -0.2542  0.5029 -0.4168
   45CHL1   H14 5753   2.441   4.584   9.358  1.4431  1.1980  0.2344
   45CHL1   C15 5754   2.628   4.543   9.258  0.0741 -0.1793 -0.3208
   45CHL1  H15A 5755   2.631   4.651   9.287 -2.0012  0.4764 -2.3491
   45CHL1  H15B 5756   2.713   4.491   9.307  1.3965  2.4819  0.3163
   45CHL1   C16 5757   2.619   4.521   9.104 -0.5353  0.2389 -0.3562
   45CHL1  H16A 5758   2.573   4.613   9.060  0.1485  0.9149  0.3453
   45CHL1  H16B 5759   2.715   4.499   9.052 -0.3988  3.8138 -1.7905
   45CHL1   C17 5760   2.524   4.402   9.091  0.2657  0.1349  0.3092
   45CHL1   H17 5761   2.590   4.319   9.124 -0.5434 -1.1681 -1.2625
   45CHL1   C13 5762   2.415   4.425   9.200  0.1740  0.1917 -0.4837
   45CHL1   C18 5763   2.307   4.524   9.155 -0.0410  0.8265 -0.2137
   45CHL1  H18A 5764   2.357   4.610   9.106 -0.9482  0.5674 -1.6168
   45CHL1  H18B 5765   2.253   4.473   9.072  0.2638 -1.5748  1.0141
   45CHL1  H18C 5766   2.237   4.558   9.234 -1.4631 -1.8315 -0.2557
   45CHL1   C12 5767   2.352   4.291   9.247  0.1721  0.1981 -0.6361
   45CHL1  H12A 5768   2.283   4.252   9.169  0.4941  0.2500 -0.9441
   45CHL1  H12B 5769   2.425   4.209   9.259 -0.6307 -0.7099 -1.8115
   45CHL1   C11 5770   2.271   4.315   9.373  0.9286  1.1065 -0.0191
   45CHL1  H11A 5771   2.177   4.364   9.341 -0.3367 -0.7400  0.7768
   45CHL1  H11B 5772   2.230   4.216   9.399 -0.5351  1.4506 -0.9896
   45CHL1    C9 5773   2.355   4.380   9.484 -0.7528  1.4101 -0.5106
   45CHL1    H9 5774   2.378   4.303   9.561 -3.3208  1.5253  0.4045
   45CHL1   C10 5775   2.280   4.487   9.572  0.2394 -0.5841  0.6752
   45CHL1   C19 5776   2.184   4.581   9.494  0.0585  0.1736 -0.8494
   45CHL1  H19A 5777   2.113   4.527   9.427 -0.9900  0.4779  0.0093
   45CHL1  H19B 5778   2.125   4.649   9.558  0.3548  1.0906 -1.5497
   45CHL1  H19C 5779   2.249   4.639   9.425  1.1225 -1.6056 -1.3771
   45CHL1    C1 5780   2.203   4.412   9.688 -0.0251 -0.0509 -0.4006
   45CHL1   H1A 5781   2.131   4.342   9.639 -0.9125  1.2700 -0.9880
   45CHL1   H1B 5782   2.276   4.341   9.733  1.7841  0.1456 -2.9473
   45CHL1    C2 5783   2.136   4.503   9.790 -0.1145 -0.7664  0.2108
   45CHL1   H2A 5784   2.082   4.437   9.861 -2.9780  0.3173 -0.8958
   45CHL1   H2B 5785   2.052   4.551   9.735  1.1084  0.3695 -0.7032
   45CHL1   C20 5786   2.488   4.363   8.941 -0.3300 -0.0104  0.3146
   45CHL1   H20 5787   2.386   4.404   8.926 -1.3233 -2.3358  0.5989
   45CHL1   C21 5788   2.483   4.207   8.934  0.4626 -0.5281 -1.3349
   45CHL1  H21A 5789   2.577   4.157   8.966  0.0293 -0.9094 -0.6608
   45CHL1  H21B 5790   2.457   4.178   8.830  1.3807 -0.8339 -1.4815
   45CHL1  H21C 5791   2.406   4.184   9.010  1.2905 -0.2292 -0.3831
   45CHL1   C22 5792   2.574   4.430   8.830 -0.7143  0.3914 -0.2131
   45CHL1  H22A 5793   2.581   4.541   8.840 -0.4442  0.2970  0.6416
   45CHL1  H22B 5794   2.677   4.392   8.846 -1.9232 -2.9093  0.0731
   45CHL1   C23 5795   2.558   4.376   8.686  0.6719  0.5092 -0.2053
   45CHL1  H23A 5796   2.612   4.279   8.681 -0.6709 -0.2556 -0.3009
   45CHL1  H23B 5797   2.451   4.347   8.677  0.5635  0.7901  0.1646
   45CHL1   C24 5798   2.603   4.469   8.575  0.4668  0.2945 -0.2519
   45CHL1  H24A 5799   2.702   4.510   8.604  0.5431 -0.1423  0.1093
   45CHL1  H24B 5800   2.611   4.410   8.481  3.0402 -0.3945  0.3808
   45CHL1   C25 5801   2.507   4.581   8.533 -0.5713  0.5466  0.4371
   45CHL1   H25 5802   2.487   4.642   8.624 -4.9869 -2.2162  1.4593
   45CHL1   C26 5803   2.573   4.662   8.419  0.8609  0.1718 -1.0822
   45CHL1  H26A 5804   2.505   4.740   8.376  0.3847  0.5757  0.3826
   45CHL1  H26B 5805   2.663   4.711   8.462  0.3998 -0.1593  0.2847
   45CHL1  H26C 5806   2.595   4.595   8.334  0.4562  0.7881 -1.6820
   45CHL1   C27 5807   2.382   4.519   8.473  0.1958  0.5774  0.0843
   45CHL1  H27A 5808   2.308   4.467   8.538  0.3042  0.4105  0.0754
   45CHL1  H27B 5809   2.321   4.597   8.423 -0.9165 -0.9881 -1.0752
   45CHL1  H27C 5810   2.424   4.453   8.394 -0.9628  0.2263 -0.2530
   46CHL1    C3 5811   4.449   2.359   9.702  0.3509 -0.9057  0.1088
   46CHL1    H3 5812   4.362   2.289   9.706  0.1599 -0.8990 -2.9467
   46CHL1    O3 5813   4.498   2.389   9.836  0.5839 -0.0715  0.3491
   46CHL1   H3' 5814   4.554   2.462   9.809  1.5354 -0.7403  0.4742
   46CHL1    C4 5815   4.557   2.306   9.610 -0.3550 -0.1641 -0.2202
   46CHL1   H4A 5816   4.638   2.377   9.585  0.4117 -1.3442 -1.1141
   46CHL1   H4B 5817   4.602   2.215   9.656  1.1133  1.1717  1.0739
   46CHL1    C5 5818   4.497   2.273   9.465 -0.1353  0.0508 -0.1719
   46CHL1    C6 5819   4.504   2.157   9.399 -0.3706 -0.1789  0.9715
   46CHL1    H6 5820   4.542   2.063   9.442 -0.9813 -0.9894 -0.2264
   46CHL1    C7 5821   4.460   2.133   9.254 -0.7534  0.6050 -0.2683
   46CHL1   H7A 5822   4.537   2.077   9.196 -0.5037  0.3748  0.2874
   46CHL1   H7B 5823   4.368   2.074   9.236 -0.5568  0.2869 -0.2218
   46CHL1    C8 5824   4.438   2.266   9.181  0.5032  0.9859 -0.0784
   46CHL1    H8 5825   4.538   2.304   9.150  0.9567  1.5779  2.0534
   46CHL1   C14 5826   4.355   2.240   9.055 -0.1123  0.2424  1.0197
   46CHL1   H14 5827   4.262   2.196   9.098 -1.5615  0.8759 -1.3523
   46CHL1   C15 5828   4.407   2.131   8.957 -0.4677  0.8854 -0.7468
   46CHL1  H15A 5829   4.517   2.121   8.952 -0.4393  0.6222  0.2947
   46CHL1  H15B 5830   4.373   2.031   8.992 -0.2962  0.7227 -1.0415
   46CHL1   C16 5831   4.342   2.164   8.820 -0.4263 -0.3489 -0.6122
   46CHL1  H16A 5832   4.425   2.185   8.749 -0.1942  0.7178 -0.0365
   46CHL1  H16B 5833   4.272   2.083   8.790  0.6526 -0.4840 -2.8791
   46CHL1   C17 5834   4.265   2.296   8.848  0.1222 -0.4216 -0.2576
   46CHL1   H17 5835   4.170   2.252   8.884 -0.2726  0.3734 -0.3371
   46CHL1   C13 5836   4.319   2.363   8.975 -0.4115 -0.5006  0.2926
   46CHL1   C18 5837   4.449   2.437   8.935  0.5515 -0.2607 -0.0864
   46CHL1  H18A 5838   4.518   2.460   9.019  0.1015  1.2085 -0.1171
   46CHL1  H18B 5839   4.507   2.373   8.865  0.2046 -0.7373  0.0586
   46CHL1  H18C 5840   4.431   2.537   8.890  3.0567  0.6798  0.8894
   46CHL1   C12 5841   4.225   2.448   9.065  0.1732  0.2921  0.1382
   46CHL1  H12A 5842   4.217   2.543   9.009 -0.5376  1.9436  2.9197
   46CHL1  H12B 5843   4.131   2.393   9.090  1.0875 -0.0757  3.0152
   46CHL1   C11 5844   4.294   2.486   9.198 -0.4747 -0.1301  0.4711
   46CHL1  H11A 5845   4.369   2.568   9.188  1.0242 -1.6297 -1.0846
   46CHL1  H11B 5846   4.214   2.520   9.267  0.5130  3.0711  0.1311
   46CHL1    C9 5847   4.367   2.363   9.269  0.6166  0.8117 -0.2485
   46CHL1    H9 5848   4.277   2.305   9.300  1.9935 -1.8508 -1.0470
   46CHL1   C10 5849   4.442   2.402   9.400 -0.4836  0.1375 -0.5587
   46CHL1   C19 5850   4.566   2.495   9.376 -0.6027  0.4374 -0.0563
   46CHL1  H19A 5851   4.544   2.578   9.306 -1.8950 -0.3370 -0.5763
   46CHL1  H19B 5852   4.604   2.537   9.472 -3.2872  1.1574  0.7357
   46CHL1  H19C 5853   4.644   2.428   9.334 -1.3517 -0.5154  0.0645
   46CHL1    C1 5854   4.341   2.465   9.504 -0.1175 -0.1917 -0.6604
   46CHL1   H1A 5855   4.312   2.561   9.457  1.4637  1.1660  1.0583
   46CHL1   H1B 5856   4.253   2.397   9.500  0.5718 -1.1753  0.3493
   46CHL1    C2 5857   4.385   2.486   9.648  0.4198 -0.0115  0.7457
   46CHL1   H2A 5858   4.300   2.514   9.714  0.9633  0.5730  1.2055
   46CHL1   H2B 5859   4.454   2.573   9.653  0.3133  0.2277 -1.5863
   46CHL1   C20 5860   4.237   2.387   8.727 -0.0807  0.6822 -0.3590
   46CHL1   H20 5861   4.295   2.482   8.735  0.9061  0.2480 -2.1403
   46CHL1   C21 5862   4.097   2.435   8.739 -0.7167 -0.8822  0.8470
   46CHL1  H21A 5863   4.078   2.495   8.831  1.8817  1.8323 -0.3242
   46CHL1  H21B 5864   4.027   2.350   8.756 -2.2259 -0.0177 -0.9581
   46CHL1  H21C 5865   4.054   2.499   8.659 -0.1923  0.9505  1.9989
   46CHL1   C22 5866   4.251   2.321   8.579  0.2294  0.1239 -0.1383
   46CHL1  H22A 5867   4.359   2.316   8.552  0.0481 -1.3950 -0.6200
   46CHL1  H22B 5868   4.217   2.216   8.588 -1.1831  0.6884  1.2861
   46CHL1   C23 5869   4.187   2.391   8.461  0.5433  0.0039  0.2464
   46CHL1  H23A 5870   4.077   2.378   8.470  0.4790 -0.2110 -0.8421
   46CHL1  H23B 5871   4.211   2.499   8.472 -1.9223  0.6771 -0.7075
   46CHL1   C24 5872   4.237   2.340   8.330  0.2986  0.5399  0.1424
   46CHL1  H24A 5873   4.346   2.349   8.311  0.1914 -0.0281 -0.7630
   46CHL1  H24B 5874   4.197   2.236   8.337 -0.2927  0.7531  0.0261
   46CHL1   C25 5875   4.165   2.405   8.211 -0.0851  0.2952 -0.1943
   46CHL1   H25 5876   4.059   2.378   8.226  0.9399 -2.7039  2.4556
   46CHL1   C26 5877   4.176   2.563   8.202  0.1039 -0.3030 -0.1206
   46CHL1  H26A 5878   4.153   2.617   8.296 -2.9334 -0.7775 -0.5351
   46CHL1  H26B 5879   4.284   2.580   8.182  0.5027 -0.2744  2.0276
   46CHL1  H26C 5880   4.116   2.603   8.117 -0.2327 -0.1640  0.1834
   46CHL1   C27 5881   4.203   2.331   8.083  0.4714  0.4619 -0.1081
   46CHL1  H27A 5882   4.167   2.226   8.094  0.4154  0.6082  1.2090
   46CHL1  H27B 5883   4.155   2.385   7.999 -1.0691  1.1371  1.1655
   46CHL1  H27C 5884   4.313   2.331   8.070  0.6467  1.0517  1.2809
   47CHL1    C3 5885   4.688   5.058   9.669 -0.4641 -0.0157 -0.3727
   47CHL1    H3 5886   4.600   5.111   9.711 -0.2514 -0.1095  0.1994
   47CHL1    O3 5887   4.777   5.046   9.782 -0.4951  0.2051  0.5924
   47CHL1   H3' 5888   4.852   5.004   9.738 -0.4474 -0.7945  1.6004
   47CHL1    C4 5889   4.658   4.914   9.633  0.2826 -0.0845 -0.0694
   47CHL1   H4A 5890   4.746   4.854   9.604 -1.1143 -0.9644 -2.6191
   47CHL1   H4B 5891   4.618   4.852   9.717  2.4251  1.3970  2.1062
   47CHL1    C5 5892   4.568   4.911   9.512  0.1973  0.4292 -0.2386
   47CHL1    C6 5893   4.445   4.852   9.520 -0.4421 -0.7437 -0.3304
   47CHL1    H6 5894   4.417   4.810   9.618 -1.7824  2.3994  0.7408
   47CHL1    C7 5895   4.352   4.838   9.398  0.6067 -0.4523  0.2069
   47CHL1   H7A 5896   4.308   4.737   9.382 -0.3727  0.1965 -1.3288
   47CHL1   H7B 5897   4.265   4.907   9.406  1.5521  0.7491  0.2378
   47CHL1    C8 5898   4.433   4.874   9.271  0.2899 -0.4208  0.2716
   47CHL1    H8 5899   4.515   4.803   9.247  1.8415  0.8703  1.5823
   47CHL1   C14 5900   4.349   4.887   9.146  0.5127  0.7413  0.3707
   47CHL1   H14 5901   4.270   4.962   9.167 -1.4103 -0.8601 -0.9898
   47CHL1   C15 5902   4.258   4.759   9.114  0.0702 -0.3022 -0.2911
   47CHL1  H15A 5903   4.318   4.666   9.121 -0.8557 -0.9305 -0.6744
   47CHL1  H15B 5904   4.173   4.753   9.185 -1.2602  0.2594 -1.8121
   47CHL1   C16 5905   4.213   4.784   8.969 -0.4534 -0.2621 -0.3434
   47CHL1  H16A 5906   4.241   4.694   8.909 -1.2427 -1.7669  1.5112
   47CHL1  H16B 5907   4.105   4.806   8.963 -0.3610  1.3748  3.1568
   47CHL1   C17 5908   4.290   4.908   8.919  0.4245 -0.1856  0.2570
   47CHL1   H17 5909   4.227   4.998   8.934 -0.4346 -0.1360 -3.1348
   47CHL1   C13 5910   4.413   4.920   9.012  0.6830 -0.3033 -0.6028
   47CHL1   C18 5911   4.516   4.808   8.984 -0.0487 -0.0638  0.3748
   47CHL1  H18A 5912   4.467   4.709   8.980 -2.3457  1.0003  1.1676
   47CHL1  H18B 5913   4.564   4.829   8.886  0.5356  1.8747  1.0433
   47CHL1  H18C 5914   4.585   4.816   9.071 -0.5165 -0.2447  0.7634
   47CHL1   C12 5915   4.482   5.055   9.031  0.0014 -0.1228 -0.4664
   47CHL1  H12A 5916   4.539   5.097   8.945  0.1245  1.5692  0.4308
   47CHL1  H12B 5917   4.394   5.120   9.047 -0.8751 -0.7013 -2.7423
   47CHL1   C11 5918   4.577   5.053   9.149  0.0471 -0.0987 -0.4743
   47CHL1  H11A 5919   4.674   5.004   9.126  0.0794 -0.5972  0.7119
   47CHL1  H11B 5920   4.600   5.161   9.155 -1.0585  0.1353 -0.3004
   47CHL1    C9 5921   4.519   4.998   9.284 -0.0415  0.2433  0.3952
   47CHL1    H9 5922   4.454   5.079   9.323  0.7542  2.7507 -3.2439
   47CHL1   C10 5923   4.630   4.983   9.394  0.1549 -0.0369 -0.0910
   47CHL1   C19 5924   4.749   4.883   9.340  0.1807  0.0081  0.1222
   47CHL1  H19A 5925   4.837   4.881   9.409 -0.0480 -1.4316  0.3850
   47CHL1  H19B 5926   4.703   4.783   9.329 -0.2876  0.2192  0.1445
   47CHL1  H19C 5927   4.785   4.929   9.246 -0.9014  1.8556  0.5861
   47CHL1    C1 5928   4.678   5.123   9.425 -0.4891  0.1441 -0.3260
   47CHL1   H1A 5929   4.732   5.168   9.339  1.5989  0.8268  1.2930
   47CHL1   H1B 5930   4.595   5.195   9.434  0.9528  1.5691  2.3788
   47CHL1    C2 5931   4.759   5.132   9.559  0.6220 -0.5337 -0.1694
   47CHL1   H2A 5932   4.763   5.242   9.573 -0.4773 -0.3812 -0.9391
   47CHL1   H2B 5933   4.861   5.092   9.540  1.2341  1.9551 -2.4022
   47CHL1   C20 5934   4.318   4.905   8.767 -0.1026  0.7736  0.1306
   47CHL1   H20 5935   4.395   4.827   8.746 -0.2064  0.9210 -0.7796
   47CHL1   C21 5936   4.384   5.039   8.723 -0.4245  0.1587 -0.0063
   47CHL1  H21A 5937   4.492   5.036   8.750 -0.8319  0.3110  1.6773
   47CHL1  H21B 5938   4.341   5.132   8.765 -1.7185  1.0675 -3.1445
   47CHL1  H21C 5939   4.378   5.054   8.613  2.2853 -0.1157 -0.2469
   47CHL1   C22 5940   4.192   4.872   8.687 -0.1869 -0.3710 -0.1346
   47CHL1  H22A 5941   4.136   4.790   8.737  1.4515 -1.5154 -0.1659
   47CHL1  H22B 5942   4.120   4.956   8.700 -1.2564 -1.6855  3.2161
   47CHL1   C23 5943   4.229   4.838   8.547 -0.5720 -0.2296 -0.1345
   47CHL1  H23A 5944   4.137   4.808   8.491 -0.9769  2.0859 -0.7487
   47CHL1  H23B 5945   4.252   4.930   8.489 -1.1925  0.5906  0.9074
   47CHL1   C24 5946   4.320   4.718   8.507  0.3203  0.0236 -0.3195
   47CHL1  H24A 5947   4.421   4.727   8.553 -1.0562 -2.6357  3.4656
   47CHL1  H24B 5948   4.266   4.628   8.542  2.1441 -0.2761  1.8711
   47CHL1   C25 5949   4.349   4.703   8.356 -0.5384 -0.2586  0.5204
   47CHL1   H25 5950   4.365   4.808   8.323 -3.5017  0.4557  1.1478
   47CHL1   C26 5951   4.480   4.622   8.332  0.2494 -0.3350 -0.0441
   47CHL1  H26A 5952   4.513   4.624   8.226  0.7128 -1.8809  0.0584
   47CHL1  H26B 5953   4.465   4.516   8.363  0.8249 -0.1027  1.0414
   47CHL1  H26C 5954   4.559   4.677   8.387  0.2511  2.3455 -2.6153
   47CHL1   C27 5955   4.239   4.643   8.283 -0.4102  0.1726  0.1089
   47CHL1  H27A 5956   4.147   4.703   8.301 -0.1439  0.4082  0.6615
   47CHL1  H27B 5957   4.255   4.658   8.174 -0.8841 -0.8469 -0.1112
   47CHL1  H27C 5958   4.225   4.538   8.319 -2.0649  0.3795  0.1319
   48CHL1    C3 5959   5.686   4.268   9.692 -0.2956 -0.3806 -0.6538
   48CHL1    H3 5960   5.706   4.165   9.657 -3.2288 -2.5335  3.5204
   48CHL1    O3 5961   5.741   4.283   9.823 -0.5644 -0.4667  0.4178
   48CHL1   H3' 5962   5.750   4.191   9.846  0.3593 -0.4277  0.2358
   48CHL1    C4 5963   5.747   4.370   9.604 -0.2963 -0.3575 -0.3245
   48CHL1   H4A 5964   5.726   4.467   9.653 -1.3713  0.4649 -2.3575
   48CHL1   H4B 5965   5.857   4.355   9.602 -0.4446 -1.5431 -0.3797
   48CHL1    C5 5966   5.690   4.369   9.466  0.3388 -0.5590  0.0737
   48CHL1    C6 5967   5.769   4.348   9.360  0.2256 -0.8182 -0.4785
   48CHL1    H6 5968   5.877   4.342   9.380  0.0207 -1.0735  0.5518
   48CHL1    C7 5969   5.723   4.353   9.221  0.4114  0.2342  0.0184
   48CHL1   H7A 5970   5.789   4.411   9.153  1.3272 -0.2452  0.4780
   48CHL1   H7B 5971   5.741   4.250   9.183  2.0440  0.6051 -0.2534
   48CHL1    C8 5972   5.576   4.393   9.198  0.4143  1.0165 -0.1891
   48CHL1    H8 5973   5.580   4.503   9.214 -2.1664  0.9568  1.0792
   48CHL1   C14 5974   5.519   4.356   9.067 -0.1607 -0.2235 -0.0838
   48CHL1   H14 5975   5.504   4.246   9.056 -1.2162 -0.3313  2.1919
   48CHL1   C15 5976   5.593   4.412   8.942  0.5268  0.4144  0.6725
   48CHL1  H15A 5977   5.617   4.518   8.968  0.4406  1.0448 -1.6639
   48CHL1  H15B 5978   5.685   4.350   8.934 -1.3452 -2.1930 -1.3099
   48CHL1   C16 5979   5.496   4.401   8.825  0.7223 -0.5618  0.7941
   48CHL1  H16A 5980   5.496   4.488   8.756 -0.4427  0.0111  1.5030
   48CHL1  H16B 5981   5.524   4.318   8.756 -1.3048  1.2699 -2.3916
   48CHL1   C17 5982   5.354   4.369   8.893 -0.3021  0.1626  0.2967
   48CHL1   H17 5983   5.342   4.258   8.889  0.4064  0.0756  0.5256
   48CHL1   C13 5984   5.373   4.409   9.042  0.6084  0.6459 -0.0752
   48CHL1   C18 5985   5.362   4.561   9.047 -0.5063 -0.4573 -0.1595
   48CHL1  H18A 5986   5.426   4.602   8.966 -0.9530 -1.0146 -0.7980
   48CHL1  H18B 5987   5.257   4.595   9.033 -1.0095 -1.4062  1.1959
   48CHL1  H18C 5988   5.394   4.608   9.143 -3.9771  1.0485  0.3769
   48CHL1   C12 5989   5.284   4.333   9.146 -0.1920  0.6582 -0.2332
   48CHL1  H12A 5990   5.175   4.347   9.134  0.1374  0.5766 -3.6926
   48CHL1  H12B 5991   5.311   4.225   9.144 -2.3287  0.1423 -2.4019
   48CHL1   C11 5992   5.335   4.369   9.286 -0.0920  0.3031  0.5100
   48CHL1  H11A 5993   5.301   4.474   9.295  1.2485  1.0514 -2.5127
   48CHL1  H11B 5994   5.280   4.299   9.352 -1.6969  0.1669 -0.9383
   48CHL1    C9 5995   5.486   4.335   9.312 -0.1697  0.1202 -0.1444
   48CHL1    H9 5996   5.476   4.225   9.309 -2.1786  0.2599  0.4553
   48CHL1   C10 5997   5.531   4.378   9.454 -0.2692  0.4215 -0.5660
   48CHL1   C19 5998   5.487   4.519   9.485  0.6331 -0.3413 -0.0745
   48CHL1  H19A 5999   5.381   4.551   9.483  0.7985  0.1621 -1.2019
   48CHL1  H19B 6000   5.529   4.553   9.582 -0.4754  0.9916 -0.0428
   48CHL1  H19C 6001   5.535   4.580   9.405  1.9387  2.4758  2.7106
   48CHL1    C1 6002   5.472   4.280   9.562 -0.1345  0.2187  0.1534
   48CHL1   H1A 6003   5.369   4.320   9.574 -0.0553  0.1147  1.2883
   48CHL1   H1B 6004   5.476   4.177   9.521 -1.4979  1.0542 -2.1535
   48CHL1    C2 6005   5.534   4.281   9.702 -0.1584  0.6403 -0.1597
   48CHL1   H2A 6006   5.488   4.203   9.767  0.3463  0.3675 -0.1231
   48CHL1   H2B 6007   5.517   4.376   9.757  0.7403  2.5493 -3.0755
   48CHL1   C20 6008   5.241   4.427   8.805 -0.4154 -0.0427  0.4832
   48CHL1   H20 6009   5.254   4.538   8.803  0.9465 -0.2177 -0.7691
   48CHL1   C21 6010   5.104   4.389   8.864  0.5720  0.0585 -0.7086
   48CHL1  H21A 6011   5.090   4.446   8.959  4.5545 -1.6369  1.0065
   48CHL1  H21B 6012   5.096   4.280   8.883 -0.0565  0.3766  1.0005
   48CHL1  H21C 6013   5.020   4.422   8.799 -0.4065 -3.3977 -1.2895
   48CHL1   C22 6014   5.239   4.370   8.659  0.0933 -0.4466  0.4583
   48CHL1  H22A 6015   5.338   4.377   8.610  0.5227 -2.4662  1.0010
   48CHL1  H22B 6016   5.218   4.261   8.665  1.8661 -0.7281  2.2346
   48CHL1   C23 6017   5.147   4.445   8.555 -0.1065  0.2053 -0.7213
   48CHL1  H23A 6018   5.045   4.447   8.599  0.6770  2.4796  1.1022
   48CHL1  H23B 6019   5.200   4.540   8.531  3.0642 -1.1158  0.7329
   48CHL1   C24 6020   5.142   4.348   8.428 -1.2480  0.4131  0.2097
   48CHL1  H24A 6021   5.245   4.319   8.399 -0.1688  3.6082  0.7261
   48CHL1  H24B 6022   5.088   4.251   8.434  1.3935 -1.1956 -0.9897
   48CHL1   C25 6023   5.078   4.409   8.303 -0.9291 -0.1006 -0.2170
   48CHL1   H25 6024   5.119   4.511   8.289  1.1654 -1.0104 -0.8757
   48CHL1   C26 6025   5.119   4.336   8.175  0.3052  0.7208 -0.1518
   48CHL1  H26A 6026   5.227   4.338   8.147 -0.0144  1.6435 -1.3545
   48CHL1  H26B 6027   5.099   4.227   8.185  1.3207  0.6041  0.8130
   48CHL1  H26C 6028   5.062   4.371   8.087  1.0692  0.5252 -0.7277
   48CHL1   C27 6029   4.923   4.415   8.303 -0.1072 -0.0721 -0.6209
   48CHL1  H27A 6030   4.879   4.462   8.394  0.5536 -2.4858  0.9901
   48CHL1  H27B 6031   4.884   4.478   8.220 -0.3157 -0.5204 -0.8620
   48CHL1  H27C 6032   4.873   4.317   8.293 -0.8253  0.1384  0.8202
   49CHL1    C3 6033   4.072   1.975   9.713  0.3423 -0.2659 -0.4987
   49CHL1    H3 6034   4.071   1.864   9.724 -1.6281 -0.1336  1.0286
   49CHL1    O3 6035   4.100   2.043   9.836 -0.0731 -0.0967  0.4185
   49CHL1   H3' 6036   4.088   2.134   9.806 -0.1532 -0.1521  0.2835
   49CHL1    C4 6037   4.181   2.009   9.614 -0.1478 -0.3693 -0.2522
   49CHL1   H4A 6038   4.191   2.119   9.623  0.9164 -0.6086  1.7240
   49CHL1   H4B 6039   4.278   1.964   9.645 -0.9121 -2.4966 -0.8273
   49CHL1    C5 6040   4.157   1.964   9.470 -0.4508  0.2714 -0.1971
   49CHL1    C6 6041   4.241   1.873   9.415 -0.4992 -0.3573 -0.0778
   49CHL1    H6 6042   4.340   1.851   9.457  0.3274  1.9735 -0.7173
   49CHL1    C7 6043   4.216   1.823   9.274  1.0161  0.1669 -0.6699
   49CHL1   H7A 6044   4.311   1.833   9.217  0.8808  0.5366 -0.8266
   49CHL1   H7B 6045   4.192   1.714   9.272 -2.1026  0.8074 -1.5294
   49CHL1    C8 6046   4.098   1.898   9.201  0.2004 -0.9713 -0.0752
   49CHL1    H8 6047   4.136   2.000   9.178  0.2261 -0.8192  0.6274
   49CHL1   C14 6048   4.054   1.827   9.075 -0.2004 -0.7004  0.0074
   49CHL1   H14 6049   4.014   1.729   9.106  0.2971 -0.2870  2.0020
   49CHL1   C15 6050   4.155   1.785   8.970  0.7384 -0.0521  0.4626
   49CHL1  H15A 6051   4.240   1.854   8.952  0.6458 -0.7042 -2.7001
   49CHL1  H15B 6052   4.199   1.687   9.001 -2.8041 -2.5171 -1.9211
   49CHL1   C16 6053   4.071   1.760   8.833  0.2650 -0.7175 -0.1481
   49CHL1  H16A 6054   4.106   1.842   8.766 -2.3102 -1.2347 -2.2004
   49CHL1  H16B 6055   4.094   1.665   8.781  0.6118 -0.6673 -0.0855
   49CHL1   C17 6056   3.924   1.795   8.884 -0.1150  0.2567  0.7176
   49CHL1   H17 6057   3.895   1.701   8.935 -2.1185  2.4015  3.6796
   49CHL1   C13 6058   3.942   1.899   8.998 -0.4359  1.2395 -0.1394
   49CHL1   C18 6059   3.981   2.036   8.950 -0.1974  0.3565  0.3528
   49CHL1  H18A 6060   4.060   2.028   8.873 -0.6760  1.5338 -0.2817
   49CHL1  H18B 6061   3.893   2.089   8.909 -0.8322 -0.5646  0.5154
   49CHL1  H18C 6062   4.021   2.103   9.029 -0.9344  0.4719  0.6313
   49CHL1   C12 6063   3.821   1.905   9.095 -0.5528 -0.1841  0.1269
   49CHL1  H12A 6064   3.738   1.963   9.049 -0.0004 -1.2300 -2.2260
   49CHL1  H12B 6065   3.798   1.801   9.127  1.8239 -0.5162  0.8699
   49CHL1   C11 6066   3.859   1.980   9.222 -0.6874  0.1859 -0.3017
   49CHL1  H11A 6067   3.853   2.087   9.195 -0.1284 -0.2371 -2.1622
   49CHL1  H11B 6068   3.767   1.960   9.280 -1.7618  1.5587 -1.5058
   49CHL1    C9 6069   3.978   1.917   9.295 -0.2832 -1.5087  0.2725
   49CHL1    H9 6070   3.956   1.810   9.313  2.6902 -2.5956 -2.1913
   49CHL1   C10 6071   4.015   1.996   9.425 -0.3588  0.6927  0.3742
   49CHL1   C19 6072   4.023   2.149   9.393 -0.5536 -0.9282  0.5302
   49CHL1  H19A 6073   4.094   2.163   9.309 -2.6521 -0.1742 -1.1627
   49CHL1  H19B 6074   3.926   2.183   9.353  0.1601 -1.2247 -1.4751
   49CHL1  H19C 6075   4.058   2.203   9.484 -0.6891  1.1198 -0.5880
   49CHL1    C1 6076   3.906   1.967   9.524 -0.6325 -0.7576 -0.2650
   49CHL1   H1A 6077   3.809   1.994   9.479 -2.0423 -2.5669  1.6037
   49CHL1   H1B 6078   3.905   1.857   9.537  1.9584 -0.8596 -0.7090
   49CHL1    C2 6079   3.930   2.028   9.660 -0.3761  0.0398 -0.0780
   49CHL1   H2A 6080   3.854   2.004   9.737 -1.1713  0.8357 -0.6071
   49CHL1   H2B 6081   3.925   2.139   9.650  1.3534 -0.0016 -1.8388
   49CHL1   C20 6082   3.828   1.830   8.777  0.0265  0.2408  0.6286
   49CHL1   H20 6083   3.846   1.933   8.738  0.8742 -0.4369 -0.8257
   49CHL1   C21 6084   3.682   1.837   8.823 -0.2510 -0.3098 -0.3945
   49CHL1  H21A 6085   3.657   1.755   8.893  1.3699 -1.8292 -1.5336
   49CHL1  H21B 6086   3.605   1.829   8.743 -1.2171  0.2500  0.4739
   49CHL1  H21C 6087   3.652   1.929   8.877 -2.0090  0.2049 -2.1486
   49CHL1   C22 6088   3.837   1.726   8.654  0.2538 -0.1693  0.0498
   49CHL1  H22A 6089   3.937   1.713   8.609 -0.5332  1.6239 -2.3277
   49CHL1  H22B 6090   3.800   1.629   8.694 -0.2060 -0.6108 -1.4276
   49CHL1   C23 6091   3.744   1.762   8.543 -0.3268 -0.9932  0.1782
   49CHL1  H23A 6092   3.634   1.767   8.561 -0.0429  1.7915  1.3954
   49CHL1  H23B 6093   3.782   1.853   8.494 -1.0588  0.0560  1.5095
   49CHL1   C24 6094   3.760   1.662   8.434  0.3446  1.0611  0.4226
   49CHL1  H24A 6095   3.867   1.658   8.408  0.9067  2.9445  2.2730
   49CHL1  H24B 6096   3.727   1.564   8.475  0.7839 -0.0395 -1.7991
   49CHL1   C25 6097   3.674   1.699   8.306 -0.1584 -1.2730 -0.4438
   49CHL1   H25 6098   3.698   1.806   8.291 -2.1548 -0.1850  3.4243
   49CHL1   C26 6099   3.712   1.608   8.184  0.9403 -0.4097  0.0191
   49CHL1  H26A 6100   3.657   1.648   8.096  1.6705  1.4864  0.4062
   49CHL1  H26B 6101   3.822   1.616   8.167  0.8935  0.6840  0.1825
   49CHL1  H26C 6102   3.684   1.504   8.210 -0.2519 -0.0192  0.2995
   49CHL1   C27 6103   3.522   1.677   8.329 -0.3694  0.8359 -0.1309
   49CHL1  H27A 6104   3.502   1.572   8.360  0.8792  0.3288 -1.0270
   49CHL1  H27B 6105   3.483   1.735   8.416  1.7543  1.0473  0.7098
   49CHL1  H27C 6106   3.462   1.701   8.239  2.0586  0.7998 -1.7881
   50CHL1    C3 6107   1.479   3.465   9.838 -0.1006  0.1409  0.2794
   50CHL1    H3 6108   1.479   3.576   9.826  1.0370  0.0683 -0.4317
   50CHL1    O3 6109   1.527   3.444   9.966  0.5606 -0.1121  0.5098
   50CHL1   H3' 6110   1.621   3.457   9.952 -0.1135  0.5521 -3.8683
   50CHL1    C4 6111   1.330   3.413   9.835 -0.7891  0.2011  0.8488
   50CHL1   H4A 6112   1.327   3.304   9.858  0.6097 -0.3148 -1.2271
   50CHL1   H4B 6113   1.267   3.454   9.917 -1.8660  1.3230 -0.5183
   50CHL1    C5 6114   1.259   3.427   9.700  0.2731 -0.0980 -0.2392
   50CHL1    C6 6115   1.147   3.502   9.693 -0.4886 -0.1582 -0.2193
   50CHL1    H6 6116   1.110   3.553   9.783 -0.6582  1.3509 -1.1363
   50CHL1    C7 6117   1.077   3.514   9.560  0.1146 -0.5861 -0.0793
   50CHL1   H7A 6118   0.968   3.504   9.577 -0.1714  0.2097 -1.4140
   50CHL1   H7B 6119   1.092   3.618   9.524 -1.8756 -0.0870  0.4842
   50CHL1    C8 6120   1.125   3.418   9.451 -0.8059  0.1878 -0.6746
   50CHL1    H8 6121   1.093   3.315   9.476  1.4700  0.0106  1.6765
   50CHL1   C14 6122   1.059   3.450   9.321 -0.2193 -0.1265  0.3897
   50CHL1   H14 6123   1.078   3.558   9.303  0.6221 -0.1706  0.9907
   50CHL1   C15 6124   0.909   3.442   9.312  0.3974 -0.1383 -0.7292
   50CHL1  H15A 6125   0.857   3.355   9.360  0.2780  0.2365 -0.1708
   50CHL1  H15B 6126   0.872   3.526   9.374 -1.0868 -3.2213  2.7852
   50CHL1   C16 6127   0.876   3.442   9.157 -0.3117 -0.5468  0.4114
   50CHL1  H16A 6128   0.797   3.366   9.139 -0.5183  0.0133 -1.1118
   50CHL1  H16B 6129   0.840   3.545   9.136  0.6812  0.1016  1.7842
   50CHL1   C17 6130   1.015   3.414   9.092  0.2291 -0.1716 -0.9314
   50CHL1   H17 6131   1.064   3.513   9.078 -1.0669  1.2208  3.5647
   50CHL1   C13 6132   1.106   3.367   9.206 -0.4492  0.1351  0.3706
   50CHL1   C18 6133   1.087   3.218   9.214  0.3682  0.5456  0.4640
   50CHL1  H18A 6134   0.979   3.202   9.233  0.6126  0.2220  1.6634
   50CHL1  H18B 6135   1.131   3.170   9.124  0.4531 -0.7351  1.1722
   50CHL1  H18C 6136   1.137   3.171   9.301 -0.1967 -1.9304 -0.5026
   50CHL1   C12 6137   1.262   3.376   9.190 -0.4860  0.3492  0.3163
   50CHL1  H12A 6138   1.303   3.308   9.113 -0.8367  2.1761 -1.5173
   50CHL1  H12B 6139   1.295   3.478   9.161 -0.0941 -0.4616 -2.1533
   50CHL1   C11 6140   1.345   3.351   9.319 -0.0963 -0.1015 -0.0477
   50CHL1  H11A 6141   1.345   3.242   9.341 -1.1398 -0.3873 -1.3796
   50CHL1  H11B 6142   1.448   3.388   9.299 -0.2836  1.1080  1.1617
   50CHL1    C9 6143   1.281   3.423   9.446 -0.6416  0.4462  0.0030
   50CHL1    H9 6144   1.312   3.529   9.434  1.7084 -0.2908 -0.5827
   50CHL1   C10 6145   1.343   3.367   9.582  0.1173 -0.1519 -0.5215
   50CHL1   C19 6146   1.332   3.216   9.589 -0.2501 -0.2361 -0.1969
   50CHL1  H19A 6147   1.232   3.181   9.553 -0.6519 -0.0509  0.7095
   50CHL1  H19B 6148   1.409   3.178   9.519 -2.7468 -0.3653 -2.9872
   50CHL1  H19C 6149   1.356   3.178   9.690  2.1452 -1.2133 -1.1065
   50CHL1    C1 6150   1.492   3.415   9.592  0.0568  0.8286  0.3411
   50CHL1   H1A 6151   1.547   3.361   9.512  1.5056  0.2789  1.6802
   50CHL1   H1B 6152   1.493   3.524   9.571  0.0965  0.5457 -1.1784
   50CHL1    C2 6153   1.564   3.390   9.730  0.4521 -0.0090 -0.0307
   50CHL1   H2A 6154   1.665   3.432   9.713  0.3477  0.4471  0.4613
   50CHL1   H2B 6155   1.573   3.283   9.755  0.2243  0.1564  0.7811
   50CHL1   C20 6156   1.012   3.359   8.940  0.3090 -0.0639 -0.0517
   50CHL1   H20 6157   0.954   3.438   8.887 -0.3786 -0.6156 -0.1222
   50CHL1   C21 6158   0.933   3.235   8.903 -0.0295  0.4156  0.1274
   50CHL1  H21A 6159   0.848   3.216   8.972  0.1040 -0.9998 -0.0887
   50CHL1  H21B 6160   1.000   3.147   8.913 -3.0270 -1.8714  0.7777
   50CHL1  H21C 6161   0.896   3.248   8.799 -2.1072 -1.5530  0.5916
   50CHL1   C22 6162   1.153   3.350   8.890 -0.0955 -0.7174  0.4785
   50CHL1  H22A 6163   1.224   3.425   8.931  0.6857 -0.7170 -0.8216
   50CHL1  H22B 6164   1.204   3.257   8.924 -0.6088 -0.7337  1.2011
   50CHL1   C23 6165   1.177   3.370   8.739 -0.5997  0.0708  0.1528
   50CHL1  H23A 6166   1.122   3.291   8.684  1.9749 -1.4886 -0.2849
   50CHL1  H23B 6167   1.128   3.462   8.702  0.3460  0.3508 -0.4221
   50CHL1   C24 6168   1.327   3.373   8.715 -0.3413 -0.3437  0.4463
   50CHL1  H24A 6169   1.362   3.479   8.718  0.9628 -0.7855  1.0388
   50CHL1  H24B 6170   1.385   3.315   8.790 -1.6568 -2.2575 -0.0011
   50CHL1   C25 6171   1.367   3.296   8.581 -0.1282 -0.0335  0.1119
   50CHL1   H25 6172   1.299   3.326   8.498  0.0128 -2.0085 -0.7459
   50CHL1   C26 6173   1.510   3.329   8.550 -0.8143 -0.2434 -0.6362
   50CHL1  H26A 6174   1.525   3.428   8.501 -1.2523  0.1417  0.0045
   50CHL1  H26B 6175   1.572   3.327   8.642  0.9282 -0.7803 -1.7825
   50CHL1  H26C 6176   1.566   3.266   8.477 -0.2279  0.4540 -0.7935
   50CHL1   C27 6177   1.352   3.147   8.602 -0.1955  0.2718 -0.1727
   50CHL1  H27A 6178   1.385   3.090   8.513 -1.0665  1.5983 -1.3796
   50CHL1  H27B 6179   1.412   3.104   8.685  0.7123 -2.3425 -2.1441
   50CHL1  H27C 6180   1.242   3.129   8.606  0.0948 -1.6267 -0.7065
   51CHL1    C3 6181   2.227   5.530   9.711 -0.4252 -0.0207  0.0689
   51CHL1    H3 6182   2.238   5.641   9.705 -1.0984  0.1347  1.7159
   51CHL1    O3 6183   2.233   5.497   9.850 -0.4625 -1.0687 -0.0983
   51CHL1   H3' 6184   2.315   5.539   9.877 -1.2476  0.2713  0.2930
   51CHL1    C4 6185   2.086   5.496   9.655 -0.0753  0.4758 -0.3328
   51CHL1   H4A 6186   2.064   5.388   9.659  2.2502 -0.0461 -0.9142
   51CHL1   H4B 6187   2.004   5.538   9.717 -0.3959 -1.3127  0.4820
   51CHL1    C5 6188   2.069   5.530   9.510 -0.0013 -0.0168  0.0285
   51CHL1    C6 6189   1.970   5.610   9.473 -0.6368 -0.1463  0.5535
   51CHL1    H6 6190   1.906   5.650   9.554  0.3155  2.9626 -0.1655
   51CHL1    C7 6191   1.949   5.663   9.333 -0.5933 -0.3903 -0.0916
   51CHL1   H7A 6192   1.840   5.652   9.319 -0.2398  0.8740 -4.9424
   51CHL1   H7B 6193   1.974   5.771   9.337  0.8666 -0.6392 -1.7458
   51CHL1    C8 6194   2.031   5.577   9.229 -0.3923  0.4562 -0.1161
   51CHL1    H8 6195   1.971   5.483   9.226 -0.7411  0.6781 -0.2069
   51CHL1   C14 6196   2.032   5.644   9.091  0.1399  1.3049 -0.2962
   51CHL1   H14 6197   2.082   5.741   9.110  2.1018  0.2978 -0.1457
   51CHL1   C15 6198   1.904   5.689   9.030 -0.2129  1.3249  0.2502
   51CHL1  H15A 6199   1.815   5.625   9.048  0.4965  0.2902  0.1143
   51CHL1  H15B 6200   1.880   5.790   9.071  0.4452  2.4301 -2.0112
   51CHL1   C16 6201   1.939   5.706   8.883 -0.1744  0.5736 -0.2775
   51CHL1  H16A 6202   1.881   5.635   8.821 -1.0424  2.4514 -1.6468
   51CHL1  H16B 6203   1.920   5.810   8.848 -1.6617 -0.2187 -1.8378
   51CHL1   C17 6204   2.090   5.683   8.865 -0.6018 -0.3977  0.9654
   51CHL1   H17 6205   2.146   5.776   8.887 -1.0446  0.0273  0.3081
   51CHL1   C13 6206   2.119   5.582   8.978 -0.5352 -0.7110  0.0057
   51CHL1   C18 6207   2.072   5.439   8.951 -0.2861  0.6108  0.7496
   51CHL1  H18A 6208   2.061   5.376   9.042 -0.1617 -0.9447 -0.2999
   51CHL1  H18B 6209   1.982   5.433   8.886  0.6044 -0.6651 -0.3779
   51CHL1  H18C 6210   2.140   5.393   8.877 -1.6024  2.9037 -1.9823
   51CHL1   C12 6211   2.260   5.587   9.038 -0.4493 -0.0512 -1.7531
   51CHL1  H12A 6212   2.346   5.558   8.974 -0.8306  1.3449 -2.9320
   51CHL1  H12B 6213   2.276   5.693   9.070 -2.5918 -0.2148  0.0004
   51CHL1   C11 6214   2.272   5.502   9.168 -0.3324 -0.2936  0.5476
   51CHL1  H11A 6215   2.246   5.397   9.142 -1.0401 -0.6656  2.6610
   51CHL1  H11B 6216   2.377   5.489   9.204  0.2339 -1.1219 -1.3608
   51CHL1    C9 6217   2.171   5.552   9.281 -0.6518 -0.0408 -0.1546
   51CHL1    H9 6218   2.222   5.648   9.305 -1.7143  0.5496 -0.2285
   51CHL1   C10 6219   2.172   5.468   9.411 -0.2153 -0.3011  0.1480
   51CHL1   C19 6220   2.146   5.321   9.385  0.0496 -0.2488  0.4766
   51CHL1  H19A 6221   2.139   5.265   9.481 -0.4049  0.8446  1.0999
   51CHL1  H19B 6222   2.047   5.304   9.336 -1.0636  0.1175  2.5218
   51CHL1  H19C 6223   2.228   5.278   9.324  1.7377  0.1695  2.3890
   51CHL1    C1 6224   2.320   5.491   9.471 -0.1538  0.0753 -0.5097
   51CHL1   H1A 6225   2.386   5.424   9.412 -1.5087 -1.9090  0.1614
   51CHL1   H1B 6226   2.351   5.597   9.464  2.8353 -0.7592 -0.3330
   51CHL1    C2 6227   2.338   5.468   9.624 -0.2332  0.4337 -0.1253
   51CHL1   H2A 6228   2.433   5.512   9.661  0.2617 -0.2605 -0.5645
   51CHL1   H2B 6229   2.339   5.357   9.635 -0.8337  0.5062  0.7186
   51CHL1   C20 6230   2.127   5.652   8.724 -0.1132  0.3931 -0.3180
   51CHL1   H20 6231   2.074   5.560   8.690  0.5844 -0.0907 -0.0992
   51CHL1   C21 6232   2.278   5.636   8.715  0.1877 -0.2269 -0.3166
   51CHL1  H21A 6233   2.344   5.719   8.749  0.7231 -0.6802 -0.2487
   51CHL1  H21B 6234   2.311   5.621   8.610 -1.6754  1.7580 -1.2226
   51CHL1  H21C 6235   2.311   5.543   8.767 -2.5000 -0.0854  1.7993
   51CHL1   C22 6236   2.080   5.763   8.622 -0.2131 -0.3026  0.5552
   51CHL1  H22A 6237   2.093   5.859   8.676  0.0552  1.6698 -2.8828
   51CHL1  H22B 6238   2.160   5.767   8.546  1.3019 -0.5617  2.1144
   51CHL1   C23 6239   1.934   5.748   8.566  0.5309  0.5136 -0.1484
   51CHL1  H23A 6240   1.934   5.640   8.539  0.8006  0.1196  1.3799
   51CHL1  H23B 6241   1.859   5.782   8.641 -0.8941  0.7392 -1.6436
   51CHL1   C24 6242   1.934   5.839   8.441  0.7396  0.0599  0.9480
   51CHL1  H24A 6243   1.956   5.945   8.466 -0.2189  0.1731  1.3381
   51CHL1  H24B 6244   2.016   5.803   8.375 -0.1218  0.7405 -0.5011
   51CHL1   C25 6245   1.793   5.828   8.365  0.7831 -0.2718 -0.1894
   51CHL1   H25 6246   1.799   5.885   8.270  0.9177  1.3298  0.7528
   51CHL1   C26 6247   1.755   5.682   8.329 -0.4208 -0.5431 -0.1941
   51CHL1  H26A 6248   1.654   5.675   8.284 -0.8372  0.0645  0.6480
   51CHL1  H26B 6249   1.840   5.651   8.265  0.8982 -0.3773  1.4352
   51CHL1  H26C 6250   1.759   5.622   8.422  0.2181  1.0214  0.8082
   51CHL1   C27 6251   1.689   5.891   8.456 -0.5919 -0.1670  0.2241
   51CHL1  H27A 6252   1.681   5.853   8.560 -2.5509  1.8406  0.8464
   51CHL1  H27B 6253   1.726   5.993   8.477  1.8241 -1.1576  0.9555
   51CHL1  H27C 6254   1.587   5.900   8.412 -1.4232 -0.8556  1.9566
   52CHL1    C3 6255   6.118   2.507   9.639 -0.3200  0.5897 -0.2758
   52CHL1    H3 6256   6.127   2.418   9.573  0.6085  0.1625  0.4212
   52CHL1    O3 6257   6.165   2.485   9.775 -0.1205  0.6916  0.3630
   52CHL1   H3' 6258   6.153   2.564   9.829 -1.1680  2.8228 -2.8211
   52CHL1    C4 6259   6.198   2.620   9.581 -0.7819 -0.1251 -0.2761
   52CHL1   H4A 6260   6.181   2.712   9.641 -1.0431  0.9647 -1.9850
   52CHL1   H4B 6261   6.302   2.581   9.577 -1.5529 -2.0349 -2.7849
   52CHL1    C5 6262   6.143   2.666   9.444 -0.2169 -0.1219  0.3333
   52CHL1    C6 6263   6.235   2.684   9.344  0.3400 -0.1444  0.2936
   52CHL1    H6 6264   6.343   2.675   9.360  0.7960  1.7236 -1.5426
   52CHL1    C7 6265   6.196   2.713   9.197 -0.0693  0.1292 -0.1727
   52CHL1   H7A 6266   6.256   2.788   9.143 -1.2226  2.6381  1.9466
   52CHL1   H7B 6267   6.201   2.620   9.136 -0.7925  2.1045 -3.3301
   52CHL1    C8 6268   6.046   2.759   9.195 -0.5609  0.4072  0.8442
   52CHL1    H8 6269   6.043   2.867   9.222  1.3434  1.0444 -1.3624
   52CHL1   C14 6270   5.998   2.747   9.050  0.2123 -0.5346  0.4134
   52CHL1   H14 6271   5.987   2.637   9.038  0.7965 -0.5385 -0.1723
   52CHL1   C15 6272   6.092   2.801   8.936  0.1719  0.0148 -0.3570
   52CHL1  H15A 6273   6.144   2.893   8.970  0.7218 -1.0196  1.7094
   52CHL1  H15B 6274   6.167   2.720   8.926  0.4453  0.1537  0.5621
   52CHL1   C16 6275   6.008   2.807   8.809 -0.0145 -0.5712  0.3468
   52CHL1  H16A 6276   6.007   2.911   8.771  0.9294 -0.2744  1.1357
   52CHL1  H16B 6277   6.039   2.746   8.722 -0.8261  0.3238 -0.5747
   52CHL1   C17 6278   5.862   2.777   8.860  0.4893  1.0599  0.0340
   52CHL1   H17 6279   5.856   2.666   8.849 -0.0613  0.8347  2.4192
   52CHL1   C13 6280   5.864   2.799   9.016 -0.3946  0.3740  0.0351
   52CHL1   C18 6281   5.860   2.949   9.050  0.5748  0.4801 -0.5670
   52CHL1  H18A 6282   5.925   3.002   8.976  1.1357  0.5209 -0.0483
   52CHL1  H18B 6283   5.756   2.983   9.032  0.3052  0.0487  0.1806
   52CHL1  H18C 6284   5.877   2.986   9.153 -0.3786  0.8636 -0.5390
   52CHL1   C12 6285   5.767   2.728   9.104  0.3152  0.0961  0.2815
   52CHL1  H12A 6286   5.665   2.771   9.090  1.1047  2.0988  0.4807
   52CHL1  H12B 6287   5.761   2.619   9.089 -0.2755  0.3051 -1.0923
   52CHL1   C11 6288   5.807   2.739   9.249  0.7473 -0.2034 -0.0305
   52CHL1  H11A 6289   5.784   2.845   9.273  1.8089  0.0363 -0.0324
   52CHL1  H11B 6290   5.738   2.672   9.305  0.7807 -2.3073 -2.3965
   52CHL1    C9 6291   5.955   2.680   9.280  0.0208 -0.1244  1.0871
   52CHL1    H9 6292   5.956   2.572   9.254  0.5547  0.2862 -0.6280
   52CHL1   C10 6293   5.991   2.686   9.431 -0.1911 -0.6463  0.0703
   52CHL1   C19 6294   5.938   2.817   9.495 -0.0226  0.5453 -0.4156
   52CHL1  H19A 6295   5.827   2.819   9.498 -0.1541  2.1517 -3.8892
   52CHL1  H19B 6296   5.975   2.826   9.599 -0.6551 -0.9155 -0.0487
   52CHL1  H19C 6297   5.968   2.913   9.447  0.3928 -0.0166 -1.2949
   52CHL1    C1 6298   5.920   2.567   9.501  0.4503  0.2092  0.4529
   52CHL1   H1A 6299   5.811   2.590   9.498  0.4008 -0.1341 -0.6132
   52CHL1   H1B 6300   5.938   2.471   9.447  0.7870 -0.2239  1.3085
   52CHL1    C2 6301   5.967   2.537   9.648 -0.5502 -0.3608 -0.7023
   52CHL1   H2A 6302   5.910   2.448   9.682 -1.6077 -0.2062 -2.0329
   52CHL1   H2B 6303   5.943   2.623   9.714 -0.3131 -2.0762  1.7056
   52CHL1   C20 6304   5.761   2.844   8.767  0.1200 -0.2374 -0.8862
   52CHL1   H20 6305   5.787   2.952   8.765 -0.5455 -0.0673 -0.5477
   52CHL1   C21 6306   5.614   2.832   8.824  0.3293  0.1474 -0.0132
   52CHL1  H21A 6307   5.544   2.889   8.759 -1.4141 -0.1626  1.5638
   52CHL1  H21B 6308   5.608   2.869   8.929  0.5327 -0.4572  0.2103
   52CHL1  H21C 6309   5.571   2.730   8.816  1.3516 -0.2046 -1.0140
   52CHL1   C22 6310   5.753   2.799   8.619 -0.5259  0.5226 -0.4656
   52CHL1  H22A 6311   5.850   2.756   8.584  0.0785 -0.5703  2.4084
   52CHL1  H22B 6312   5.693   2.706   8.608 -1.1684  0.8434  0.2761
   52CHL1   C23 6313   5.704   2.897   8.506 -0.1128  0.1855  0.3750
   52CHL1  H23A 6314   5.593   2.905   8.518 -0.0455 -0.2018  1.3240
   52CHL1  H23B 6315   5.761   2.989   8.530 -1.0937  1.0754 -0.6374
   52CHL1   C24 6316   5.739   2.842   8.366 -0.1643 -0.2029 -1.0503
   52CHL1  H24A 6317   5.849   2.836   8.356  0.1699  0.1963  1.7797
   52CHL1  H24B 6318   5.698   2.740   8.348 -2.2327 -0.1904  2.9832
   52CHL1   C25 6319   5.668   2.916   8.250  0.2649  0.4159  0.6240
   52CHL1   H25 6320   5.697   3.023   8.265 -0.6022  0.7313  0.0876
   52CHL1   C26 6321   5.737   2.870   8.127 -1.0044  0.5048  0.4591
   52CHL1  H26A 6322   5.848   2.882   8.132 -0.9153  0.5399 -1.1704
   52CHL1  H26B 6323   5.709   2.766   8.101  2.1509 -1.0543  2.9019
   52CHL1  H26C 6324   5.694   2.937   8.050 -1.3724  0.3718  0.5539
   52CHL1   C27 6325   5.511   2.916   8.244 -0.1067  1.2668  0.2581
   52CHL1  H27A 6326   5.467   2.814   8.241  0.7483  0.9223 -0.6941
   52CHL1  H27B 6327   5.458   2.957   8.333  0.5307  1.1332  0.6995
   52CHL1  H27C 6328   5.468   2.972   8.158 -0.8026 -0.1226 -0.3200
   53CHL1    C3 6329   6.713   3.436   9.751  0.7640  0.1328  0.1772
   53CHL1    H3 6330   6.765   3.350   9.703  0.9826  1.1015 -1.3652
   53CHL1    O3 6331   6.718   3.424   9.894 -0.6566  0.2161  0.1760
   53CHL1   H3' 6332   6.790   3.481   9.921 -2.7106  2.2596  1.6141
   53CHL1    C4 6333   6.771   3.563   9.706  0.2836 -0.8704 -0.3571
   53CHL1   H4A 6334   6.718   3.653   9.745  4.0686  0.5768  1.7429
   53CHL1   H4B 6335   6.873   3.580   9.748  0.5292  1.6222 -1.8274
   53CHL1    C5 6336   6.766   3.571   9.557  0.1110  0.2208  0.4622
   53CHL1    C6 6337   6.882   3.588   9.491  0.4214 -0.5318  0.2327
   53CHL1    H6 6338   6.978   3.597   9.544  1.1645 -2.3283 -0.7359
   53CHL1    C7 6339   6.889   3.608   9.344 -0.0917  0.2080  0.0027
   53CHL1   H7A 6340   6.957   3.695   9.330  1.1121 -0.6736  0.2489
   53CHL1   H7B 6341   6.924   3.512   9.300 -3.1847 -1.8942  1.9194
   53CHL1    C8 6342   6.754   3.638   9.285  0.4356 -0.4546  0.4412
   53CHL1    H8 6343   6.737   3.745   9.310  0.0643 -0.2695 -0.5807
   53CHL1   C14 6344   6.754   3.615   9.132  0.5778 -0.3064 -0.3137
   53CHL1   H14 6345   6.767   3.506   9.118  1.5144 -0.4007  1.1478
   53CHL1   C15 6346   6.866   3.673   9.042 -0.6570 -0.8175 -0.0596
   53CHL1  H15A 6347   6.885   3.782   9.054  1.1066 -1.2373  1.2516
   53CHL1  H15B 6348   6.957   3.618   9.075 -0.3732 -1.2092 -1.4543
   53CHL1   C16 6349   6.816   3.639   8.900  0.2398  0.0588  0.2717
   53CHL1  H16A 6350   6.828   3.734   8.845  1.7688  1.0640  2.2689
   53CHL1  H16B 6351   6.882   3.558   8.861  2.8037  1.9312  0.5555
   53CHL1   C17 6352   6.670   3.601   8.916  1.1292 -0.0769 -0.8341
   53CHL1   H17 6353   6.672   3.490   8.914  1.2651 -0.1610  2.2257
   53CHL1   C13 6354   6.622   3.644   9.063 -0.1851  0.8419 -0.7539
   53CHL1   C18 6355   6.589   3.796   9.065 -0.4164 -0.0782  0.1359
   53CHL1  H18A 6356   6.495   3.805   9.007  0.2703  0.0984 -0.9537
   53CHL1  H18B 6357   6.595   3.836   9.169 -0.4935 -0.2289  0.2000
   53CHL1  H18C 6358   6.670   3.843   9.006 -0.5777 -0.6903 -0.5898
   53CHL1   C12 6359   6.506   3.562   9.138  0.1889  0.5955  1.2825
   53CHL1  H12A 6360   6.408   3.582   9.089  0.1554 -0.8194  0.7598
   53CHL1  H12B 6361   6.532   3.455   9.122  0.0770  0.8352 -0.5857
   53CHL1   C11 6362   6.498   3.596   9.287  0.8209  1.0450  0.1029
   53CHL1  H11A 6363   6.461   3.700   9.293 -2.7226 -0.1351 -0.2614
   53CHL1  H11B 6364   6.418   3.531   9.328  1.0452 -1.2138 -2.8417
   53CHL1    C9 6365   6.637   3.562   9.348  0.4673 -0.3267 -0.4563
   53CHL1    H9 6366   6.656   3.455   9.327  0.2205 -0.6787  1.0765
   53CHL1   C10 6367   6.626   3.579   9.497  0.4645 -0.2321 -0.2799
   53CHL1   C19 6368   6.551   3.706   9.545  0.2135 -0.6907  0.3096
   53CHL1  H19A 6369   6.447   3.690   9.507  0.0978  0.9161 -0.0759
   53CHL1  H19B 6370   6.544   3.714   9.656  2.5300  1.7669  0.3188
   53CHL1  H19C 6371   6.587   3.805   9.510 -2.5558 -0.1604 -1.2316
   53CHL1    C1 6372   6.551   3.455   9.559  0.4236 -0.1646 -0.1255
   53CHL1   H1A 6373   6.446   3.459   9.521  0.8620 -0.9129 -1.4184
   53CHL1   H1B 6374   6.592   3.361   9.518  1.4171  0.8453 -1.5137
   53CHL1    C2 6375   6.568   3.433   9.715  0.1656 -0.4720 -0.1500
   53CHL1   H2A 6376   6.520   3.336   9.736  0.2991 -0.2577  1.1835
   53CHL1   H2B 6377   6.513   3.511   9.772  1.4741  1.2941 -1.2501
   53CHL1   C20 6378   6.587   3.636   8.790  0.5981 -0.3603  0.4537
   53CHL1   H20 6379   6.646   3.593   8.707  2.0569  0.4555  1.0450
   53CHL1   C21 6380   6.581   3.785   8.748 -0.2387  0.5388  0.6819
   53CHL1  H21A 6381   6.680   3.834   8.742  0.1013 -0.4231 -3.1709
   53CHL1  H21B 6382   6.514   3.848   8.810 -0.4581  2.2042 -1.2014
   53CHL1  H21C 6383   6.536   3.798   8.647  1.0556  1.0866  0.1534
   53CHL1   C22 6384   6.436   3.578   8.789 -0.2371  0.4717  0.0987
   53CHL1  H22A 6385   6.434   3.481   8.843 -0.7988 -0.5267 -1.6739
   53CHL1  H22B 6386   6.377   3.646   8.854 -0.9932  0.1692 -0.2610
   53CHL1   C23 6387   6.378   3.562   8.649  0.0474  0.4903 -0.7946
   53CHL1  H23A 6388   6.273   3.533   8.668 -0.0329 -0.8218 -3.0550
   53CHL1  H23B 6389   6.380   3.659   8.596  4.7564 -0.1015 -1.9278
   53CHL1   C24 6390   6.441   3.442   8.574 -0.2979 -0.0238  0.1066
   53CHL1  H24A 6391   6.548   3.452   8.549 -0.0786 -0.0761  0.9878
   53CHL1  H24B 6392   6.436   3.358   8.648 -0.1504  0.4903  0.7035
   53CHL1   C25 6393   6.355   3.401   8.455  0.4043  0.0557 -0.7365
   53CHL1   H25 6394   6.259   3.357   8.490 -0.2286  0.7824 -1.5486
   53CHL1   C26 6395   6.318   3.524   8.372 -0.0267  0.1965  0.4049
   53CHL1  H26A 6396   6.399   3.597   8.348  0.6030  0.0138  1.9466
   53CHL1  H26B 6397   6.267   3.491   8.279  2.5501 -0.5568 -0.7880
   53CHL1  H26C 6398   6.242   3.583   8.428 -1.1284 -0.2729 -0.5888
   53CHL1   C27 6399   6.426   3.300   8.367  0.5805  0.0997 -0.6608
   53CHL1  H27A 6400   6.450   3.208   8.424  3.4550 -0.3403 -2.4636
   53CHL1  H27B 6401   6.367   3.273   8.276 -0.8760  2.6730 -0.5400
   53CHL1  H27C 6402   6.525   3.345   8.342 -0.0934  2.2996  0.4547
   54CHL1    C3 6403   6.866   3.981   9.599 -0.5905  0.1199 -0.1028
   54CHL1    H3 6404   6.865   3.878   9.556 -1.8008 -0.2486  0.7990
   54CHL1    O3 6405   6.874   3.951   9.738  0.3884 -0.1566  0.2247
   54CHL1   H3' 6406   6.935   3.878   9.752 -0.8404 -0.9870  1.4019
   54CHL1    C4 6407   6.996   4.051   9.557  0.3424  0.0130 -0.2142
   54CHL1   H4A 6408   7.000   4.152   9.603  1.4117 -0.5440  0.9502
   54CHL1   H4B 6409   7.086   3.992   9.585  0.3658  0.1781  0.0603
   54CHL1    C5 6410   6.987   4.070   9.403  0.3106  0.7430 -0.2337
   54CHL1    C6 6411   7.070   4.016   9.314 -0.4470  0.6267  0.4872
   54CHL1    H6 6412   7.147   3.941   9.341  0.1553  0.9579 -0.3030
   54CHL1    C7 6413   7.065   4.049   9.172 -0.8977 -0.2946  0.0277
   54CHL1   H7A 6414   7.168   4.085   9.148 -1.3289  0.3847 -0.8064
   54CHL1   H7B 6415   7.037   3.960   9.111  0.1269  1.4039 -3.0361
   54CHL1    C8 6416   6.968   4.158   9.124 -0.1789 -0.2503 -0.1437
   54CHL1    H8 6417   7.009   4.255   9.158  0.7948 -1.3619  1.9648
   54CHL1   C14 6418   6.949   4.146   8.976 -0.2617 -0.3172 -0.7470
   54CHL1   H14 6419   6.916   4.041   8.958 -1.2476 -0.0299 -0.6629
   54CHL1   C15 6420   7.074   4.155   8.882 -0.1637 -0.1931  0.1832
   54CHL1  H15A 6421   7.133   4.244   8.912 -0.9281 -0.1373  1.5498
   54CHL1  H15B 6422   7.136   4.063   8.876  3.5992  2.1751  0.9888
   54CHL1   C16 6423   7.006   4.194   8.744 -0.8390  0.4050 -0.2286
   54CHL1  H16A 6424   7.047   4.288   8.701  1.3752 -1.2942 -1.9516
   54CHL1  H16B 6425   7.016   4.114   8.667  1.8636  0.2844  0.1830
   54CHL1   C17 6426   6.852   4.216   8.767 -0.2573  0.1433  0.0123
   54CHL1   H17 6427   6.809   4.115   8.747  1.6467 -0.7909  0.4542
   54CHL1   C13 6428   6.842   4.241   8.920 -0.0631 -0.2552  0.0264
   54CHL1   C18 6429   6.875   4.389   8.943 -0.6708  0.3017  0.9039
   54CHL1  H18A 6430   6.894   4.414   9.050 -1.8446 -0.5535  1.3315
   54CHL1  H18B 6431   6.958   4.421   8.876 -0.3334  0.8889  1.5907
   54CHL1  H18C 6432   6.786   4.451   8.918 -0.6873 -0.0984 -0.0426
   54CHL1   C12 6433   6.703   4.212   8.996  0.2358 -0.3100 -1.0863
   54CHL1  H12A 6434   6.623   4.281   8.962  1.1070  0.9579 -0.6182
   54CHL1  H12B 6435   6.663   4.115   8.960 -1.3153  0.3052 -1.0621
   54CHL1   C11 6436   6.717   4.217   9.146  0.1163 -0.1410 -0.4530
   54CHL1  H11A 6437   6.711   4.322   9.184 -2.1234 -0.6783  0.7583
   54CHL1  H11B 6438   6.628   4.171   9.194  0.7387 -0.9381 -0.0572
   54CHL1    C9 6439   6.840   4.140   9.204 -0.0750  0.2598 -0.7625
   54CHL1    H9 6440   6.815   4.033   9.189 -2.3993  0.0942  3.6143
   54CHL1   C10 6441   6.862   4.148   9.357 -0.2697 -1.0690  0.0713
   54CHL1   C19 6442   6.877   4.300   9.399 -0.1732 -0.1870 -0.5466
   54CHL1  H19A 6443   6.876   4.317   9.509 -0.0811 -3.0891 -0.0810
   54CHL1  H19B 6444   6.973   4.342   9.361  1.7496 -0.2009  3.9278
   54CHL1  H19C 6445   6.786   4.352   9.361 -0.8746 -1.4125 -0.5628
   54CHL1    C1 6446   6.739   4.083   9.418 -0.3233  0.5608 -0.5430
   54CHL1   H1A 6447   6.656   4.154   9.396 -0.9655 -0.3401 -1.0873
   54CHL1   H1B 6448   6.720   3.977   9.388  0.2742  0.3188 -0.0632
   54CHL1    C2 6449   6.747   4.071   9.572  0.5406 -0.6490 -0.3694
   54CHL1   H2A 6450   6.657   4.026   9.619  0.5307 -1.4351 -1.1224
   54CHL1   H2B 6451   6.763   4.164   9.630 -0.3851 -2.1680  2.4058
   54CHL1   C20 6452   6.792   4.309   8.666  0.6915 -0.1923  0.0097
   54CHL1   H20 6453   6.839   4.410   8.667  0.5311 -0.0675 -1.9116
   54CHL1   C21 6454   6.638   4.322   8.692  0.0350 -0.0245  0.4951
   54CHL1  H21A 6455   6.589   4.224   8.672 -0.9649  0.3114  1.2944
   54CHL1  H21B 6456   6.598   4.395   8.618  0.3312  0.8866  1.2281
   54CHL1  H21C 6457   6.608   4.373   8.786 -1.4143 -1.0208  0.5829
   54CHL1   C22 6458   6.809   4.266   8.519 -0.0654  0.2205 -0.0397
   54CHL1  H22A 6459   6.913   4.245   8.486 -0.6490 -1.5319 -0.8161
   54CHL1  H22B 6460   6.740   4.180   8.503  2.4410 -1.2839 -3.3936
   54CHL1   C23 6461   6.753   4.372   8.412 -0.4034 -0.1703 -0.3996
   54CHL1  H23A 6462   6.644   4.383   8.431  0.2583  1.0006  3.2799
   54CHL1  H23B 6463   6.806   4.466   8.440 -0.4871 -0.5374  1.0314
   54CHL1   C24 6464   6.768   4.322   8.271  0.3825 -0.0512  0.1018
   54CHL1  H24A 6465   6.875   4.301   8.250  0.5846 -0.1734  1.1809
   54CHL1  H24B 6466   6.727   4.219   8.263  1.7781 -0.7349  1.4621
   54CHL1   C25 6467   6.708   4.400   8.155 -0.6020 -0.6575  0.2441
   54CHL1   H25 6468   6.599   4.418   8.158 -0.1804  2.7766 -2.1337
   54CHL1   C26 6469   6.762   4.541   8.148  0.2383  0.6601  0.2378
   54CHL1  H26A 6470   6.728   4.595   8.057 -1.3728  1.5178  1.3326
   54CHL1  H26B 6471   6.745   4.591   8.246 -0.0329  2.8628 -0.8983
   54CHL1  H26C 6472   6.873   4.531   8.144  0.3175  1.0512  1.1683
   54CHL1   C27 6473   6.740   4.335   8.018 -0.3725 -0.1299 -0.1887
   54CHL1  H27A 6474   6.683   4.382   7.934  0.3951 -0.7595 -1.0765
   54CHL1  H27B 6475   6.846   4.352   7.990 -0.0621  0.2207  1.1922
   54CHL1  H27C 6476   6.719   4.227   8.006 -0.1686 -0.1903  0.0091
   55CHL1    C3 6477   0.988   2.712   9.773 -0.1805  0.1624 -0.5923
   55CHL1    H3 6478   1.099   2.720   9.773  0.2108 -4.0969 -1.0364
   55CHL1    O3 6479   0.937   2.729   9.902 -0.3189  0.2243  0.1637
   55CHL1   H3' 6480   0.959   2.820   9.922 -0.7114  0.5934 -1.0115
   55CHL1    C4 6481   0.926   2.809   9.677 -0.5174  0.0649 -0.5099
   55CHL1   H4A 6482   0.816   2.805   9.698 -0.4437 -0.0885 -0.1446
   55CHL1   H4B 6483   0.969   2.907   9.704  0.0101  0.1342 -1.5843
   55CHL1    C5 6484   0.939   2.790   9.536  0.1101  0.2789  0.3053
   55CHL1    C6 6485   0.983   2.880   9.450 -0.4136  0.5839  0.4890
   55CHL1    H6 6486   1.027   2.974   9.486  3.7545  0.3135 -3.3863
   55CHL1    C7 6487   0.988   2.855   9.302 -0.2970 -0.2050 -0.4754
   55CHL1   H7A 6488   0.950   2.945   9.251 -2.9188 -1.1903 -0.2985
   55CHL1   H7B 6489   1.095   2.845   9.272  0.0902  0.8357  0.5428
   55CHL1    C8 6490   0.909   2.737   9.244  0.0551  0.4407 -0.1153
   55CHL1    H8 6491   0.799   2.752   9.248 -0.0941 -0.8327  1.1719
   55CHL1   C14 6492   0.955   2.694   9.107 -1.0102 -0.5922  0.3715
   55CHL1   H14 6493   1.056   2.652   9.125 -0.5644 -0.0222 -0.7356
   55CHL1   C15 6494   0.964   2.809   9.006  0.8200 -0.2076 -0.1917
   55CHL1  H15A 6495   0.882   2.883   8.992  1.0813  0.1068 -0.0558
   55CHL1  H15B 6496   1.059   2.865   9.019  0.6730 -0.1959  0.8331
   55CHL1   C16 6497   0.975   2.729   8.874  0.1583 -0.3651  0.5079
   55CHL1  H16A 6498   0.904   2.751   8.791  0.3944 -1.0878  0.1179
   55CHL1  H16B 6499   1.073   2.736   8.823  0.5570 -0.5656  1.2398
   55CHL1   C17 6500   0.956   2.580   8.911  0.9848 -0.4154 -0.3785
   55CHL1   H17 6501   1.060   2.545   8.927  0.8060 -1.4649 -1.4375
   55CHL1   C13 6502   0.873   2.577   9.045  0.6484  0.2135 -0.8793
   55CHL1   C18 6503   0.722   2.603   9.022  0.4096 -0.2996  0.4272
   55CHL1  H18A 6504   0.673   2.661   9.103 -0.8287 -3.5371  2.1129
   55CHL1  H18B 6505   0.720   2.654   8.923 -0.4010  1.2393  1.2174
   55CHL1  H18C 6506   0.674   2.503   9.020 -0.1995 -0.0107  0.3651
   55CHL1   C12 6507   0.888   2.454   9.139 -0.6336  0.2613 -0.6102
   55CHL1  H12A 6508   0.825   2.368   9.105  0.8080 -0.8679 -0.4766
   55CHL1  H12B 6509   0.992   2.418   9.126 -0.3221  0.5827  0.9442
   55CHL1   C11 6510   0.853   2.493   9.283  0.2007  0.5292 -0.1197
   55CHL1  H11A 6511   0.745   2.520   9.280  0.0184 -0.1639  0.0806
   55CHL1  H11B 6512   0.871   2.399   9.338 -0.7027 -0.3098 -1.2223
   55CHL1    C9 6513   0.930   2.614   9.337 -0.7019 -0.5083  0.2093
   55CHL1    H9 6514   1.036   2.584   9.326 -0.5157 -0.1190  0.9209
   55CHL1   C10 6515   0.898   2.652   9.490  0.6312  0.8103  0.1357
   55CHL1   C19 6516   0.739   2.639   9.508 -0.3043  0.2859 -0.4971
   55CHL1  H19A 6517   0.710   2.649   9.615 -2.8332  0.0713 -1.1451
   55CHL1  H19B 6518   0.690   2.718   9.447  1.3893  1.0035 -0.9677
   55CHL1  H19C 6519   0.705   2.535   9.489  0.2206 -0.4244  2.2103
   55CHL1    C1 6520   0.970   2.539   9.576 -1.1115 -0.5966 -0.6210
   55CHL1   H1A 6521   0.917   2.443   9.556  0.9056 -1.8298 -0.1037
   55CHL1   H1B 6522   1.075   2.526   9.542 -0.8605 -0.0252 -0.0594
   55CHL1    C2 6523   0.962   2.564   9.732 -0.1308 -0.2125  0.2646
   55CHL1   H2A 6524   1.044   2.506   9.780 -0.9158  1.0290  3.1992
   55CHL1   H2B 6525   0.866   2.528   9.774 -1.1126  2.0342 -0.0408
   55CHL1   C20 6526   0.897   2.500   8.791 -0.3985 -0.0480  0.0056
   55CHL1   H20 6527   0.791   2.535   8.789 -0.5009 -0.3882 -1.1875
   55CHL1   C21 6528   0.927   2.355   8.825 -0.4962 -0.3034 -0.2525
   55CHL1  H21A 6529   1.033   2.344   8.856 -0.7353 -1.6471  0.0947
   55CHL1  H21B 6530   0.916   2.279   8.746 -1.3130 -2.1253  1.5825
   55CHL1  H21C 6531   0.867   2.328   8.915  0.6211 -0.7217  0.3737
   55CHL1   C22 6532   0.962   2.536   8.656 -1.2083 -0.1739  0.1987
   55CHL1  H22A 6533   0.987   2.644   8.645 -2.1639 -0.1371 -2.0224
   55CHL1  H22B 6534   1.055   2.476   8.650  0.7115  2.7376 -0.2190
   55CHL1   C23 6535   0.869   2.506   8.532  0.2638  0.2687  0.2578
   55CHL1  H23A 6536   0.825   2.405   8.546 -1.2397  0.9443  0.4870
   55CHL1  H23B 6537   0.790   2.584   8.523 -0.2898 -0.4726 -1.4947
   55CHL1   C24 6538   0.951   2.493   8.407  0.2808  0.1931  0.4175
   55CHL1  H24A 6539   1.031   2.567   8.391  1.0763 -0.6321  0.5485
   55CHL1  H24B 6540   1.020   2.409   8.430  0.5923  0.4495  0.4102
   55CHL1   C25 6541   0.886   2.477   8.272 -0.3831  0.6852 -0.0418
   55CHL1   H25 6542   0.809   2.398   8.279  2.0003 -1.6253  0.8117
   55CHL1   C26 6543   0.821   2.618   8.227 -0.2886 -0.0581  0.8111
   55CHL1  H26A 6544   0.762   2.654   8.314 -1.1858  1.4902 -0.4120
   55CHL1  H26B 6545   0.901   2.693   8.212 -0.3241  0.4405  2.9780
   55CHL1  H26C 6546   0.747   2.616   8.143  0.2098 -0.0780  0.3679
   55CHL1   C27 6547   0.979   2.416   8.164  0.5305 -0.0507 -0.0569
   55CHL1  H27A 6548   1.011   2.314   8.195  2.1816 -0.5993 -3.2820
   55CHL1  H27B 6549   0.933   2.405   8.063 -0.6264 -0.5059  0.5159
   55CHL1  H27C 6550   1.067   2.483   8.171 -0.7118  1.7945 -1.5782
   56CHL1    C3 6551   4.521   1.443   9.700  0.7967 -0.7543  0.0238
   56CHL1    H3 6552   4.556   1.542   9.665  0.1523 -0.4135  0.3215
   56CHL1    O3 6553   4.502   1.438   9.837  0.1818 -0.0120 -0.2696
   56CHL1   H3' 6554   4.584   1.469   9.877  0.9370 -1.4664 -0.6455
   56CHL1    C4 6555   4.387   1.411   9.637  0.0770  0.1188 -0.3373
   56CHL1   H4A 6556   4.350   1.314   9.677  0.7661  0.9410  2.4561
   56CHL1   H4B 6557   4.306   1.477   9.675  0.0628  1.2723 -2.3112
   56CHL1    C5 6558   4.405   1.397   9.488 -0.3552  0.2131  0.2823
   56CHL1    C6 6559   4.319   1.461   9.409  0.6384  0.8148  0.4052
   56CHL1    H6 6560   4.235   1.510   9.460  0.5655  0.3497  0.7368
   56CHL1    C7 6561   4.317   1.452   9.258  0.1867 -0.2628  0.2031
   56CHL1   H7A 6562   4.214   1.437   9.220 -0.3456  1.0188  1.0793
   56CHL1   H7B 6563   4.350   1.545   9.207  1.9412 -0.6288  0.6055
   56CHL1    C8 6564   4.406   1.335   9.209  0.6091 -0.6091 -0.7864
   56CHL1    H8 6565   4.346   1.242   9.220 -1.5714  0.7619 -0.6457
   56CHL1   C14 6566   4.440   1.349   9.064  0.8009  0.5779 -0.1829
   56CHL1   H14 6567   4.503   1.440   9.057  0.7124  0.7752  1.4276
   56CHL1   C15 6568   4.330   1.366   8.962  0.0920 -0.3661 -0.2958
   56CHL1  H15A 6569   4.255   1.285   8.973  2.6926 -2.5285  2.5591
   56CHL1  H15B 6570   4.275   1.460   8.980 -1.2885 -1.7529  3.2699
   56CHL1   C16 6571   4.397   1.350   8.824 -0.4654 -0.0673  0.3293
   56CHL1  H16A 6572   4.329   1.281   8.770 -2.6560  3.7883 -2.0696
   56CHL1  H16B 6573   4.411   1.447   8.772 -1.1963 -0.0336  0.1834
   56CHL1   C17 6574   4.537   1.278   8.848  0.0352  0.2934  0.3958
   56CHL1   H17 6575   4.613   1.357   8.835  1.3862 -1.0376  0.0932
   56CHL1   C13 6576   4.532   1.242   8.997  0.8345  0.5718 -0.1759
   56CHL1   C18 6577   4.466   1.101   9.008  0.1274 -1.1390 -0.1345
   56CHL1  H18A 6578   4.425   1.096   9.111 -0.0867  1.6210 -0.0309
   56CHL1  H18B 6579   4.385   1.084   8.933  2.1667 -1.8920 -2.2097
   56CHL1  H18C 6580   4.535   1.017   8.988  2.6898  1.2273 -1.6238
   56CHL1   C12 6581   4.666   1.236   9.070  0.7086 -0.3303 -0.4224
   56CHL1  H12A 6582   4.729   1.149   9.041 -0.8403 -1.6315  0.0394
   56CHL1  H12B 6583   4.727   1.326   9.049  2.7381 -1.1729  1.5825
   56CHL1   C11 6584   4.636   1.219   9.216 -0.2550  0.0096 -0.2115
   56CHL1  H11A 6585   4.601   1.117   9.243 -0.4162 -0.2978 -1.5847
   56CHL1  H11B 6586   4.731   1.216   9.274 -1.1017 -0.2558  1.1910
   56CHL1    C9 6587   4.538   1.322   9.284 -0.0965  0.7404  0.4093
   56CHL1    H9 6588   4.590   1.419   9.268 -0.1724  0.4566 -1.6886
   56CHL1   C10 6589   4.516   1.309   9.435  0.1644 -0.0476  0.3017
   56CHL1   C19 6590   4.474   1.161   9.471  0.2719  0.8613  0.4329
   56CHL1  H19A 6591   4.413   1.158   9.564  1.3147  0.3720  1.1000
   56CHL1  H19B 6592   4.395   1.139   9.396 -0.0239 -1.0393  1.2747
   56CHL1  H19C 6593   4.551   1.082   9.460 -1.4040 -0.4826 -2.4341
   56CHL1    C1 6594   4.645   1.348   9.506 -0.3183  0.8262  0.0952
   56CHL1   H1A 6595   4.726   1.276   9.483  0.5837  1.0448  2.4745
   56CHL1   H1B 6596   4.682   1.446   9.469  0.0491  0.1784 -1.3198
   56CHL1    C2 6597   4.626   1.336   9.657 -0.2776 -0.5600  1.0927
   56CHL1   H2A 6598   4.723   1.353   9.709  0.4816 -1.9840  0.1735
   56CHL1   H2B 6599   4.601   1.233   9.688 -1.2807  0.3644  3.4723
   56CHL1   C20 6600   4.567   1.171   8.739  0.0476 -0.7547  0.4741
   56CHL1   H20 6601   4.481   1.101   8.750  0.0263 -0.6026  1.3455
   56CHL1   C21 6602   4.685   1.081   8.773  0.1890 -0.5558 -0.7280
   56CHL1  H21A 6603   4.766   1.134   8.828 -0.8514 -0.0289  0.3269
   56CHL1  H21B 6604   4.720   1.020   8.687  0.4816 -0.8700 -0.3870
   56CHL1  H21C 6605   4.657   1.003   8.846 -0.9433  1.2992  0.8725
   56CHL1   C22 6606   4.567   1.238   8.600  0.3982  0.6379 -0.0197
   56CHL1  H22A 6607   4.493   1.320   8.594  0.0224  0.1902 -1.8370
   56CHL1  H22B 6608   4.667   1.281   8.581 -0.7459  1.7249 -4.0857
   56CHL1   C23 6609   4.547   1.128   8.491 -0.3353 -0.2874 -1.0947
   56CHL1  H23A 6610   4.633   1.057   8.498 -0.4114 -0.3267 -0.5563
   56CHL1  H23B 6611   4.445   1.086   8.504 -0.2472 -0.5500 -1.2404
   56CHL1   C24 6612   4.556   1.199   8.357 -0.1495  0.4281 -0.2959
   56CHL1  H24A 6613   4.486   1.283   8.339  1.3119  1.5295 -0.9497
   56CHL1  H24B 6614   4.656   1.248   8.354  0.4737 -0.9181 -2.7906
   56CHL1   C25 6615   4.544   1.106   8.232  0.0107 -0.0972 -0.1443
   56CHL1   H25 6616   4.625   1.032   8.245  1.0643  1.4207  2.0710
   56CHL1   C26 6617   4.403   1.051   8.214 -0.2163 -0.6166  0.5877
   56CHL1  H26A 6618   4.401   0.977   8.131  1.0214 -1.2219  1.0763
   56CHL1  H26B 6619   4.355   1.001   8.301  1.2210  0.1271  1.8370
   56CHL1  H26C 6620   4.326   1.128   8.196  0.1213 -0.7099 -1.3964
   56CHL1   C27 6621   4.586   1.184   8.104  0.3073 -0.3873  0.2582
   56CHL1  H27A 6622   4.542   1.141   8.012  0.0195 -0.5343  0.4624
   56CHL1  H27B 6623   4.527   1.278   8.108 -0.5051 -0.7370 -2.7137
   56CHL1  H27C 6624   4.697   1.190   8.101  0.3508 -1.5236 -0.7483
   57CHL1    C3 6625   0.758   4.233   9.744 -0.5809 -0.0567 -0.2822
   57CHL1    H3 6626   0.651   4.202   9.737 -0.9625  0.5548  2.0461
   57CHL1    O3 6627   0.772   4.264   9.886  0.1545  0.0865 -0.4809
   57CHL1   H3' 6628   0.859   4.303   9.888  0.1753  0.1427 -1.7255
   57CHL1    C4 6629   0.861   4.132   9.694 -0.5994 -0.7909 -0.4377
   57CHL1   H4A 6630   0.960   4.181   9.706 -0.3127 -0.6164 -3.1840
   57CHL1   H4B 6631   0.870   4.039   9.755 -0.0548 -0.7735 -0.4853
   57CHL1    C5 6632   0.843   4.094   9.546  0.4313  0.4790 -0.4434
   57CHL1    C6 6633   0.830   3.965   9.514 -0.5462 -0.2781  1.4368
   57CHL1    H6 6634   0.830   3.893   9.597 -2.7373 -1.1802  0.7003
   57CHL1    C7 6635   0.806   3.916   9.378 -0.3756 -0.2707 -0.0961
   57CHL1   H7A 6636   0.849   3.816   9.354 -0.6502 -0.6226  0.8654
   57CHL1   H7B 6637   0.696   3.908   9.366 -0.4856  0.5886  0.3631
   57CHL1    C8 6638   0.844   4.023   9.275  0.3949 -0.0238  0.3788
   57CHL1    H8 6639   0.954   4.032   9.259  0.2728 -1.4175 -1.4801
   57CHL1   C14 6640   0.789   3.984   9.134 -0.8320 -0.0452  0.9522
   57CHL1   H14 6641   0.679   3.977   9.144 -0.9595  0.2825 -0.2425
   57CHL1   C15 6642   0.837   3.847   9.081 -0.1597 -0.2925 -0.1737
   57CHL1  H15A 6643   0.943   3.832   9.110  0.3220  0.3300 -1.5729
   57CHL1  H15B 6644   0.785   3.762   9.129  0.8133  0.3953  2.1694
   57CHL1   C16 6645   0.826   3.858   8.935 -0.3428  0.5124 -0.2557
   57CHL1  H16A 6646   0.925   3.847   8.885  1.2970  0.0476  2.9673
   57CHL1  H16B 6647   0.769   3.774   8.889  1.5079 -0.2886 -1.1702
   57CHL1   C17 6648   0.782   4.000   8.895  0.2959  0.4044  0.1367
   57CHL1   H17 6649   0.672   4.008   8.900  0.2218 -0.1007 -0.6616
   57CHL1   C13 6650   0.826   4.085   9.021  0.7587  0.7679 -0.0285
   57CHL1   C18 6651   0.976   4.105   9.004  0.8722  0.1073 -0.9833
   57CHL1  H18A 6652   1.030   4.014   8.970  2.4551  0.0887  1.4667
   57CHL1  H18B 6653   0.991   4.183   8.927  1.9428  2.3335  1.4234
   57CHL1  H18C 6654   1.028   4.145   9.094 -3.2416  0.7169  1.2265
   57CHL1   C12 6655   0.760   4.220   9.055 -0.3196  0.4302  0.9793
   57CHL1  H12A 6656   0.802   4.293   8.983 -2.4549  0.8725  0.1222
   57CHL1  H12B 6657   0.650   4.204   9.042  0.0236 -0.6497 -0.8922
   57CHL1   C11 6658   0.795   4.274   9.194  0.2115  0.1142 -0.0095
   57CHL1  H11A 6659   0.904   4.297   9.194  0.3255 -0.2907 -2.4569
   57CHL1  H11B 6660   0.735   4.366   9.216 -0.0989  0.1159 -0.8594
   57CHL1    C9 6661   0.789   4.171   9.312  0.1809  0.6017 -0.3767
   57CHL1    H9 6662   0.681   4.159   9.334 -0.7210  0.6117 -4.3809
   57CHL1   C10 6663   0.842   4.219   9.455  0.6486  0.2859 -0.2279
   57CHL1   C19 6664   0.985   4.271   9.435  0.0265  0.2879 -0.9778
   57CHL1  H19A 6665   0.990   4.355   9.363 -0.4520  0.9009 -0.3015
   57CHL1  H19B 6666   1.023   4.313   9.531  1.7404 -1.4202 -0.8592
   57CHL1  H19C 6667   1.050   4.184   9.409 -1.4355 -0.5571 -1.8601
   57CHL1    C1 6668   0.757   4.334   9.515  0.1307  0.3289  0.3106
   57CHL1   H1A 6669   0.781   4.421   9.450  2.2426  0.9724  1.9057
   57CHL1   H1B 6670   0.650   4.312   9.493 -0.1651  2.4590 -0.5140
   57CHL1    C2 6671   0.777   4.363   9.659 -0.4871 -0.2542 -0.4756
   57CHL1   H2A 6672   0.704   4.441   9.689 -0.5136  1.3442 -4.4355
   57CHL1   H2B 6673   0.881   4.390   9.688 -1.1323 -1.1277  2.8524
   57CHL1   C20 6674   0.815   4.040   8.747 -0.1380  0.1992  0.0135
   57CHL1   H20 6675   0.924   4.061   8.738  0.0489 -0.5583  0.4701
   57CHL1   C21 6676   0.747   4.174   8.700 -0.6311 -0.0228 -0.7977
   57CHL1  H21A 6677   0.637   4.158   8.695 -0.5942 -0.3347 -0.6569
   57CHL1  H21B 6678   0.782   4.199   8.598  1.4584 -2.0736 -0.6130
   57CHL1  H21C 6679   0.777   4.261   8.761  1.6254  0.1174 -2.0652
   57CHL1   C22 6680   0.768   3.929   8.651 -0.0491  0.1289  0.3293
   57CHL1  H22A 6681   0.813   3.832   8.682 -0.8816 -0.5511 -0.5389
   57CHL1  H22B 6682   0.657   3.934   8.655 -0.1407 -1.2920 -0.0589
   57CHL1   C23 6683   0.813   3.955   8.504  0.4740  0.1218 -0.3664
   57CHL1  H23A 6684   0.749   4.030   8.453 -1.5693 -1.1844  0.2233
   57CHL1  H23B 6685   0.919   3.987   8.513  0.9083 -1.2069 -0.7252
   57CHL1   C24 6686   0.818   3.829   8.415  0.1661  0.5324 -0.1289
   57CHL1  H24A 6687   0.870   3.753   8.479  0.0663  0.6911  0.1412
   57CHL1  H24B 6688   0.713   3.792   8.404  0.3984 -0.3746  0.5728
   57CHL1   C25 6689   0.872   3.856   8.274  0.4718  0.3666 -0.6766
   57CHL1   H25 6690   0.839   3.961   8.262 -0.9462  0.0264  0.0917
   57CHL1   C26 6691   1.019   3.823   8.262 -0.3748  0.0721  0.3662
   57CHL1  H26A 6692   1.072   3.853   8.170 -0.2517 -0.4644  0.2602
   57CHL1  H26B 6693   1.075   3.881   8.338 -0.7993 -0.5763  1.1955
   57CHL1  H26C 6694   1.030   3.716   8.290 -2.7510 -0.1778  0.5196
   57CHL1   C27 6695   0.793   3.792   8.158  0.2428 -0.9411 -0.4847
   57CHL1  H27A 6696   0.839   3.824   8.063 -0.5336  2.5793  0.2721
   57CHL1  H27B 6697   0.798   3.681   8.156  0.6827 -0.9347  0.1155
   57CHL1  H27C 6698   0.688   3.828   8.159  0.2634 -0.8719  0.7001
   58CHL1    C3 6699   2.398   1.380   9.700  0.0875  1.0190  1.0162
   58CHL1    H3 6700   2.492   1.338   9.659 -1.1754  0.1779 -1.0824
   58CHL1    O3 6701   2.425   1.467   9.812 -0.3873 -0.3623  0.0338
   58CHL1   H3' 6702   2.475   1.536   9.768 -0.8748 -0.0567 -0.0485
   58CHL1    C4 6703   2.306   1.458   9.601 -0.1258  0.3604 -0.7248
   58CHL1   H4A 6704   2.213   1.487   9.655  0.4920  0.2685  0.4089
   58CHL1   H4B 6705   2.354   1.556   9.584 -0.3958  0.3182 -1.7556
   58CHL1    C5 6706   2.273   1.367   9.487  0.5288 -0.5523 -0.1783
   58CHL1    C6 6707   2.297   1.406   9.364 -0.3568  0.1880  0.6622
   58CHL1    H6 6708   2.323   1.511   9.342 -1.1783  0.1462 -0.5419
   58CHL1    C7 6709   2.258   1.335   9.243  0.1861  0.1503 -0.4248
   58CHL1   H7A 6710   2.216   1.401   9.163 -0.7641 -0.7883 -0.7225
   58CHL1   H7B 6711   2.346   1.288   9.194 -0.0651  1.5162 -2.2471
   58CHL1    C8 6712   2.160   1.221   9.267  0.3760  0.3322 -0.3995
   58CHL1    H8 6713   2.061   1.271   9.273  1.4634  2.5391 -0.4320
   58CHL1   C14 6714   2.150   1.127   9.145  0.1185 -0.0819  0.1839
   58CHL1   H14 6715   2.251   1.080   9.136  0.7879  0.9683  1.8533
   58CHL1   C15 6716   2.124   1.190   9.006 -0.3174  0.6013  0.0059
   58CHL1  H15A 6717   2.056   1.278   9.013 -0.6529  0.3005  0.6668
   58CHL1  H15B 6718   2.212   1.237   8.957  1.3348 -1.4635  0.9408
   58CHL1   C16 6719   2.060   1.077   8.921 -0.5528  0.5296  0.1672
   58CHL1  H16A 6720   1.954   1.093   8.890 -1.4958  0.0120  3.0302
   58CHL1  H16B 6721   2.122   1.059   8.830  2.0950  0.1317  1.9837
   58CHL1   C17 6722   2.043   0.951   9.019  0.4931 -0.1954 -0.4376
   58CHL1   H17 6723   2.130   0.883   9.012  1.5126  0.9047  1.3558
   58CHL1   C13 6724   2.048   1.010   9.161  0.8255  0.4590 -0.0634
   58CHL1   C18 6725   1.908   1.075   9.191  0.1705  0.1028 -0.8716
   58CHL1  H18A 6726   1.877   1.148   9.113 -0.8834  1.1806  0.5423
   58CHL1  H18B 6727   1.825   1.001   9.187 -1.6606  2.0930 -0.1743
   58CHL1  H18C 6728   1.912   1.120   9.293 -1.5960  1.8274 -1.5435
   58CHL1   C12 6729   2.094   0.926   9.285 -0.3370  0.3231  0.1850
   58CHL1  H12A 6730   2.022   0.846   9.314 -0.1012 -0.5252 -1.4955
   58CHL1  H12B 6731   2.187   0.876   9.251 -0.5498  0.0111  0.0598
   58CHL1   C11 6732   2.118   1.016   9.413 -0.0862 -0.0353 -0.3901
   58CHL1  H11A 6733   2.014   1.039   9.447  0.0222  1.0670 -0.7756
   58CHL1  H11B 6734   2.159   0.956   9.497  2.6722  1.8754 -0.2990
   58CHL1    C9 6735   2.198   1.142   9.399 -0.0307  0.2976  0.0362
   58CHL1    H9 6736   2.302   1.112   9.375  0.4486  1.1192  1.0291
   58CHL1   C10 6737   2.203   1.235   9.522  0.1157 -0.5093 -0.1597
   58CHL1   C19 6738   2.054   1.258   9.566 -0.3998 -0.1552 -0.4007
   58CHL1  H19A 6739   2.004   1.176   9.621  0.2451 -0.6780 -0.5813
   58CHL1  H19B 6740   2.064   1.339   9.642  2.6273 -1.4821  0.7169
   58CHL1  H19C 6741   1.999   1.300   9.479 -0.7273 -0.1628 -0.1952
   58CHL1    C1 6742   2.288   1.163   9.628  0.5312  0.0536 -0.2794
   58CHL1   H1A 6743   2.233   1.077   9.672 -1.1203  1.6454  0.8455
   58CHL1   H1B 6744   2.382   1.137   9.575  0.7141 -0.3316  0.2298
   58CHL1    C2 6745   2.327   1.254   9.748  0.4872 -0.6920 -0.0832
   58CHL1   H2A 6746   2.403   1.200   9.808 -0.4070  0.6982  2.3708
   58CHL1   H2B 6747   2.243   1.285   9.815  0.4150 -1.3532  0.1360
   58CHL1   C20 6748   1.915   0.873   8.981  0.2547  0.2395 -0.6511
   58CHL1   H20 6749   1.822   0.933   8.994 -0.6557 -1.0791 -1.0096
   58CHL1   C21 6750   1.898   0.754   9.079  0.2264  0.2145 -0.1699
   58CHL1  H21A 6751   1.833   0.682   9.024  1.5580 -0.2948 -1.1026
   58CHL1  H21B 6752   1.849   0.785   9.174  0.0222 -1.4040  0.2799
   58CHL1  H21C 6753   1.995   0.709   9.110  0.5293  0.8295 -0.2191
   58CHL1   C22 6754   1.930   0.821   8.837 -0.1673 -0.3226 -0.2173
   58CHL1  H22A 6755   1.834   0.776   8.804 -1.1942 -0.6818  3.0164
   58CHL1  H22B 6756   1.921   0.914   8.778  1.5838 -0.9295 -1.4686
   58CHL1   C23 6757   2.056   0.744   8.799 -1.3586  0.2323  0.0743
   58CHL1  H23A 6758   2.151   0.800   8.805 -0.7797 -0.7077 -0.2470
   58CHL1  H23B 6759   2.073   0.647   8.852 -0.4893 -0.2749 -1.1156
   58CHL1   C24 6760   2.049   0.682   8.656  0.1638  0.3246 -0.6789
   58CHL1  H24A 6761   2.135   0.611   8.657  0.5800  0.7974  2.2721
   58CHL1  H24B 6762   1.955   0.625   8.641 -0.4493  0.8759  0.9162
   58CHL1   C25 6763   2.062   0.774   8.537 -0.0833  0.2146  0.3855
   58CHL1   H25 6764   1.963   0.825   8.538  0.2510  0.8591  1.1237
   58CHL1   C26 6765   2.169   0.888   8.544 -0.4195 -0.9499  0.3060
   58CHL1  H26A 6766   2.160   0.948   8.636  1.0385 -0.6109  0.2358
   58CHL1  H26B 6767   2.262   0.829   8.556  0.9953  1.0695 -0.5547
   58CHL1  H26C 6768   2.166   0.950   8.451 -2.1591 -0.4329  0.6793
   58CHL1   C27 6769   2.082   0.691   8.402  0.0208  0.1288  0.3971
   58CHL1  H27A 6770   2.012   0.608   8.426  0.5687 -1.4677 -3.3208
   58CHL1  H27B 6771   2.062   0.755   8.314 -0.0009 -0.0701  0.2597
   58CHL1  H27C 6772   2.189   0.663   8.408  0.0924  0.0044 -1.4218
   59CHL1    C3 6773   3.312   0.769   9.715 -0.1307  0.2417 -0.2684
   59CHL1    H3 6774   3.256   0.843   9.654 -0.9669 -0.4187 -0.3095
   59CHL1    O3 6775   3.321   0.836   9.844 -0.1137  0.3501  0.1472
   59CHL1   H3' 6776   3.309   0.774   9.916 -0.5646  0.1499 -0.0953
   59CHL1    C4 6777   3.230   0.642   9.711 -0.0311  0.9241 -0.4226
   59CHL1   H4A 6778   3.294   0.571   9.768  0.0044  2.3382  1.3526
   59CHL1   H4B 6779   3.128   0.657   9.752 -2.0694 -1.7168 -4.2569
   59CHL1    C5 6780   3.219   0.590   9.568 -0.2758 -0.3982  0.9305
   59CHL1    C6 6781   3.103   0.554   9.507  0.1118 -0.1010  0.4590
   59CHL1    H6 6782   3.016   0.562   9.574 -0.1864 -0.7976  0.1648
   59CHL1    C7 6783   3.081   0.518   9.364 -0.1015 -0.1830  0.0823
   59CHL1   H7A 6784   3.010   0.433   9.352  2.1304 -2.3226  1.2837
   59CHL1   H7B 6785   3.040   0.609   9.317 -0.1073  1.5080  3.2245
   59CHL1    C8 6786   3.213   0.484   9.282 -0.0911 -0.8656  0.1146
   59CHL1    H8 6787   3.231   0.378   9.309  1.5213 -0.7299 -0.3362
   59CHL1   C14 6788   3.193   0.493   9.132 -0.1644  0.2179  0.4283
   59CHL1   H14 6789   3.164   0.598   9.110  0.6341  0.4490  0.4597
   59CHL1   C15 6790   3.077   0.414   9.076  0.1465 -0.7161 -0.4654
   59CHL1  H15A 6791   3.060   0.318   9.130 -0.0799 -0.9812 -1.0077
   59CHL1  H15B 6792   2.978   0.464   9.081  0.1030 -0.6971 -1.5051
   59CHL1   C16 6793   3.119   0.385   8.926 -0.2862 -0.0802  0.0926
   59CHL1  H16A 6794   3.115   0.276   8.908 -1.5704  0.1968 -1.3908
   59CHL1  H16B 6795   3.055   0.434   8.850 -0.5574  0.9223  0.9586
   59CHL1   C17 6796   3.263   0.457   8.904 -0.5986  0.4043 -0.0829
   59CHL1   H17 6797   3.234   0.560   8.874 -1.7835 -0.0844 -0.6615
   59CHL1   C13 6798   3.313   0.462   9.050  0.7960 -0.2696 -0.5966
   59CHL1   C18 6799   3.361   0.319   9.087  0.2871  0.4402 -0.4049
   59CHL1  H18A 6800   3.283   0.241   9.076 -0.0360  0.5541  0.9758
   59CHL1  H18B 6801   3.450   0.288   9.028  0.2379 -0.3865 -0.0476
   59CHL1  H18C 6802   3.401   0.307   9.190 -1.9195 -0.4285  0.3779
   59CHL1   C12 6803   3.416   0.562   9.091 -0.1379 -0.1167 -0.5005
   59CHL1  H12A 6804   3.513   0.547   9.039  1.3515  2.5843  1.4070
   59CHL1  H12B 6805   3.383   0.664   9.062 -1.3213  0.5554  3.0269
   59CHL1   C11 6806   3.451   0.558   9.240  0.0810  0.3614 -0.1243
   59CHL1  H11A 6807   3.503   0.461   9.255  1.0180  1.1073  1.7210
   59CHL1  H11B 6808   3.534   0.629   9.261 -1.6378  2.3998 -0.0912
   59CHL1    C9 6809   3.329   0.577   9.328  0.0599  0.2242  0.4064
   59CHL1    H9 6810   3.286   0.673   9.292  0.5821  0.6845  1.0002
   59CHL1   C10 6811   3.355   0.582   9.483 -0.3857 -1.2058 -0.4066
   59CHL1   C19 6812   3.434   0.453   9.527 -0.3107  0.3028  0.3750
   59CHL1  H19A 6813   3.368   0.367   9.504  1.8922 -1.6935  1.2599
   59CHL1  H19B 6814   3.526   0.440   9.466 -0.6388  1.0069 -0.2699
   59CHL1  H19C 6815   3.467   0.436   9.632  0.3556 -0.1579  0.1008
   59CHL1    C1 6816   3.451   0.710   9.514  0.3059 -0.6575 -0.2286
   59CHL1   H1A 6817   3.551   0.692   9.469  0.7947  0.2401  0.5025
   59CHL1   H1B 6818   3.402   0.799   9.469 -0.7768 -0.6002  1.0486
   59CHL1    C2 6819   3.455   0.737   9.664 -0.1598 -0.0336 -0.4621
   59CHL1   H2A 6820   3.525   0.817   9.695  0.6470 -0.3680 -1.4132
   59CHL1   H2B 6821   3.488   0.641   9.709  0.3297 -0.0025 -0.7577
   59CHL1   C20 6822   3.338   0.394   8.782 -0.5609 -0.2015 -0.0245
   59CHL1   H20 6823   3.373   0.292   8.811 -0.5890 -0.1993  0.0170
   59CHL1   C21 6824   3.478   0.469   8.771  1.0550 -0.8899 -0.3133
   59CHL1  H21A 6825   3.540   0.442   8.859  2.8229 -2.2028 -1.9125
   59CHL1  H21B 6826   3.470   0.579   8.758 -0.8748 -0.8698  0.8773
   59CHL1  H21C 6827   3.533   0.415   8.690  1.3905 -1.6707  0.4311
   59CHL1   C22 6828   3.265   0.390   8.651  0.4292  0.5944  0.5205
   59CHL1  H22A 6829   3.166   0.339   8.654 -0.1667  1.6170 -0.8951
   59CHL1  H22B 6830   3.247   0.494   8.618  0.6841 -0.0152 -1.6095
   59CHL1   C23 6831   3.340   0.317   8.531  0.7103  0.0279  0.9062
   59CHL1  H23A 6832   3.275   0.330   8.442 -0.2425  0.9150  1.7161
   59CHL1  H23B 6833   3.431   0.373   8.503  0.5465 -0.5075 -0.7504
   59CHL1   C24 6834   3.360   0.165   8.553 -0.4206  0.8089 -0.5539
   59CHL1  H24A 6835   3.461   0.144   8.592 -0.0584  1.1668 -1.2800
   59CHL1  H24B 6836   3.288   0.142   8.635  1.6570  2.9880  1.9990
   59CHL1   C25 6837   3.355   0.085   8.422  0.1298 -0.9812 -0.2595
   59CHL1   H25 6838   3.374  -0.022   8.444 -2.0839 -1.3498 -0.0332
   59CHL1   C26 6839   3.221   0.096   8.352  0.3565 -0.2058  0.3331
   59CHL1  H26A 6840   3.213   0.016   8.276  2.9651 -0.8488  0.6738
   59CHL1  H26B 6841   3.146   0.078   8.432 -1.9595  0.6670 -1.5891
   59CHL1  H26C 6842   3.205   0.188   8.291 -0.9437 -0.0671  0.8798
   59CHL1   C27 6843   3.456   0.131   8.313 -0.4076 -0.5893  0.7227
   59CHL1  H27A 6844   3.453   0.240   8.292 -0.4709 -0.8273 -0.5375
   59CHL1  H27B 6845   3.557   0.111   8.354  0.2826  0.5254 -0.4101
   59CHL1  H27C 6846   3.439   0.078   8.217  1.8939  0.1537 -0.1188
   60CHL1    C3 6847   0.818   5.876   9.784  0.3725  0.8153 -0.0596
   60CHL1    H3 6848   0.757   5.784   9.777 -1.4912  1.8159  2.2904
   60CHL1    O3 6849   0.791   5.941   9.911  0.1116 -0.0532  0.3695
   60CHL1   H3' 6850   0.846   6.019   9.900 -2.1143  1.4783 -0.1703
   60CHL1    C4 6851   0.972   5.861   9.766  0.3536 -0.2533  0.1654
   60CHL1   H4A 6852   1.034   5.952   9.782  0.0214  0.1386 -0.7624
   60CHL1   H4B 6853   1.010   5.794   9.846 -0.7467 -0.1491  0.7815
   60CHL1    C5 6854   1.011   5.809   9.628  0.5110  0.0418 -0.5498
   60CHL1    C6 6855   1.084   5.699   9.619 -0.0912  0.1570 -0.1440
   60CHL1    H6 6856   1.104   5.648   9.715 -0.7525 -3.8139 -2.0037
   60CHL1    C7 6857   1.164   5.666   9.501  0.6641  0.1495  0.2370
   60CHL1   H7A 6858   1.271   5.656   9.527  0.4418  2.4213  2.1623
   60CHL1   H7B 6859   1.125   5.571   9.457 -0.7103  0.3735  0.9327
   60CHL1    C8 6860   1.155   5.776   9.387  0.0896 -0.5734  0.5322
   60CHL1    H8 6861   1.214   5.862   9.426  0.4419 -0.9806  0.8977
   60CHL1   C14 6862   1.209   5.731   9.248 -0.3199 -0.7128 -0.4047
   60CHL1   H14 6863   1.143   5.646   9.222  0.9028 -1.8681  0.2059
   60CHL1   C15 6864   1.344   5.676   9.254 -0.1743 -0.0085 -0.6706
   60CHL1  H15A 6865   1.418   5.748   9.295  0.1490 -0.3912 -0.5720
   60CHL1  H15B 6866   1.344   5.582   9.314 -0.4108  0.6096  0.3040
   60CHL1   C16 6867   1.389   5.664   9.111  0.2174 -0.3416 -0.1438
   60CHL1  H16A 6868   1.483   5.714   9.080 -0.2802  0.4842 -0.3483
   60CHL1  H16B 6869   1.411   5.556   9.097  2.7912 -0.0223  1.1328
   60CHL1   C17 6870   1.272   5.729   9.027  0.4481  0.1879  0.1486
   60CHL1   H17 6871   1.196   5.648   9.019  0.1358  0.6935 -2.3366
   60CHL1   C13 6872   1.203   5.823   9.133  0.4930 -0.0653 -0.1046
   60CHL1   C18 6873   1.294   5.944   9.148  0.4972 -0.5785  0.0337
   60CHL1  H18A 6874   1.248   5.999   9.233 -1.0338 -2.0262  0.1488
   60CHL1  H18B 6875   1.402   5.933   9.171  0.9125  2.1101 -0.4077
   60CHL1  H18C 6876   1.275   6.008   9.059 -1.3871 -0.0657  0.7975
   60CHL1   C12 6877   1.056   5.869   9.113  0.1686  0.1870 -0.0911
   60CHL1  H12A 6878   1.051   5.944   9.031  2.4372 -0.0930 -0.5164
   60CHL1  H12B 6879   0.990   5.783   9.090  0.6358 -0.9282  2.5032
   60CHL1   C11 6880   1.000   5.926   9.251  0.6521  0.8065 -0.0134
   60CHL1  H11A 6881   1.044   6.027   9.266 -0.7325  1.1998  1.6976
   60CHL1  H11B 6882   0.890   5.937   9.237  0.7199  0.2309 -1.0065
   60CHL1    C9 6883   1.016   5.840   9.379 -0.0498 -0.4687 -0.0840
   60CHL1    H9 6884   0.955   5.748   9.371  0.5130 -0.9771  1.2942
   60CHL1   C10 6885   0.967   5.906   9.511 -0.4128 -0.5213  0.0455
   60CHL1   C19 6886   1.023   6.052   9.525 -0.2026  0.3859  0.1599
   60CHL1  H19A 6887   1.008   6.101   9.623  0.0750  0.0771  0.3589
   60CHL1  H19B 6888   1.132   6.070   9.508 -0.7431  1.1160 -2.8128
   60CHL1  H19C 6889   0.965   6.117   9.456  1.1256  0.1750 -1.1965
   60CHL1    C1 6890   0.809   5.911   9.521  0.0735 -0.3119 -0.3896
   60CHL1   H1A 6891   0.770   5.983   9.446 -1.4875 -1.6077 -0.8519
   60CHL1   H1B 6892   0.760   5.813   9.503 -1.8852  0.6487 -0.3497
   60CHL1    C2 6893   0.772   5.962   9.665 -0.4957  0.3509 -0.6336
   60CHL1   H2A 6894   0.661   5.972   9.662 -0.5631 -0.3983 -0.7555
   60CHL1   H2B 6895   0.813   6.064   9.681  0.1570  0.5464 -3.3001
   60CHL1   C20 6896   1.315   5.788   8.886  0.2923 -0.0674  0.0061
   60CHL1   H20 6897   1.407   5.848   8.900  0.7929 -0.4544 -1.5999
   60CHL1   C21 6898   1.204   5.869   8.823 -0.0517  0.0563  0.7636
   60CHL1  H21A 6899   1.221   5.902   8.719 -1.5636 -1.6869 -0.0645
   60CHL1  H21B 6900   1.189   5.963   8.881 -1.7770  0.1682  0.1830
   60CHL1  H21C 6901   1.114   5.804   8.832 -0.6050  0.7648  0.3845
   60CHL1   C22 6902   1.361   5.666   8.796  0.4608  0.3527 -0.7711
   60CHL1  H22A 6903   1.444   5.620   8.854 -1.0838 -2.6368 -0.8359
   60CHL1  H22B 6904   1.278   5.592   8.795  1.0807 -0.4865  2.5893
   60CHL1   C23 6905   1.408   5.698   8.655 -0.1664 -0.0297 -0.1045
   60CHL1  H23A 6906   1.324   5.702   8.583 -2.2319  0.9929  2.2898
   60CHL1  H23B 6907   1.452   5.800   8.646  1.4601 -0.8294 -1.4965
   60CHL1   C24 6908   1.508   5.594   8.603  0.9058  0.1719  0.1710
   60CHL1  H24A 6909   1.561   5.629   8.512  0.8579  1.2188  0.5316
   60CHL1  H24B 6910   1.587   5.584   8.681  0.4651  0.4534  0.6644
   60CHL1   C25 6911   1.455   5.455   8.562 -0.5995  0.1167 -0.0825
   60CHL1   H25 6912   1.393   5.419   8.647 -2.3387 -1.5239 -1.9851
   60CHL1   C26 6913   1.360   5.451   8.444 -0.0678  0.0563  0.6594
   60CHL1  H26A 6914   1.282   5.525   8.473  0.7247  0.1136  2.7356
   60CHL1  H26B 6915   1.410   5.492   8.354 -0.5900 -0.3899  0.1655
   60CHL1  H26C 6916   1.330   5.344   8.437 -0.0694  0.0955  0.0600
   60CHL1   C27 6917   1.566   5.360   8.525  0.0296  0.0039 -0.3854
   60CHL1  H27A 6918   1.515   5.266   8.494 -0.0986 -0.0342 -0.0605
   60CHL1  H27B 6919   1.637   5.398   8.449  2.0572 -1.7364  0.5680
   60CHL1  H27C 6920   1.629   5.338   8.614 -0.2024 -1.6354 -0.6005
   61CHL1    C3 6921   5.555   6.271   9.792  0.3836 -0.0352  0.3018
   61CHL1    H3 6922   5.655   6.232   9.819  1.5797  2.8298  0.2206
   61CHL1    O3 6923   5.480   6.251   9.912  0.6361 -0.7388 -0.2422
   61CHL1   H3' 6924   5.472   6.156   9.924 -0.6395 -0.5985  0.0720
   61CHL1    C4 6925   5.555   6.424   9.760 -0.1986 -0.5994  0.0352
   61CHL1   H4A 6926   5.448   6.451   9.761 -0.0664  0.0013  3.4029
   61CHL1   H4B 6927   5.592   6.477   9.851 -0.5249 -1.9006  0.9320
   61CHL1    C5 6928   5.619   6.468   9.632 -0.0699 -0.1511 -0.6851
   61CHL1    C6 6929   5.715   6.554   9.627  0.1922  0.0537 -0.4646
   61CHL1    H6 6930   5.740   6.605   9.722 -0.8281 -0.6913  0.2171
   61CHL1    C7 6931   5.793   6.597   9.508  0.6181  0.4868 -0.3480
   61CHL1   H7A 6932   5.804   6.707   9.518 -1.3270  0.5309  1.7953
   61CHL1   H7B 6933   5.895   6.554   9.506 -0.4451 -2.1098 -2.6047
   61CHL1    C8 6934   5.727   6.560   9.375  0.8954 -0.0788  0.1359
   61CHL1    H8 6935   5.640   6.628   9.364  2.4961  1.7846 -1.3299
   61CHL1   C14 6936   5.811   6.578   9.254  0.5760  0.0358  0.4041
   61CHL1   H14 6937   5.897   6.508   9.260  0.1286 -0.7771 -2.1168
   61CHL1   C15 6938   5.871   6.715   9.222  0.0361 -0.3135 -0.1414
   61CHL1  H15A 6939   5.788   6.788   9.230 -0.1360 -0.3813 -1.2214
   61CHL1  H15B 6940   5.948   6.753   9.293 -1.7362 -1.6995  2.5999
   61CHL1   C16 6941   5.925   6.697   9.082 -0.1182  0.0085  0.8555
   61CHL1  H16A 6942   5.911   6.788   9.021  0.4859 -0.2801  0.2841
   61CHL1  H16B 6943   6.035   6.680   9.079 -0.3184 -1.0712 -2.1696
   61CHL1   C17 6944   5.849   6.579   9.013 -0.1752  0.2875 -0.1220
   61CHL1   H17 6945   5.922   6.496   9.021  0.5419  1.2151  3.9112
   61CHL1   C13 6946   5.740   6.540   9.118  0.8893  0.3941  0.1217
   61CHL1   C18 6947   5.617   6.630   9.088 -0.7936 -0.2571  0.1413
   61CHL1  H18A 6948   5.542   6.624   9.170  0.8271  0.4305  1.7176
   61CHL1  H18B 6949   5.646   6.735   9.067 -0.0888 -1.1804 -3.8541
   61CHL1  H18C 6950   5.559   6.579   9.009 -1.5200 -1.5010  1.4560
   61CHL1   C12 6951   5.704   6.396   9.128 -0.7003  0.8233  0.7264
   61CHL1  H12A 6952   5.653   6.365   9.034  2.2282 -0.3556 -0.5495
   61CHL1  H12B 6953   5.788   6.324   9.116 -0.7045  0.9413 -0.0218
   61CHL1   C11 6954   5.617   6.364   9.247  0.0725 -0.1978 -0.3902
   61CHL1  H11A 6955   5.523   6.412   9.213 -0.2678 -1.0275 -0.6213
   61CHL1  H11B 6956   5.594   6.259   9.276  0.6451  0.3687  2.2944
   61CHL1    C9 6957   5.677   6.419   9.383 -0.2649  0.5819 -0.9439
   61CHL1    H9 6958   5.768   6.359   9.405 -0.5257  0.3200 -0.5845
   61CHL1   C10 6959   5.575   6.398   9.502 -0.1284 -1.0374  0.1724
   61CHL1   C19 6960   5.434   6.440   9.467  0.0453 -0.7195  0.7624
   61CHL1  H19A 6961   5.388   6.380   9.386 -0.0718 -0.2407  0.4763
   61CHL1  H19B 6962   5.367   6.428   9.555 -0.8275  0.2708  0.2467
   61CHL1  H19C 6963   5.429   6.543   9.427 -0.8133 -1.6036 -1.4830
   61CHL1    C1 6964   5.575   6.242   9.542 -0.9734  0.2223  0.0184
   61CHL1   H1A 6965   5.526   6.186   9.459 -1.5676 -2.8345  2.3586
   61CHL1   H1B 6966   5.681   6.208   9.550 -0.7541  0.7373 -0.6582
   61CHL1    C2 6967   5.487   6.208   9.670  0.0063  0.9347 -0.5023
   61CHL1   H2A 6968   5.477   6.099   9.687 -2.6129  1.2990  0.5149
   61CHL1   H2B 6969   5.382   6.239   9.651 -1.6868 -2.8628  2.1067
   61CHL1   C20 6970   5.800   6.584   8.869  0.0786 -0.4321  0.3411
   61CHL1   H20 6971   5.721   6.659   8.847  1.3876  0.6651 -0.7783
   61CHL1   C21 6972   5.752   6.445   8.810  0.2407 -0.0851 -0.0632
   61CHL1  H21A 6973   5.811   6.361   8.854  0.3702 -0.1885 -0.4251
   61CHL1  H21B 6974   5.755   6.435   8.699  1.1166 -0.9460  0.0224
   61CHL1  H21C 6975   5.647   6.428   8.841  0.1983  0.5636  0.1537
   61CHL1   C22 6976   5.914   6.643   8.779 -0.3403  0.0531  0.3035
   61CHL1  H22A 6977   5.963   6.731   8.826  0.4036  1.0274 -2.1799
   61CHL1  H22B 6978   5.998   6.570   8.765  0.1476  0.5669  0.5281
   61CHL1   C23 6979   5.863   6.695   8.642 -0.1613 -0.0405 -0.4681
   61CHL1  H23A 6980   5.797   6.616   8.600  1.0200 -1.9653  1.2151
   61CHL1  H23B 6981   5.795   6.777   8.673  1.7060  0.4707  2.4495
   61CHL1   C24 6982   5.982   6.736   8.552 -0.3056 -0.4645  0.1849
   61CHL1  H24A 6983   6.057   6.784   8.618 -2.5028  0.4802  2.0492
   61CHL1  H24B 6984   6.029   6.650   8.500  0.1663 -0.1912  0.1596
   61CHL1   C25 6985   5.946   6.842   8.446  0.3009  0.1462  0.5418
   61CHL1   H25 6986   5.891   6.926   8.494 -1.9138 -0.9082 -0.0897
   61CHL1   C26 6987   6.082   6.897   8.381  0.3018 -0.2438  0.3235
   61CHL1  H26A 6988   6.055   6.935   8.281  2.1221  2.6109  0.8785
   61CHL1  H26B 6989   6.140   6.969   8.442  0.7859  1.5501 -2.2238
   61CHL1  H26C 6990   6.153   6.812   8.369  0.6739  0.4965 -2.9479
   61CHL1   C27 6991   5.837   6.784   8.352  0.3207 -0.3379  0.0359
   61CHL1  H27A 6992   5.736   6.777   8.397  0.1719  0.2476 -0.2071
   61CHL1  H27B 6993   5.820   6.842   8.259  3.1206  0.6991  0.1103
   61CHL1  H27C 6994   5.875   6.683   8.323  1.8156  0.3170 -0.3332
   62CHL1    C3 6995   0.160   3.555   9.722 -0.2231  0.4082 -0.1525
   62CHL1    H3 6996   0.230   3.637   9.694 -0.3297  1.0225  1.3241
   62CHL1    O3 6997   0.168   3.552   9.864 -0.1398  0.3265  0.2188
   62CHL1   H3' 6998   0.230   3.481   9.881  3.4568  2.9670 -1.0192
   62CHL1    C4 6999   0.028   3.582   9.665  0.2973 -0.2770  0.5826
   62CHL1   H4A 7000  -0.045   3.514   9.713 -1.5265  0.8632 -0.5068
   62CHL1   H4B 7001  -0.002   3.685   9.697  0.6854 -0.4721  1.6046
   62CHL1    C5 7002   0.006   3.583   9.517  0.0271 -0.3170 -0.7438
   62CHL1    C6 7003  -0.036   3.687   9.446  0.1102  0.5039  0.3492
   62CHL1    H6 7004  -0.050   3.785   9.494 -1.0944 -0.1413  1.3393
   62CHL1    C7 7005  -0.028   3.685   9.295 -0.2867 -0.7843 -0.3529
   62CHL1   H7A 7006  -0.118   3.727   9.243 -1.8713 -4.1707 -0.4765
   62CHL1   H7B 7007   0.055   3.753   9.266  1.4896 -2.5584  0.4573
   62CHL1    C8 7008  -0.019   3.549   9.237  0.2237  1.0871 -0.4806
   62CHL1    H8 7009  -0.118   3.502   9.255 -0.6102  3.2606  0.9418
   62CHL1   C14 7010   0.016   3.557   9.092  0.5108  0.1332  0.0555
   62CHL1   H14 7011   0.121   3.592   9.084  0.2315  0.9268 -0.2406
   62CHL1   C15 7012  -0.059   3.653   9.006 -0.4475 -0.5267  0.6394
   62CHL1  H15A 7013  -0.167   3.649   9.034 -1.1039  0.4926 -1.6450
   62CHL1  H15B 7014  -0.027   3.758   9.019  2.4615 -1.5871  2.4061
   62CHL1   C16 7015  -0.052   3.604   8.861  0.4671  0.2958  0.4064
   62CHL1  H16A 7016  -0.153   3.579   8.822  1.1996  1.6850 -2.5968
   62CHL1  H16B 7017  -0.016   3.688   8.798 -1.1893  1.4739  0.9962
   62CHL1   C17 7018   0.039   3.481   8.862 -0.3999 -0.0608 -0.3383
   62CHL1   H17 7019   0.140   3.526   8.854  0.0247 -0.6708  1.3431
   62CHL1   C13 7020   0.020   3.429   9.006  0.2339 -0.5386  0.6636
   62CHL1   C18 7021  -0.118   3.367   9.023 -0.2234  0.4307  1.0496
   62CHL1  H18A 7022  -0.132   3.324   9.125  0.2623  0.6604  1.2116
   62CHL1  H18B 7023  -0.209   3.428   9.003 -2.2352 -1.1317  4.6766
   62CHL1  H18C 7024  -0.122   3.278   8.956 -0.9500  0.3695  1.1622
   62CHL1   C12 7025   0.134   3.337   9.065 -0.4269  0.3714 -0.4091
   62CHL1  H12A 7026   0.139   3.234   9.022  0.1388 -0.2190  1.0371
   62CHL1  H12B 7027   0.224   3.397   9.040 -1.3302  0.8663 -2.6187
   62CHL1   C11 7028   0.123   3.319   9.219  0.2920  0.2993 -0.3928
   62CHL1  H11A 7029   0.048   3.241   9.243 -0.1039  1.1303  1.1563
   62CHL1  H11B 7030   0.219   3.289   9.267 -0.3649 -2.3476 -0.6949
   62CHL1    C9 7031   0.096   3.460   9.291  0.8007  0.7236 -0.5714
   62CHL1    H9 7032   0.194   3.511   9.281  1.9030 -0.7087  2.5469
   62CHL1   C10 7033   0.068   3.448   9.447  0.3850 -0.7018  0.7617
   62CHL1   C19 7034  -0.038   3.330   9.476 -0.5631  0.1373 -0.0355
   62CHL1  H19A 7035   0.018   3.234   9.474 -0.2692  0.2775  1.4129
   62CHL1  H19B 7036  -0.078   3.331   9.579  1.4480  0.5183  0.7456
   62CHL1  H19C 7037  -0.127   3.340   9.410  0.2824  1.9514 -0.9204
   62CHL1    C1 7038   0.208   3.415   9.517  0.2119  0.1091 -0.0383
   62CHL1   H1A 7039   0.252   3.319   9.482  0.6611  0.2542  0.1323
   62CHL1   H1B 7040   0.287   3.485   9.483 -0.0167  0.6380  0.5115
   62CHL1    C2 7041   0.218   3.422   9.671  0.7444  0.0556  0.1614
   62CHL1   H2A 7042   0.320   3.385   9.695  1.1505  0.7037 -0.5450
   62CHL1   H2B 7043   0.154   3.340   9.710  1.3532  0.2109  1.4985
   62CHL1   C20 7044   0.020   3.389   8.741 -0.0273 -0.1619  0.1430
   62CHL1   H20 7045  -0.079   3.339   8.745 -0.2863  0.5102  4.1316
   62CHL1   C21 7046   0.113   3.271   8.742  0.4243  0.5044 -0.5172
   62CHL1  H21A 7047   0.221   3.298   8.739  0.9788 -1.5477  0.3632
   62CHL1  H21B 7048   0.086   3.192   8.669  1.1423  0.9490 -1.2662
   62CHL1  H21C 7049   0.091   3.209   8.832 -1.7737 -1.0797 -2.0994
   62CHL1   C22 7050   0.022   3.457   8.602 -0.5983 -1.0880  0.3561
   62CHL1  H22A 7051  -0.058   3.534   8.607  0.5180 -0.0555  3.5483
   62CHL1  H22B 7052   0.116   3.515   8.589 -0.5361 -1.4963 -1.0338
   62CHL1   C23 7053  -0.005   3.358   8.493 -0.0307  0.3076 -1.0580
   62CHL1  H23A 7054   0.085   3.299   8.469 -0.2281 -0.4528  0.0386
   62CHL1  H23B 7055  -0.074   3.280   8.532  0.9547 -2.6892 -5.0457
   62CHL1   C24 7056  -0.068   3.420   8.372  0.3185  0.3702  0.9933
   62CHL1  H24A 7057  -0.156   3.470   8.418 -0.0876 -0.4391  1.1008
   62CHL1  H24B 7058   0.003   3.491   8.323 -2.1185  2.1946  0.0198
   62CHL1   C25 7059  -0.116   3.324   8.260 -0.0331 -0.1551 -1.2828
   62CHL1   H25 7060  -0.180   3.246   8.305 -0.9711 -0.6279 -3.3889
   62CHL1   C26 7061  -0.203   3.384   8.149 -0.3652  0.3424  0.3451
   62CHL1  H26A 7062  -0.295   3.426   8.196 -1.1511 -0.3281 -0.5533
   62CHL1  H26B 7063  -0.149   3.465   8.096 -2.4695  1.3973 -0.2730
   62CHL1  H26C 7064  -0.231   3.301   8.081  1.0188 -1.6288  2.1284
   62CHL1   C27 7065   0.004   3.249   8.208  0.2389  0.3577 -0.3761
   62CHL1  H27A 7066   0.083   3.317   8.170 -0.4314  0.1623 -2.1635
   62CHL1  H27B 7067   0.052   3.187   8.288  0.0191  1.9063  0.9952
   62CHL1  H27C 7068  -0.033   3.189   8.122 -0.3194  0.5218 -0.2462
   63CHL1    C3 7069   1.660   6.336   9.712  0.6545 -0.4955  0.0389
   63CHL1    H3 7070   1.562   6.283   9.708 -0.2075  0.7174  3.3370
   63CHL1    O3 7071   1.694   6.358   9.850 -0.2081 -0.3845  1.0594
   63CHL1   H3' 7072   1.699   6.269   9.885  2.1272 -1.1351 -0.9901
   63CHL1    C4 7073   1.771   6.248   9.646 -0.3288  0.5491  0.5304
   63CHL1   H4A 7074   1.865   6.307   9.645 -0.0735  0.1396  0.3465
   63CHL1   H4B 7075   1.802   6.168   9.716  1.6415  0.8407  0.0133
   63CHL1    C5 7076   1.741   6.205   9.503 -0.0620  0.4240  0.0824
   63CHL1    C6 7077   1.735   6.080   9.454 -0.5088  0.6384  0.0626
   63CHL1    H6 7078   1.749   6.005   9.533 -3.0733  1.5824  1.4770
   63CHL1    C7 7079   1.701   6.030   9.319  0.5587  0.3072 -0.6574
   63CHL1   H7A 7080   1.768   5.946   9.288  1.9377 -0.7064  4.5820
   63CHL1   H7B 7081   1.598   5.990   9.323 -0.1643  2.1994  0.1786
   63CHL1    C8 7082   1.711   6.150   9.223  0.1517 -0.2968 -0.1972
   63CHL1    H8 7083   1.817   6.162   9.193  0.4153 -1.2853  0.3139
   63CHL1   C14 7084   1.636   6.116   9.090  0.2065  0.0090 -0.0877
   63CHL1   H14 7085   1.532   6.087   9.115  0.5924  1.0114  2.8848
   63CHL1   C15 7086   1.691   6.002   9.007  0.7708 -0.4025  0.4904
   63CHL1  H15A 7087   1.802   6.008   9.006  0.6456  2.7938 -2.4597
   63CHL1  H15B 7088   1.665   5.903   9.050  0.7939 -0.9053 -0.6174
   63CHL1   C16 7089   1.642   6.036   8.865  0.0285  0.3160 -0.0459
   63CHL1  H16A 7090   1.726   6.061   8.797  0.2301 -0.5736 -0.1237
   63CHL1  H16B 7091   1.585   5.954   8.818 -1.3801  1.3267 -0.1498
   63CHL1   C17 7092   1.557   6.161   8.876 -0.4450 -0.8852 -0.4740
   63CHL1   H17 7093   1.462   6.121   8.918 -1.9297 -0.0217 -2.9259
   63CHL1   C13 7094   1.625   6.235   8.990 -1.0544 -0.0645 -0.0980
   63CHL1   C18 7095   1.766   6.283   8.947 -0.3028 -0.4820  0.8143
   63CHL1  H18A 7096   1.840   6.293   9.030 -0.5757 -0.2351  1.0278
   63CHL1  H18B 7097   1.808   6.211   8.874 -2.6422  0.6488 -1.7297
   63CHL1  H18C 7098   1.749   6.384   8.904  0.1415 -0.0795  1.5700
   63CHL1   C12 7099   1.534   6.343   9.057 -0.2599  0.3002 -0.1373
   63CHL1  H12A 7100   1.514   6.432   8.994 -0.3827 -0.2444 -0.8781
   63CHL1  H12B 7101   1.437   6.296   9.082 -0.3973 -0.4438 -2.0077
   63CHL1   C11 7102   1.604   6.393   9.186  0.8924 -0.0910 -0.0638
   63CHL1  H11A 7103   1.697   6.446   9.156  2.3013 -1.9755  0.8155
   63CHL1  H11B 7104   1.548   6.474   9.236 -0.7415  0.8161 -3.2466
   63CHL1    C9 7105   1.645   6.274   9.285  0.4242 -0.4143  0.1860
   63CHL1    H9 7106   1.541   6.239   9.306 -0.7487  3.9337  2.1943
   63CHL1   C10 7107   1.711   6.327   9.414 -0.8347  0.0065  1.2015
   63CHL1   C19 7108   1.851   6.388   9.379 -0.9633 -0.3688  1.0059
   63CHL1  H19A 7109   1.917   6.322   9.319  0.0636  2.0941 -0.6818
   63CHL1  H19B 7110   1.836   6.471   9.306 -1.4633 -0.1641  1.3447
   63CHL1  H19C 7111   1.900   6.432   9.468  1.4751 -0.8107 -0.0650
   63CHL1    C1 7112   1.628   6.436   9.489  0.5132  1.0711  0.1748
   63CHL1   H1A 7113   1.617   6.529   9.429  0.2330  0.4773 -0.7114
   63CHL1   H1B 7114   1.528   6.388   9.484  0.4481  1.2088  0.1286
   63CHL1    C2 7115   1.653   6.472   9.634  0.2868  0.2283  0.2405
   63CHL1   H2A 7116   1.567   6.531   9.672  1.1210  1.2974  0.4715
   63CHL1   H2B 7117   1.751   6.522   9.645  1.8140 -2.3159 -1.2407
   63CHL1   C20 7118   1.523   6.241   8.747 -0.0228  0.5709  0.3642
   63CHL1   H20 7119   1.526   6.352   8.758 -2.0651  0.5826  1.0307
   63CHL1   C21 7120   1.378   6.209   8.708  0.6091  0.0251 -0.2142
   63CHL1  H21A 7121   1.298   6.245   8.777 -0.2587 -0.5395 -0.9058
   63CHL1  H21B 7122   1.360   6.102   8.686 -1.4602  0.5288 -1.1925
   63CHL1  H21C 7123   1.351   6.253   8.609 -1.2388  0.1834  0.3278
   63CHL1   C22 7124   1.617   6.216   8.622 -0.7599  0.1483  0.4939
   63CHL1  H22A 7125   1.719   6.211   8.664 -2.1336 -0.4867  3.8482
   63CHL1  H22B 7126   1.581   6.125   8.569  1.2884 -0.6615  0.4612
   63CHL1   C23 7127   1.609   6.337   8.525 -0.3248 -0.0425  0.3975
   63CHL1  H23A 7128   1.510   6.337   8.475 -0.6845  0.7889  1.1006
   63CHL1  H23B 7129   1.621   6.434   8.578  3.0177  1.3543 -2.6875
   63CHL1   C24 7130   1.729   6.314   8.422  0.2615 -0.4287  0.5329
   63CHL1  H24A 7131   1.718   6.223   8.358 -1.0859 -0.2178  0.4407
   63CHL1  H24B 7132   1.732   6.402   8.353 -3.0302  0.5179  1.5024
   63CHL1   C25 7133   1.875   6.306   8.484  0.1941  0.7605 -0.4885
   63CHL1   H25 7134   1.876   6.216   8.548  1.9878  0.9229 -0.2884
   63CHL1   C26 7135   1.980   6.276   8.374 -0.7924 -0.4244 -0.3461
   63CHL1  H26A 7136   1.965   6.340   8.284 -1.7632  2.1025  1.5554
   63CHL1  H26B 7137   2.082   6.300   8.411 -1.8562 -0.5205  2.8184
   63CHL1  H26C 7138   1.981   6.169   8.347  2.6798 -1.2979  2.8802
   63CHL1   C27 7139   1.904   6.436   8.560  0.7024 -0.6637 -0.3638
   63CHL1  H27A 7140   1.904   6.523   8.492  1.1435  1.1758  1.9123
   63CHL1  H27B 7141   1.833   6.459   8.643 -0.5853  0.6923 -1.8339
   63CHL1  H27C 7142   2.005   6.434   8.608 -0.3858 -1.8111  1.9721
   64CHL1    C3 7143   0.335   4.653   9.778  0.1205 -0.3306 -0.5204
   64CHL1    H3 7144   0.433   4.634   9.826 -0.0580  1.9096  0.7921
   64CHL1    O3 7145   0.230   4.630   9.862 -0.4588 -0.1609 -0.3438
   64CHL1   H3' 7146   0.234   4.690   9.937  0.3847  2.3453 -2.3186
   64CHL1    C4 7147   0.326   4.796   9.717 -0.0679  0.3365  0.1358
   64CHL1   H4A 7148   0.230   4.811   9.665 -0.4356  1.5437  1.1445
   64CHL1   H4B 7149   0.334   4.859   9.808 -1.1654  0.7654 -0.0665
   64CHL1    C5 7150   0.435   4.820   9.607  0.2112  0.4182 -0.4920
   64CHL1    C6 7151   0.515   4.931   9.600 -0.3233 -0.0088 -0.3778
   64CHL1    H6 7152   0.497   5.014   9.669 -0.5180  0.3717 -0.8880
   64CHL1    C7 7153   0.615   4.953   9.482 -0.2456  0.0087 -0.3181
   64CHL1   H7A 7154   0.598   5.059   9.452 -0.4819  0.3894  1.1311
   64CHL1   H7B 7155   0.718   4.941   9.522  0.4765 -2.2299 -2.6970
   64CHL1    C8 7156   0.599   4.864   9.357 -0.2953  0.1384  0.0933
   64CHL1    H8 7157   0.505   4.901   9.309 -1.2048 -0.4397  1.3901
   64CHL1   C14 7158   0.721   4.873   9.269 -0.2056 -0.0856  0.2763
   64CHL1   H14 7159   0.804   4.835   9.333 -2.5731 -3.6919  1.3581
   64CHL1   C15 7160   0.766   5.013   9.218  0.7924  0.0355 -0.2458
   64CHL1  H15A 7161   0.685   5.057   9.157  1.3126 -1.1547 -1.8160
   64CHL1  H15B 7162   0.797   5.071   9.308  3.8084  0.3712 -1.4381
   64CHL1   C16 7163   0.874   4.981   9.116  0.0373  0.4084 -0.7437
   64CHL1  H16A 7164   0.855   5.041   9.025 -1.8361 -0.1102 -0.7280
   64CHL1  H16B 7165   0.976   4.989   9.158 -1.1049 -1.9193  2.7662
   64CHL1   C17 7166   0.857   4.827   9.087  0.2788  0.0008 -0.3301
   64CHL1   H17 7167   0.938   4.785   9.152  0.1682  0.8141  0.3422
   64CHL1   C13 7168   0.729   4.786   9.152 -0.5984  0.2583 -0.9813
   64CHL1   C18 7169   0.623   4.824   9.053 -0.5334 -0.7785 -0.5231
   64CHL1  H18A 7170   0.601   4.745   8.978  0.9794 -1.0070 -0.7236
   64CHL1  H18B 7171   0.527   4.835   9.109 -0.1610 -1.8112  0.3387
   64CHL1  H18C 7172   0.638   4.928   9.017 -1.3569 -0.5038 -0.0828
   64CHL1   C12 7173   0.709   4.635   9.196 -0.3434  0.5591  0.2835
   64CHL1  H12A 7174   0.701   4.570   9.106  1.1230 -0.1323  0.6357
   64CHL1  H12B 7175   0.794   4.598   9.257  0.9410  2.2340 -0.4519
   64CHL1   C11 7176   0.580   4.622   9.283 -0.2118  0.0088  0.1220
   64CHL1  H11A 7177   0.501   4.644   9.209 -0.2218 -0.6119 -0.0575
   64CHL1  H11B 7178   0.582   4.513   9.307 -0.8938 -0.3972 -1.5900
   64CHL1    C9 7179   0.577   4.721   9.404 -0.0442 -0.9103  0.6976
   64CHL1    H9 7180   0.672   4.695   9.456 -0.7804  0.1642  2.6270
   64CHL1   C10 7181   0.452   4.712   9.499  0.5249 -0.7470 -0.5701
   64CHL1   C19 7182   0.327   4.714   9.403  0.1213 -0.1471  0.2058
   64CHL1  H19A 7183   0.312   4.620   9.346 -0.6746 -0.2362  0.5527
   64CHL1  H19B 7184   0.229   4.737   9.450  0.4225  3.2272 -0.6512
   64CHL1  H19C 7185   0.347   4.794   9.329  2.5591 -0.4145  0.5524
   64CHL1    C1 7186   0.451   4.574   9.565  0.0597  0.4892 -0.3296
   64CHL1   H1A 7187   0.460   4.498   9.485  3.5360 -0.5938  1.0032
   64CHL1   H1B 7188   0.544   4.576   9.627 -0.7518 -0.0060  0.9206
   64CHL1    C2 7189   0.330   4.550   9.661 -0.3987 -0.1915 -0.1538
   64CHL1   H2A 7190   0.327   4.446   9.698 -1.1111 -0.7283 -1.6932
   64CHL1   H2B 7191   0.239   4.560   9.598 -0.5465 -0.8403 -0.0362
   64CHL1   C20 7192   0.909   4.777   8.952  0.2536  0.8608 -0.0909
   64CHL1   H20 7193   1.012   4.819   8.950 -0.2175  2.0757  0.6119
   64CHL1   C21 7194   0.841   4.839   8.833 -0.0819  0.2524  0.1708
   64CHL1  H21A 7195   0.836   4.950   8.827  1.4632  0.3134 -0.2304
   64CHL1  H21B 7196   0.736   4.804   8.837  0.1076 -0.0224  3.7035
   64CHL1  H21C 7197   0.882   4.810   8.734 -1.7754 -1.5190 -0.0346
   64CHL1   C22 7198   0.922   4.617   8.939  0.1517 -0.0521  0.4485
   64CHL1  H22A 7199   0.954   4.588   9.042  0.1688 -2.4757 -0.2085
   64CHL1  H22B 7200   0.825   4.572   8.910 -1.5687  2.9669  1.2613
   64CHL1   C23 7201   1.037   4.579   8.845  0.2647 -0.5389  0.6905
   64CHL1  H23A 7202   1.001   4.621   8.748  1.5170 -0.2142  0.3654
   64CHL1  H23B 7203   1.136   4.622   8.870  0.8180 -1.5441  0.2473
   64CHL1   C24 7204   1.064   4.431   8.811 -0.0887 -0.2491 -0.6660
   64CHL1  H24A 7205   1.091   4.381   8.906 -0.6436 -2.5733 -1.7167
   64CHL1  H24B 7206   0.973   4.382   8.772 -1.6957  3.1780 -1.4121
   64CHL1   C25 7207   1.185   4.401   8.713  0.0435 -0.1744 -0.8057
   64CHL1   H25 7208   1.264   4.473   8.740 -0.8421  0.6910 -0.4739
   64CHL1   C26 7209   1.228   4.254   8.724 -0.1189 -0.7163 -0.2422
   64CHL1  H26A 7210   1.321   4.242   8.665 -1.0957  1.1060 -2.2105
   64CHL1  H26B 7211   1.249   4.231   8.830  2.7068 -0.7275 -0.7599
   64CHL1  H26C 7212   1.151   4.177   8.698 -2.2686  0.8235  1.4382
   64CHL1   C27 7213   1.143   4.438   8.566  0.0937 -0.0197  0.5897
   64CHL1  H27A 7214   1.066   4.370   8.525  1.5259 -0.1366 -1.9893
   64CHL1  H27B 7215   1.100   4.540   8.557 -1.1522 -0.8035 -3.2325
   64CHL1  H27C 7216   1.234   4.433   8.503 -1.8333 -2.2445 -2.1373
   65CHL1    C3 7217   2.486   7.299   9.667 -0.2938  0.3772 -0.0304
   65CHL1    H3 7218   2.511   7.402   9.633  2.0309  0.8060  2.8132
   65CHL1    O3 7219   2.458   7.297   9.804  0.0126  0.1190  0.3026
   65CHL1   H3' 7220   2.423   7.209   9.819 -1.0946  0.1535 -1.9630
   65CHL1    C4 7221   2.366   7.254   9.581 -0.3138  0.0374  0.5903
   65CHL1   H4A 7222   2.327   7.160   9.627  2.6600 -1.2730  0.5158
   65CHL1   H4B 7223   2.282   7.326   9.591  1.0647  1.9667 -1.3155
   65CHL1    C5 7224   2.402   7.241   9.432  0.2061 -0.0295 -1.0323
   65CHL1    C6 7225   2.335   7.311   9.335 -0.1777  0.3609 -0.3719
   65CHL1    H6 7226   2.255   7.382   9.361  1.1127  2.0946 -1.0067
   65CHL1    C7 7227   2.382   7.306   9.188 -0.0671 -0.4722 -0.1130
   65CHL1   H7A 7228   2.303   7.353   9.125  1.2767  0.9251 -0.7661
   65CHL1   H7B 7229   2.463   7.381   9.187 -0.8028  0.3271  0.3066
   65CHL1    C8 7230   2.453   7.177   9.150  0.3787 -0.2717  0.7083
   65CHL1    H8 7231   2.382   7.091   9.147  0.5523 -0.3841 -0.2697
   65CHL1   C14 7232   2.527   7.189   9.016  0.0069 -0.4084  0.1359
   65CHL1   H14 7233   2.596   7.276   9.020  0.5502 -0.8448  0.1957
   65CHL1   C15 7234   2.426   7.213   8.898  0.0624  0.0455  0.4336
   65CHL1  H15A 7235   2.341   7.142   8.910  0.4476 -0.3722  0.7294
   65CHL1  H15B 7236   2.388   7.317   8.900 -0.0786  0.0412 -1.4008
   65CHL1   C16 7237   2.510   7.178   8.773  0.1238  0.1666 -0.1530
   65CHL1  H16A 7238   2.453   7.112   8.704 -0.9308  0.2255  0.6361
   65CHL1  H16B 7239   2.536   7.270   8.717 -1.3782  1.1150  0.6667
   65CHL1   C17 7240   2.639   7.108   8.823 -0.2082  0.4426  0.1973
   65CHL1   H17 7241   2.713   7.190   8.833  1.2240 -0.8493  0.4540
   65CHL1   C13 7242   2.607   7.068   8.969  0.3919  0.0658 -0.2437
   65CHL1   C18 7243   2.526   6.941   8.964  0.3082  0.8460  0.6339
   65CHL1  H18A 7244   2.492   6.901   9.061  0.1430 -1.0750 -0.1892
   65CHL1  H18B 7245   2.441   6.958   8.894  0.7986 -2.1640 -0.7759
   65CHL1  H18C 7246   2.592   6.857   8.932 -0.1845  0.3288  0.9773
   65CHL1   C12 7247   2.723   7.049   9.070 -0.0504 -0.4546 -0.1886
   65CHL1  H12A 7248   2.787   6.963   9.040  1.1243  0.7006 -1.0685
   65CHL1  H12B 7249   2.783   7.140   9.049  0.1349 -0.5767 -0.1942
   65CHL1   C11 7250   2.669   7.039   9.212 -0.3515 -0.2927 -0.0606
   65CHL1  H11A 7251   2.620   6.940   9.220 -1.0620  0.0205 -0.4628
   65CHL1  H11B 7252   2.761   7.026   9.274  0.8230  1.0179 -1.4870
   65CHL1    C9 7253   2.564   7.155   9.254 -0.5485  0.0237  0.6594
   65CHL1    H9 7254   2.627   7.246   9.241 -0.3477 -0.3784 -1.2870
   65CHL1   C10 7255   2.518   7.151   9.404  0.1322  0.2290 -0.1229
   65CHL1   C19 7256   2.468   7.006   9.442 -0.2189 -0.3231  0.8020
   65CHL1  H19A 7257   2.415   7.002   9.540 -0.8752 -0.7985  0.4368
   65CHL1  H19B 7258   2.397   6.963   9.368 -0.3300 -1.8267  1.7579
   65CHL1  H19C 7259   2.552   6.934   9.453  0.4817  0.8748  3.6688
   65CHL1    C1 7260   2.634   7.204   9.494  0.9353 -0.2761  0.2717
   65CHL1   H1A 7261   2.719   7.141   9.461  1.8814  0.2955  1.5878
   65CHL1   H1B 7262   2.658   7.310   9.472  1.6962 -0.5633 -0.3075
   65CHL1    C2 7263   2.605   7.201   9.639 -0.5357 -0.1716 -0.3842
   65CHL1   H2A 7264   2.686   7.236   9.705  0.0676  0.8591 -1.6564
   65CHL1   H2B 7265   2.580   7.094   9.656 -0.1628 -0.4036 -1.2917
   65CHL1   C20 7266   2.690   7.010   8.720  0.7865  0.2580 -0.0382
   65CHL1   H20 7267   2.609   6.936   8.700 -0.2182  1.2319  0.3514
   65CHL1   C21 7268   2.804   6.932   8.777 -0.1919  0.0617 -0.0347
   65CHL1  H21A 7269   2.846   6.862   8.702  1.8080  1.8763 -0.6544
   65CHL1  H21B 7270   2.780   6.867   8.864  1.6110  1.0851  1.2359
   65CHL1  H21C 7271   2.876   7.009   8.811 -2.6881  1.4209  2.3004
   65CHL1   C22 7272   2.736   7.088   8.590  0.0000  0.6679  0.3733
   65CHL1  H22A 7273   2.657   7.159   8.556 -0.0199  0.9837  1.0755
   65CHL1  H22B 7274   2.827   7.151   8.602  0.4983  0.1658 -0.7235
   65CHL1   C23 7275   2.761   6.985   8.482  0.4700 -0.9188  0.0770
   65CHL1  H23A 7276   2.844   6.913   8.494  0.8607 -0.5653 -0.4879
   65CHL1  H23B 7277   2.665   6.928   8.475 -0.4938  0.6827 -0.0237
   65CHL1   C24 7278   2.790   7.071   8.353  0.2549 -0.5676  0.1788
   65CHL1  H24A 7279   2.774   7.004   8.266  0.9147 -0.3996 -0.0729
   65CHL1  H24B 7280   2.716   7.152   8.336  0.2218 -1.2295 -3.1961
   65CHL1   C25 7281   2.933   7.124   8.332 -0.5559 -0.5354  0.5259
   65CHL1   H25 7282   2.955   7.157   8.436 -1.4360  0.8250  0.2972
   65CHL1   C26 7283   3.033   7.012   8.299 -0.3071  0.5808  0.1864
   65CHL1  H26A 7284   3.024   6.924   8.366 -1.4632  0.5360 -0.0064
   65CHL1  H26B 7285   3.025   6.977   8.194 -3.9989  0.8612  0.3185
   65CHL1  H26C 7286   3.141   7.037   8.302 -0.0061 -0.7592  0.9535
   65CHL1   C27 7287   2.925   7.228   8.217  0.0074 -0.9886  0.2594
   65CHL1  H27A 7288   2.862   7.309   8.259 -0.0418 -0.7142 -0.3420
   65CHL1  H27B 7289   3.025   7.276   8.206  0.2064 -1.7775 -1.6030
   65CHL1  H27C 7290   2.899   7.188   8.117  0.1883  1.4477 -0.7960
   66CHL1    C3 7291   7.019   5.401   9.655  0.5312 -0.2238 -0.8007
   66CHL1    H3 7292   6.936   5.342   9.610  2.3926 -0.2568 -4.3989
   66CHL1    O3 7293   7.020   5.411   9.797  0.7979 -0.5456  0.3838
   66CHL1   H3' 7294   7.110   5.405   9.829  1.5155  1.6877 -1.1073
   66CHL1    C4 7295   7.158   5.349   9.613 -0.4999 -0.1204  0.6070
   66CHL1   H4A 7296   7.229   5.428   9.645 -0.8584  0.9678 -1.2322
   66CHL1   H4B 7297   7.181   5.254   9.665  0.6005 -0.4847 -0.5395
   66CHL1    C5 7298   7.166   5.319   9.464  0.1633 -0.7352  0.1078
   66CHL1    C6 7299   7.198   5.196   9.420 -0.4297 -0.4567  0.7910
   66CHL1    H6 7300   7.210   5.115   9.493  1.1034 -1.0983 -0.1455
   66CHL1    C7 7301   7.214   5.169   9.269  0.2170  0.0661 -0.0947
   66CHL1   H7A 7302   7.320   5.138   9.265  0.3985  0.6546  0.1694
   66CHL1   H7B 7303   7.148   5.090   9.226  0.5135 -0.9055  1.1917
   66CHL1    C8 7304   7.205   5.296   9.180  0.2582 -0.2743 -0.1724
   66CHL1    H8 7305   7.309   5.336   9.178  0.4376 -0.7766 -2.1838
   66CHL1   C14 7306   7.158   5.260   9.037 -0.0179 -0.2783  0.5631
   66CHL1   H14 7307   7.062   5.209   9.056 -0.6881  0.5246 -0.6416
   66CHL1   C15 7308   7.238   5.146   8.967 -0.0604  0.0158  0.3997
   66CHL1  H15A 7309   7.347   5.150   8.987 -0.0052 -2.1443  0.6656
   66CHL1  H15B 7310   7.198   5.048   8.999 -3.7417  0.7400 -1.7194
   66CHL1   C16 7311   7.210   5.173   8.814 -0.4135  0.9065 -0.2588
   66CHL1  H16A 7312   7.307   5.203   8.768  0.0307  1.5048  1.0201
   66CHL1  H16B 7313   7.184   5.082   8.757 -1.6160  1.1420 -0.1027
   66CHL1   C17 7314   7.112   5.290   8.809  0.3762 -0.3675 -0.5314
   66CHL1   H17 7315   7.013   5.247   8.833  0.7890 -1.2948 -0.4394
   66CHL1   C13 7316   7.146   5.372   8.932  0.4221 -0.6803  0.7654
   66CHL1   C18 7317   7.279   5.439   8.933  0.6495  0.0717 -0.5196
   66CHL1  H18A 7318   7.361   5.373   8.900  1.6340  2.0424 -2.1199
   66CHL1  H18B 7319   7.270   5.531   8.871 -1.4876  1.6224  1.9496
   66CHL1  H18C 7320   7.302   5.473   9.037  0.2031 -0.2868 -0.3009
   66CHL1   C12 7321   7.035   5.464   8.992 -0.8970  0.1577  0.7403
   66CHL1  H12A 7322   7.033   5.561   8.938  1.6860  0.4528  1.1038
   66CHL1  H12B 7323   6.934   5.418   8.991 -0.9672  0.3226  0.2626
   66CHL1   C11 7324   7.068   5.514   9.137  0.4516  0.3597  0.6529
   66CHL1  H11A 7325   7.146   5.593   9.132 -0.0521  0.7726 -1.0935
   66CHL1  H11B 7326   6.974   5.562   9.172 -0.2169 -0.6741  0.3075
   66CHL1    C9 7327   7.102   5.393   9.231  0.4850  0.6537  0.3208
   66CHL1    H9 7328   7.010   5.330   9.226  1.4787 -0.6645 -1.7045
   66CHL1   C10 7329   7.129   5.443   9.380  0.2567 -0.0007 -0.2951
   66CHL1   C19 7330   7.249   5.543   9.377 -0.7638 -1.3264 -1.2042
   66CHL1  H19A 7331   7.232   5.634   9.316  0.9866  0.8277  1.4138
   66CHL1  H19B 7332   7.274   5.584   9.477  1.7848  1.6663 -2.9616
   66CHL1  H19C 7333   7.339   5.505   9.323  0.3551  0.1711 -0.4354
   66CHL1    C1 7334   7.003   5.517   9.436  0.2091  0.0042  0.2385
   66CHL1   H1A 7335   6.992   5.607   9.372  1.6654 -1.0714 -1.5789
   66CHL1   H1B 7336   6.912   5.454   9.425  1.0508 -1.1075 -0.5660
   66CHL1    C2 7337   7.007   5.541   9.586 -0.0266  0.3364  0.3734
   66CHL1   H2A 7338   6.924   5.602   9.628  2.0370  2.4609  1.4801
   66CHL1   H2B 7339   7.099   5.595   9.617  0.3296  0.4440 -0.8700
   66CHL1   C20 7340   7.104   5.345   8.670 -0.4427 -0.1782  0.7647
   66CHL1   H20 7341   7.199   5.389   8.634  1.2902 -2.3069  2.5218
   66CHL1   C21 7342   6.982   5.430   8.664 -0.5511 -0.2251  0.3438
   66CHL1  H21A 7343   6.903   5.379   8.723 -0.0556  0.7291  1.8696
   66CHL1  H21B 7344   6.950   5.436   8.558  2.5052 -2.3154 -0.7680
   66CHL1  H21C 7345   6.986   5.535   8.700 -1.5555  0.1890 -0.7439
   66CHL1   C22 7346   7.090   5.231   8.563 -0.1055  0.5962  0.0939
   66CHL1  H22A 7347   7.164   5.151   8.584  0.3608  0.3362 -2.3942
   66CHL1  H22B 7348   6.987   5.191   8.575 -0.5393  1.8522  0.6763
   66CHL1   C23 7349   7.123   5.272   8.414 -0.3357  0.5135  0.6668
   66CHL1  H23A 7350   7.071   5.369   8.400 -0.3166  0.6674  1.6073
   66CHL1  H23B 7351   7.232   5.296   8.412 -0.1921 -0.1335 -3.1106
   66CHL1   C24 7352   7.080   5.173   8.312  0.3952  0.1852  1.4664
   66CHL1  H24A 7353   7.121   5.205   8.214 -2.9143 -0.9646 -0.3758
   66CHL1  H24B 7354   7.136   5.077   8.318 -0.4454 -0.3228  1.3007
   66CHL1   C25 7355   6.927   5.156   8.289  0.2229  0.7211  0.2100
   66CHL1   H25 7356   6.890   5.102   8.379  1.8225 -0.4536  0.1759
   66CHL1   C26 7357   6.854   5.290   8.275  0.7173  0.3476  0.1677
   66CHL1  H26A 7358   6.918   5.344   8.201 -0.1234  2.5931  1.0294
   66CHL1  H26B 7359   6.749   5.295   8.239  0.6559  0.3075  0.3399
   66CHL1  H26C 7360   6.848   5.352   8.367 -1.6315 -0.1442  0.3677
   66CHL1   C27 7361   6.916   5.071   8.161  0.2000  0.4540 -0.1807
   66CHL1  H27A 7362   6.987   4.986   8.163 -0.8951 -0.4496  1.4094
   66CHL1  H27B 7363   6.809   5.042   8.151 -0.7173  4.3139 -2.6754
   66CHL1  H27C 7364   6.944   5.134   8.074 -1.4098  0.0669 -0.9866
   67CHL1    C3 7365   5.952   0.006   9.822 -0.0941 -0.4668 -0.4603
   67CHL1    H3 7366   5.906   0.083   9.756 -0.1731 -1.3368 -1.4341
   67CHL1    O3 7367   5.904   0.019   9.957 -0.3451  0.1544  0.4947
   67CHL1   H3' 7368   5.845   0.093   9.946  0.7213  1.2590  1.9661
   67CHL1    C4 7369   5.912  -0.131   9.768  0.3938 -0.0977 -0.6476
   67CHL1   H4A 7370   5.952  -0.211   9.834 -3.7549 -1.0854  0.8591
   67CHL1   H4B 7371   5.803  -0.145   9.783  0.9265 -1.0429  2.6349
   67CHL1    C5 7372   5.958  -0.164   9.631 -0.0265 -0.0050  0.0069
   67CHL1    C6 7373   5.877  -0.203   9.531  0.8329 -0.2784 -0.3441
   67CHL1    H6 7374   5.769  -0.207   9.554  0.6153 -2.3558 -1.6606
   67CHL1    C7 7375   5.928  -0.215   9.391  1.0566 -0.0778  0.6300
   67CHL1   H7A 7376   5.875  -0.299   9.341 -0.8355  1.1156  0.5879
   67CHL1   H7B 7377   5.900  -0.135   9.320 -0.8083 -2.2886 -1.2157
   67CHL1    C8 7378   6.083  -0.218   9.369  0.3973 -0.0904 -0.4394
   67CHL1    H8 7379   6.118  -0.318   9.403  1.4688  0.5192  0.2658
   67CHL1   C14 7380   6.130  -0.195   9.222 -0.6743 -0.5138  0.3427
   67CHL1   H14 7381   6.078  -0.102   9.189  2.1932  0.3812 -1.7950
   67CHL1   C15 7382   6.076  -0.293   9.117  0.4705  0.2507  0.8438
   67CHL1  H15A 7383   6.108  -0.396   9.144 -0.0087 -0.1568 -0.1247
   67CHL1  H15B 7384   5.970  -0.273   9.092  0.9876 -0.0784 -1.7987
   67CHL1   C16 7385   6.149  -0.264   8.985  0.2734 -0.2488 -0.1103
   67CHL1  H16A 7386   6.179  -0.363   8.945  1.0468  0.3900 -1.1187
   67CHL1  H16B 7387   6.081  -0.225   8.906  0.5943  0.1630 -0.1882
   67CHL1   C17 7388   6.269  -0.173   9.033  0.0111  0.2644 -0.5196
   67CHL1   H17 7389   6.239  -0.068   9.016 -3.0781 -0.2082  1.5150
   67CHL1   C13 7390   6.282  -0.184   9.190  0.1059  0.0197 -0.4447
   67CHL1   C18 7391   6.347  -0.313   9.232 -0.8810 -0.0053 -0.3961
   67CHL1  H18A 7392   6.330  -0.335   9.340  0.7835 -1.3031 -0.3683
   67CHL1  H18B 7393   6.312  -0.400   9.171  1.7239 -1.6687  0.3862
   67CHL1  H18C 7394   6.457  -0.309   9.222 -0.9040 -0.6029 -0.9257
   67CHL1   C12 7395   6.323  -0.059   9.271  0.1509 -0.1710 -0.0565
   67CHL1  H12A 7396   6.432  -0.043   9.253  0.0082  1.5554  0.5569
   67CHL1  H12B 7397   6.261   0.025   9.233  0.6483  0.1955 -0.0648
   67CHL1   C11 7398   6.293  -0.084   9.423 -0.3741 -0.0492 -0.1561
   67CHL1  H11A 7399   6.353  -0.174   9.446 -2.1623 -1.4322 -0.8317
   67CHL1  H11B 7400   6.331   0.003   9.482 -1.6007 -0.3933  1.1778
   67CHL1    C9 7401   6.143  -0.112   9.453  0.3682  0.2573  0.2837
   67CHL1    H9 7402   6.089  -0.019   9.425  0.5035  0.2107 -0.1406
   67CHL1   C10 7403   6.107  -0.130   9.609 -0.5991  0.1257 -0.6247
   67CHL1   C19 7404   6.203  -0.243   9.661  0.2689 -0.9486  0.5249
   67CHL1  H19A 7405   6.182  -0.332   9.597  0.4630 -0.3364 -0.3926
   67CHL1  H19B 7406   6.311  -0.219   9.652 -0.4139  2.3019  0.6508
   67CHL1  H19C 7407   6.171  -0.276   9.762 -4.5759 -0.3778 -0.6822
   67CHL1    C1 7408   6.159   0.012   9.678 -0.6951 -0.0275 -0.1146
   67CHL1   H1A 7409   6.270   0.018   9.674 -0.4784 -2.3676  1.3438
   67CHL1   H1B 7410   6.130   0.094   9.609  2.3996 -1.0625 -2.7911
   67CHL1    C2 7411   6.103   0.027   9.819  0.2405 -0.0044  0.1367
   67CHL1   H2A 7412   6.124   0.124   9.869  3.9685  0.4917 -2.1834
   67CHL1   H2B 7413   6.155  -0.052   9.876  2.1773 -0.5618 -2.3236
   67CHL1   C20 7414   6.391  -0.199   8.952 -0.7120 -0.1187  0.3540
   67CHL1   H20 7415   6.433  -0.300   8.973 -1.1722 -0.8846 -2.2181
   67CHL1   C21 7416   6.505  -0.100   8.998 -0.7299 -0.0568 -0.4947
   67CHL1  H21A 7417   6.531  -0.122   9.104  0.3936  2.9839 -0.1023
   67CHL1  H21B 7418   6.468   0.003   8.984  1.2346  0.7037 -0.2528
   67CHL1  H21C 7419   6.605  -0.117   8.952 -0.9834 -1.6728 -0.4783
   67CHL1   C22 7420   6.378  -0.197   8.795  0.7434 -0.5559  0.6683
   67CHL1  H22A 7421   6.284  -0.243   8.756  0.0155 -0.0828  1.8445
   67CHL1  H22B 7422   6.365  -0.089   8.773 -1.1975 -0.8155  0.4218
   67CHL1   C23 7423   6.504  -0.249   8.733 -0.1784  0.5825 -0.3603
   67CHL1  H23A 7424   6.494  -0.226   8.625 -2.7950 -0.0444 -0.2819
   67CHL1  H23B 7425   6.603  -0.204   8.759  0.3482 -1.5420  1.5167
   67CHL1   C24 7426   6.522  -0.403   8.741 -0.3537 -0.2112 -0.8586
   67CHL1  H24A 7427   6.610  -0.441   8.685  0.2238  0.8455 -0.6791
   67CHL1  H24B 7428   6.538  -0.438   8.846 -0.2886  0.1658 -0.7425
   67CHL1   C25 7429   6.405  -0.488   8.680  0.5234  0.4267 -0.0262
   67CHL1   H25 7430   6.309  -0.450   8.720  0.9945  3.2720 -1.4657
   67CHL1   C26 7431   6.412  -0.488   8.521  0.3120 -0.1691  0.1633
   67CHL1  H26A 7432   6.386  -0.387   8.485 -0.1296 -1.0074 -1.9233
   67CHL1  H26B 7433   6.513  -0.507   8.480  0.8080  0.5421  1.0401
   67CHL1  H26C 7434   6.344  -0.566   8.479 -1.7671  1.3124  0.7068
   67CHL1   C27 7435   6.417  -0.637   8.726 -0.5769 -0.5303  0.2725
   67CHL1  H27A 7436   6.391  -0.655   8.833 -2.1237 -2.6167 -0.4220
   67CHL1  H27B 7437   6.346  -0.705   8.675  0.3024 -0.8590 -0.5167
   67CHL1  H27C 7438   6.518  -0.677   8.703  0.5345 -0.2192  4.2435
   68CHL1    C3 7439   0.616   0.285   9.663  0.1106 -0.5256 -1.6125
   68CHL1    H3 7440   0.721   0.317   9.652  0.9066 -2.7524 -0.8794
   68CHL1    O3 7441   0.597   0.240   9.796 -0.1287  0.3207 -0.0705
   68CHL1   H3' 7442   0.636   0.304   9.856  0.9959 -0.4284  0.0082
   68CHL1    C4 7443   0.523   0.401   9.641  0.2159  0.0216 -0.0016
   68CHL1   H4A 7444   0.429   0.376   9.693  1.1114  0.2123  1.7411
   68CHL1   H4B 7445   0.569   0.484   9.699  0.2322  0.7149 -0.9999
   68CHL1    C5 7446   0.499   0.444   9.502  0.0592 -0.8152  0.0983
   68CHL1    C6 7447   0.512   0.574   9.463 -0.0972  0.3251 -0.4759
   68CHL1    H6 7448   0.547   0.646   9.538 -0.6123  0.4035 -0.3070
   68CHL1    C7 7449   0.486   0.624   9.322 -0.3816 -0.1284 -0.3182
   68CHL1   H7A 7450   0.427   0.718   9.334 -1.5047 -0.6732 -1.4787
   68CHL1   H7B 7451   0.585   0.657   9.282  0.3731 -0.3030  1.3601
   68CHL1    C8 7452   0.420   0.516   9.232 -0.3492  0.3800  0.2712
   68CHL1    H8 7453   0.311   0.520   9.252 -0.5166 -0.7855 -0.3558
   68CHL1   C14 7454   0.445   0.558   9.091 -0.4206  0.5852 -0.0455
   68CHL1   H14 7455   0.554   0.563   9.072 -0.5447 -0.6574 -1.1274
   68CHL1   C15 7456   0.413   0.702   9.048  0.3528  0.6225  0.0293
   68CHL1  H15A 7457   0.314   0.726   9.093  0.5353 -1.5281  1.6634
   68CHL1  H15B 7458   0.495   0.766   9.088  1.1149  1.0350 -2.1137
   68CHL1   C16 7459   0.408   0.696   8.894 -0.3380  0.1155 -0.5091
   68CHL1  H16A 7460   0.308   0.739   8.872  1.3463  2.9927 -2.8481
   68CHL1  H16B 7461   0.483   0.761   8.844  1.4954 -2.1312 -0.7643
   68CHL1   C17 7462   0.421   0.546   8.857 -0.1694 -0.6983  0.0802
   68CHL1   H17 7463   0.532   0.537   8.855  0.0438  1.3520  1.4036
   68CHL1   C13 7464   0.386   0.466   8.984  0.1650 -0.2498 -0.5387
   68CHL1   C18 7465   0.229   0.467   8.993  0.5170  0.2050 -0.5291
   68CHL1  H18A 7466   0.195   0.446   9.096 -0.6056  3.6050 -0.1560
   68CHL1  H18B 7467   0.188   0.566   8.963  0.4221  0.6025  0.8796
   68CHL1  H18C 7468   0.186   0.386   8.930  2.1916 -2.5290  1.7100
   68CHL1   C12 7469   0.444   0.319   9.004  0.0663 -0.4089 -0.0028
   68CHL1  H12A 7470   0.406   0.243   8.933 -1.7928  0.5027 -0.0247
   68CHL1  H12B 7471   0.554   0.332   8.991  0.3533 -3.0892 -0.4311
   68CHL1   C11 7472   0.419   0.270   9.144  0.4358 -0.3323 -0.6618
   68CHL1  H11A 7473   0.310   0.251   9.159  0.6238 -0.8581  0.1005
   68CHL1  H11B 7474   0.477   0.177   9.165  0.1614 -0.3058  0.2393
   68CHL1    C9 7475   0.466   0.372   9.252 -0.3782  0.1291 -1.2241
   68CHL1    H9 7476   0.574   0.383   9.225  0.5031  1.5543  2.5858
   68CHL1   C10 7477   0.467   0.326   9.404  0.5624 -0.0247  0.9827
   68CHL1   C19 7478   0.322   0.274   9.434  0.3247 -0.2044  0.6412
   68CHL1  H19A 7479   0.284   0.177   9.396 -1.0276  0.2046  0.9419
   68CHL1  H19B 7480   0.306   0.266   9.544 -2.4229 -3.2559  0.1176
   68CHL1  H19C 7481   0.247   0.352   9.411  1.6194  1.0071  0.4674
   68CHL1    C1 7482   0.571   0.208   9.426  1.3305  0.6556  0.6399
   68CHL1   H1A 7483   0.543   0.121   9.363 -1.1830  1.9316 -0.0878
   68CHL1   H1B 7484   0.666   0.250   9.386  0.8107  0.8751 -0.3954
   68CHL1    C2 7485   0.579   0.166   9.577  0.2311  0.1473 -0.2887
   68CHL1   H2A 7486   0.653   0.084   9.592 -2.2242 -2.2937 -1.1347
   68CHL1   H2B 7487   0.478   0.127   9.601  0.3386  0.5612  0.8271
   68CHL1   C20 7488   0.359   0.514   8.722  0.7042 -0.2777  0.5306
   68CHL1   H20 7489   0.249   0.534   8.725  0.6880 -0.4297  0.9659
   68CHL1   C21 7490   0.392   0.370   8.688 -0.5612  0.2471 -0.5980
   68CHL1  H21A 7491   0.319   0.316   8.752  0.7951 -0.3769  0.4486
   68CHL1  H21B 7492   0.497   0.343   8.713 -0.9473 -0.5492  0.2029
   68CHL1  H21C 7493   0.356   0.354   8.584 -1.4693 -0.4664 -0.1891
   68CHL1   C22 7494   0.415   0.615   8.618  0.3434  0.1400 -0.0284
   68CHL1  H22A 7495   0.382   0.580   8.518  2.1970  0.0220 -0.5990
   68CHL1  H22B 7496   0.367   0.716   8.628 -0.2162  0.0526 -1.6520
   68CHL1   C23 7497   0.570   0.623   8.607 -0.2498 -0.1274 -1.0148
   68CHL1  H23A 7498   0.596   0.714   8.666  0.8051 -2.1290  1.7353
   68CHL1  H23B 7499   0.621   0.537   8.655  1.0776  0.5614 -1.1719
   68CHL1   C24 7500   0.625   0.629   8.469 -0.4497  0.0425  0.3871
   68CHL1  H24A 7501   0.573   0.573   8.389 -0.2972  0.1169  0.2362
   68CHL1  H24B 7502   0.621   0.734   8.434 -0.1603 -0.1458 -0.2265
   68CHL1   C25 7503   0.764   0.572   8.455  0.1323  0.2362  0.0127
   68CHL1   H25 7504   0.815   0.581   8.553  0.5741 -2.1778  0.0538
   68CHL1   C26 7505   0.765   0.422   8.409  0.7552 -0.2462  0.7726
   68CHL1  H26A 7506   0.765   0.418   8.298  3.1488 -1.7462  0.7998
   68CHL1  H26B 7507   0.863   0.378   8.436  1.9009  3.1287  2.4433
   68CHL1  H26C 7508   0.678   0.360   8.441  0.2342 -0.4572 -0.9914
   68CHL1   C27 7509   0.846   0.662   8.362  0.1083 -0.2596  0.2280
   68CHL1  H27A 7510   0.801   0.680   8.261  1.8490 -1.2345 -0.7420
   68CHL1  H27B 7511   0.863   0.757   8.416  1.3076 -0.4982  0.2662
   68CHL1  H27C 7512   0.945   0.613   8.349  1.0102  0.7969  2.9217
   69CHL1    C3 7513   3.906   4.582   6.299  0.5792 -0.4259  0.7253
   69CHL1    H3 7514   3.816   4.644   6.313 -0.0200 -1.0005 -0.4750
   69CHL1    O3 7515   3.928   4.568   6.163  0.2092 -0.1084 -0.1005
   69CHL1   H3' 7516   3.997   4.503   6.146  1.3356  0.8135  0.9162
   69CHL1    C4 7517   4.022   4.660   6.364  0.2880  0.0784  0.6137
   69CHL1   H4A 7518   4.120   4.616   6.338 -1.0983 -1.7017 -1.7273
   69CHL1   H4B 7519   4.027   4.759   6.312  1.9652 -1.3135 -1.9620
   69CHL1    C5 7520   4.003   4.674   6.512  0.4463  0.0257  0.0314
   69CHL1    C6 7521   3.994   4.802   6.562 -0.0293  0.0039  0.2768
   69CHL1    H6 7522   4.005   4.886   6.491 -0.1181 -0.8811 -0.8012
   69CHL1    C7 7523   3.986   4.838   6.709  0.2241  0.0905  0.5713
   69CHL1   H7A 7524   4.069   4.899   6.750  0.3317 -1.0024  2.0039
   69CHL1   H7B 7525   3.886   4.884   6.724 -0.1580  0.0246 -1.6171
   69CHL1    C8 7526   4.001   4.710   6.793  0.1333  0.0771 -0.2398
   69CHL1    H8 7527   4.105   4.671   6.802  0.1162  0.3867  1.7513
   69CHL1   C14 7528   3.949   4.744   6.937  0.7211  0.5107  0.2251
   69CHL1   H14 7529   3.843   4.775   6.927  0.7779  0.0684 -2.1799
   69CHL1   C15 7530   3.999   4.867   7.017 -0.1215 -0.4727  0.7717
   69CHL1  H15A 7531   4.109   4.858   7.015 -0.0179  0.7638  0.7694
   69CHL1  H15B 7532   3.966   4.960   6.966  0.2136 -1.3807 -1.1494
   69CHL1   C16 7533   3.958   4.845   7.169  0.3224  0.2665  0.0912
   69CHL1  H16A 7534   4.048   4.848   7.234  0.0369 -0.1825  0.5128
   69CHL1  H16B 7535   3.887   4.925   7.201  0.0362  0.1455 -0.2442
   69CHL1   C17 7536   3.889   4.701   7.166 -0.4765  0.0881 -0.5103
   69CHL1   H17 7537   3.782   4.728   7.148 -0.2108  0.8654 -0.9388
   69CHL1   C13 7538   3.935   4.631   7.041  0.5044  0.6143 -0.8123
   69CHL1   C18 7539   4.075   4.573   7.063 -0.9029  0.7590  0.1317
   69CHL1  H18A 7540   4.145   4.648   7.106  0.7414 -0.3943 -0.4577
   69CHL1  H18B 7541   4.063   4.491   7.136 -0.9114  1.2695  0.7081
   69CHL1  H18C 7542   4.126   4.528   6.975 -0.6860  1.6847 -0.2274
   69CHL1   C12 7543   3.842   4.520   6.978 -0.2441  0.0630  1.0683
   69CHL1  H12A 7544   3.816   4.444   7.055 -0.7424  0.2665  1.1000
   69CHL1  H12B 7545   3.748   4.573   6.953  1.6891  2.2526 -1.9149
   69CHL1   C11 7546   3.893   4.471   6.839  1.1378 -0.5158  0.1276
   69CHL1  H11A 7547   3.991   4.420   6.855  0.2350 -1.8946  1.3755
   69CHL1  H11B 7548   3.823   4.390   6.810 -0.5676  0.0061  2.6374
   69CHL1    C9 7549   3.920   4.594   6.736  0.8998  0.3031 -0.5067
   69CHL1    H9 7550   3.820   4.636   6.715  0.4015 -0.4332  0.3363
   69CHL1   C10 7551   3.972   4.553   6.597  0.5635 -0.6983 -0.2491
   69CHL1   C19 7552   4.095   4.469   6.621 -0.2181 -0.3683 -0.2300
   69CHL1  H19A 7553   4.072   4.369   6.663  0.1942 -1.2513 -2.0284
   69CHL1  H19B 7554   4.146   4.446   6.525 -0.9274  2.5518 -1.3263
   69CHL1  H19C 7555   4.178   4.511   6.683 -1.5208 -0.5776  1.6943
   69CHL1    C1 7556   3.868   4.465   6.528  0.2225  0.1573  0.1046
   69CHL1   H1A 7557   3.854   4.372   6.588  0.3511  0.7398  1.0382
   69CHL1   H1B 7558   3.772   4.519   6.541 -0.4459 -1.5051  2.4480
   69CHL1    C2 7559   3.884   4.447   6.371  0.3253  0.2544 -0.2297
   69CHL1   H2A 7560   3.806   4.387   6.320  1.0233 -1.5264  0.7587
   69CHL1   H2B 7561   3.967   4.378   6.345  1.0789  0.8637  0.5368
   69CHL1   C20 7562   3.900   4.629   7.307  0.4441  0.7665 -0.5297
   69CHL1   H20 7563   4.005   4.595   7.317  0.8084  1.2198 -2.4813
   69CHL1   C21 7564   3.818   4.506   7.326  0.2194  0.0704  0.2711
   69CHL1  H21A 7565   3.815   4.462   7.428  0.6797 -1.8766 -0.5282
   69CHL1  H21B 7566   3.857   4.421   7.267 -2.1013 -1.6434  1.1159
   69CHL1  H21C 7567   3.714   4.522   7.288  0.3271  1.7843  0.6535
   69CHL1   C22 7568   3.880   4.736   7.422  0.9868  0.2258 -0.2453
   69CHL1  H22A 7569   3.883   4.672   7.513 -0.4680  0.4639 -0.0163
   69CHL1  H22B 7570   3.969   4.802   7.425  1.4294 -0.4079  1.3789
   69CHL1   C23 7571   3.744   4.805   7.410 -0.6838 -0.4612  0.5870
   69CHL1  H23A 7572   3.740   4.878   7.326 -3.9657 -2.0215 -0.7048
   69CHL1  H23B 7573   3.670   4.732   7.373 -1.2157  1.5665 -2.5646
   69CHL1   C24 7574   3.696   4.876   7.532  0.0285  0.9526  0.1515
   69CHL1  H24A 7575   3.587   4.896   7.531 -0.1115  0.2045 -1.2563
   69CHL1  H24B 7576   3.713   4.804   7.614 -1.1396  0.4718 -0.0236
   69CHL1   C25 7577   3.772   5.012   7.565 -0.4410  0.3426  0.5748
   69CHL1   H25 7578   3.882   4.993   7.564 -0.1514  1.7283  2.5461
   69CHL1   C26 7579   3.736   5.126   7.464  0.2419  0.3691 -0.1874
   69CHL1  H26A 7580   3.770   5.103   7.361 -2.7823  0.5016 -1.2755
   69CHL1  H26B 7581   3.625   5.136   7.461  0.1418 -0.6723 -0.3489
   69CHL1  H26C 7582   3.789   5.216   7.500 -1.3326  1.0406  0.4800
   69CHL1   C27 7583   3.732   5.046   7.707  0.6107  0.4828  0.3015
   69CHL1  H27A 7584   3.781   5.136   7.752 -0.7662  1.1240  0.5336
   69CHL1  H27B 7585   3.621   5.053   7.712  0.4325 -1.8387  0.2520
   69CHL1  H27C 7586   3.756   4.955   7.767 -2.8891 -1.6850 -1.4728
   70CHL1    C3 7587   4.187   2.816   6.305  0.0887  0.0571  0.7127
   70CHL1    H3 7588   4.294   2.846   6.308 -0.1523  0.8706  1.2504
   70CHL1    O3 7589   4.139   2.828   6.175  0.2618 -0.3839 -0.2994
   70CHL1   H3' 7590   4.121   2.922   6.168 -0.3169 -0.3929  0.8187
   70CHL1    C4 7591   4.173   2.669   6.353  0.1843 -0.0598 -0.3621
   70CHL1   H4A 7592   4.066   2.640   6.354  0.3480 -0.6579  0.4929
   70CHL1   H4B 7593   4.224   2.608   6.276  1.2560 -0.2965  0.5175
   70CHL1    C5 7594   4.236   2.647   6.488 -0.2417 -0.2964  0.6459
   70CHL1    C6 7595   4.333   2.554   6.495  0.8028  0.0349 -0.0402
   70CHL1    H6 7596   4.358   2.482   6.416  0.2841 -0.4864  0.2654
   70CHL1    C7 7597   4.403   2.532   6.622 -0.9057 -0.8138  0.2718
   70CHL1   H7A 7598   4.410   2.421   6.635  1.7612 -0.5674  1.2828
   70CHL1   H7B 7599   4.511   2.554   6.607 -1.1651  0.3718  0.1008
   70CHL1    C8 7600   4.335   2.601   6.745 -0.3914 -0.0011 -0.1109
   70CHL1    H8 7601   4.240   2.547   6.766 -0.4373 -0.5637 -1.6875
   70CHL1   C14 7602   4.425   2.600   6.864 -0.1318 -0.3921  0.6629
   70CHL1   H14 7603   4.513   2.658   6.829 -1.4303  2.7488  2.3825
   70CHL1   C15 7604   4.483   2.466   6.904  0.5363  0.0653  0.3552
   70CHL1  H15A 7605   4.416   2.379   6.884  0.7513 -0.3650  1.4682
   70CHL1  H15B 7606   4.576   2.443   6.848 -0.5602 -1.3364 -0.9256
   70CHL1   C16 7607   4.541   2.484   7.046  0.7614 -0.6353  0.5093
   70CHL1  H16A 7608   4.505   2.410   7.120 -0.4737  0.0914  0.6584
   70CHL1  H16B 7609   4.651   2.478   7.049  0.7631 -0.8145  0.1247
   70CHL1   C17 7610   4.490   2.628   7.089  1.0068 -0.3746  0.1259
   70CHL1   H17 7611   4.571   2.689   7.045 -1.8022  2.1970 -1.6712
   70CHL1   C13 7612   4.373   2.669   6.989  0.5078  0.1208  0.3097
   70CHL1   C18 7613   4.241   2.590   7.023  0.3134  0.6827 -0.2385
   70CHL1  H18A 7614   4.254   2.479   7.020 -2.8209  0.2941 -1.0365
   70CHL1  H18B 7615   4.201   2.619   7.123 -0.0439 -0.5358 -0.0162
   70CHL1  H18C 7616   4.154   2.616   6.959  1.5126 -0.2499 -2.3029
   70CHL1   C12 7617   4.352   2.823   6.955 -0.4178  0.0812  0.7180
   70CHL1  H12A 7618   4.313   2.881   7.042 -0.6784 -1.7945  1.8773
   70CHL1  H12B 7619   4.453   2.858   6.925 -0.7814 -0.3769 -1.1187
   70CHL1   C11 7620   4.262   2.843   6.832 -0.8062  0.5760  0.0505
   70CHL1  H11A 7621   4.155   2.831   6.858 -0.9240  2.8914  0.7588
   70CHL1  H11B 7622   4.260   2.947   6.793  0.9861 -0.1736 -2.1836
   70CHL1    C9 7623   4.297   2.749   6.706 -0.2080 -0.0784  0.1007
   70CHL1    H9 7624   4.389   2.792   6.661 -1.3543  1.8138 -0.4738
   70CHL1   C10 7625   4.194   2.746   6.587 -0.0574  0.3823  0.3745
   70CHL1   C19 7626   4.054   2.695   6.637  0.3719  0.4066 -0.8819
   70CHL1  H19A 7627   4.014   2.764   6.714  2.6750  0.5127  0.2965
   70CHL1  H19B 7628   3.985   2.677   6.553 -0.1423  0.9205 -0.5745
   70CHL1  H19C 7629   4.055   2.597   6.690  1.4587  1.0509  0.3419
   70CHL1    C1 7630   4.176   2.892   6.538 -0.1883  0.0829 -0.2689
   70CHL1   H1A 7631   4.107   2.944   6.607  2.7721  1.4452  1.7695
   70CHL1   H1B 7632   4.277   2.938   6.540  0.3420 -1.0948  1.5489
   70CHL1    C2 7633   4.118   2.911   6.400  0.1344  0.2831 -0.2817
   70CHL1   H2A 7634   4.112   3.015   6.362  3.4232  0.9341  0.8199
   70CHL1   H2B 7635   4.013   2.877   6.410 -0.9820  2.4982 -3.4868
   70CHL1   C20 7636   4.470   2.639   7.244 -0.5156 -0.1613 -0.6671
   70CHL1   H20 7637   4.390   2.570   7.279 -1.0817  2.0123  2.6021
   70CHL1   C21 7638   4.420   2.784   7.272  0.0119 -0.2282 -0.3061
   70CHL1  H21A 7639   4.432   2.804   7.380  0.2024 -1.8982 -0.0105
   70CHL1  H21B 7640   4.316   2.793   7.232 -0.4532 -1.2728  0.6613
   70CHL1  H21C 7641   4.489   2.854   7.219  1.5919  0.2064  2.2134
   70CHL1   C22 7642   4.595   2.593   7.326 -0.2972 -0.4080  0.9826
   70CHL1  H22A 7643   4.613   2.489   7.293 -0.6333 -0.5344  1.1869
   70CHL1  H22B 7644   4.684   2.652   7.296 -0.9352  0.1439  0.1385
   70CHL1   C23 7645   4.585   2.591   7.473 -0.0412 -0.1917  0.3566
   70CHL1  H23A 7646   4.569   2.690   7.520  0.9306  0.0674  0.1550
   70CHL1  H23B 7647   4.500   2.523   7.495  0.7637 -0.9251  1.2726
   70CHL1   C24 7648   4.704   2.525   7.537 -0.5442 -0.0110 -0.6633
   70CHL1  H24A 7649   4.689   2.503   7.645 -2.2373 -0.9749 -1.0745
   70CHL1  H24B 7650   4.709   2.423   7.493 -2.2074 -0.6684  0.6068
   70CHL1   C25 7651   4.841   2.591   7.528 -0.9313 -0.6053  0.3133
   70CHL1   H25 7652   4.870   2.613   7.424 -2.5833 -1.5363 -0.3586
   70CHL1   C26 7653   4.842   2.733   7.588  0.3246  0.2442 -0.1438
   70CHL1  H26A 7654   4.809   2.736   7.694  0.1467 -2.4740 -0.0750
   70CHL1  H26B 7655   4.942   2.781   7.582 -1.2205  3.4609 -0.9743
   70CHL1  H26C 7656   4.769   2.793   7.529 -0.3879 -2.3414 -2.0034
   70CHL1   C27 7657   4.958   2.501   7.580  0.3075  0.6996 -0.1044
   70CHL1  H27A 7658   5.055   2.553   7.560 -0.9469  2.8735 -0.6570
   70CHL1  H27B 7659   4.944   2.487   7.689  1.4462 -1.6201 -0.2336
   70CHL1  H27C 7660   4.958   2.402   7.530  0.5637  0.3571  0.5748
   71CHL1    C3 7661   1.974   3.583   6.345  0.3338 -0.2480  1.0265
   71CHL1    H3 7662   1.868   3.610   6.363  0.1540  0.8114 -1.4782
   71CHL1    O3 7663   1.991   3.567   6.203  0.1822  0.2341  0.1238
   71CHL1   H3' 7664   2.079   3.533   6.183  0.0542  0.0228 -0.0880
   71CHL1    C4 7665   2.079   3.686   6.390 -0.6856 -0.2426  0.2426
   71CHL1   H4A 7666   2.181   3.658   6.357 -0.1338  0.7300  1.0895
   71CHL1   H4B 7667   2.054   3.786   6.350 -1.0864 -1.0690 -1.6334
   71CHL1    C5 7668   2.084   3.698   6.538 -0.1112 -0.5918  0.0207
   71CHL1    C6 7669   2.065   3.818   6.597 -0.2185 -0.0164 -0.0174
   71CHL1    H6 7670   2.049   3.906   6.532 -1.2546  0.6929  1.1596
   71CHL1    C7 7671   2.035   3.829   6.742 -0.1027  0.0166 -0.1685
   71CHL1   H7A 7672   2.064   3.926   6.786  2.7522 -1.1670  0.6689
   71CHL1   H7B 7673   1.931   3.814   6.776  0.3811  1.1470  1.8538
   71CHL1    C8 7674   2.107   3.719   6.826  0.6338 -0.1648 -0.1562
   71CHL1    H8 7675   2.216   3.737   6.827  1.1633 -3.1192 -0.4736
   71CHL1   C14 7676   2.056   3.729   6.968 -0.3465  0.4793  0.7551
   71CHL1   H14 7677   1.947   3.714   6.965 -0.3847 -0.2571  3.8466
   71CHL1   C15 7678   2.082   3.865   7.034 -0.1491 -0.7163 -0.4790
   71CHL1  H15A 7679   2.180   3.904   6.999 -2.1075  1.9407 -3.3642
   71CHL1  H15B 7680   2.020   3.956   7.015  0.1564 -0.3357  0.3195
   71CHL1   C16 7681   2.072   3.832   7.185 -0.6364  0.1449  0.4417
   71CHL1  H16A 7682   2.150   3.886   7.243 -0.6824 -0.9353  1.5400
   71CHL1  H16B 7683   1.972   3.866   7.219 -0.6884  1.2613 -0.8093
   71CHL1   C17 7684   2.078   3.681   7.202 -0.2414 -0.1012 -0.4568
   71CHL1   H17 7685   1.978   3.635   7.216  0.9097 -2.7030 -0.5553
   71CHL1   C13 7686   2.128   3.632   7.061 -0.0827 -0.0252 -0.0868
   71CHL1   C18 7687   2.278   3.653   7.061 -0.7519 -0.5087 -0.4764
   71CHL1  H18A 7688   2.333   3.571   7.111  0.7302  0.3189 -0.7219
   71CHL1  H18B 7689   2.320   3.644   6.959  0.7176  1.5448 -0.1054
   71CHL1  H18C 7690   2.327   3.748   7.093  0.3347 -1.2493  0.0530
   71CHL1   C12 7691   2.087   3.490   7.011 -0.0052 -0.1050 -0.6792
   71CHL1  H12A 7692   2.143   3.411   7.066 -0.4859  0.9860  1.4339
   71CHL1  H12B 7693   1.978   3.475   7.022  0.2141 -1.4204 -0.2250
   71CHL1   C11 7694   2.123   3.463   6.865  0.0494 -0.1776 -0.1048
   71CHL1  H11A 7695   2.233   3.455   6.866 -0.1397 -3.8887 -1.7522
   71CHL1  H11B 7696   2.095   3.360   6.834  1.0227 -0.5254  0.1428
   71CHL1    C9 7697   2.074   3.575   6.771 -0.0369  0.0657 -0.7695
   71CHL1    H9 7698   1.963   3.580   6.775 -0.1005 -2.0608  2.8492
   71CHL1   C10 7699   2.105   3.563   6.620  0.4493 -0.1408  0.5130
   71CHL1   C19 7700   2.251   3.515   6.601  0.3759  0.1423 -0.5207
   71CHL1  H19A 7701   2.319   3.566   6.673 -0.6989 -0.7240  1.1364
   71CHL1  H19B 7702   2.255   3.408   6.629  1.5756 -0.3047 -2.3393
   71CHL1  H19C 7703   2.294   3.519   6.499 -1.7216  0.1475 -1.4417
   71CHL1    C1 7704   2.002   3.461   6.561  0.0731  1.0307 -0.2112
   71CHL1   H1A 7705   2.026   3.362   6.606  1.0551  1.2380 -0.2561
   71CHL1   H1B 7706   1.900   3.493   6.588  0.9247  2.4733  1.3820
   71CHL1    C2 7707   1.999   3.446   6.407 -0.4451 -0.7339  0.3099
   71CHL1   H2A 7708   1.913   3.380   6.382 -1.6102  0.5612  0.8474
   71CHL1   H2B 7709   2.099   3.402   6.384 -0.3838 -1.1916  1.3772
   71CHL1   C20 7710   2.164   3.643   7.326  0.0797  0.0502  0.6638
   71CHL1   H20 7711   2.273   3.664   7.320 -0.2807  1.0858 -2.9191
   71CHL1   C21 7712   2.153   3.494   7.364  0.3512 -0.5354  0.0617
   71CHL1  H21A 7713   2.177   3.423   7.281  1.1397  0.6951 -0.7860
   71CHL1  H21B 7714   2.058   3.475   7.418  0.1317 -2.4681 -0.9471
   71CHL1  H21C 7715   2.221   3.467   7.447  1.4602  0.1389 -0.6128
   71CHL1   C22 7716   2.107   3.719   7.452  0.4396  0.4614 -0.0858
   71CHL1  H22A 7717   2.087   3.825   7.425 -1.6360  0.0385 -0.3309
   71CHL1  H22B 7718   2.003   3.686   7.475  0.4550  0.2369 -0.3399
   71CHL1   C23 7719   2.207   3.713   7.574 -0.4318 -0.4889  0.0819
   71CHL1  H23A 7720   2.231   3.614   7.618  0.4933  0.4885  1.8206
   71CHL1  H23B 7721   2.304   3.757   7.539 -1.2518  0.8570 -0.5474
   71CHL1   C24 7722   2.157   3.801   7.692 -0.3160  0.2880  0.5694
   71CHL1  H24A 7723   2.122   3.896   7.646  1.4117  1.2659  1.2046
   71CHL1  H24B 7724   2.066   3.759   7.739 -0.5038  0.5863  0.4726
   71CHL1   C25 7725   2.256   3.838   7.805  0.4225  0.2867  0.0141
   71CHL1   H25 7726   2.348   3.882   7.761 -1.0321  0.9709 -2.4731
   71CHL1   C26 7727   2.213   3.953   7.891  0.5364  0.1242  0.1752
   71CHL1  H26A 7728   2.130   3.925   7.959  0.0016 -2.0962 -1.3126
   71CHL1  H26B 7729   2.306   3.984   7.942  1.3233 -0.9637 -0.5506
   71CHL1  H26C 7730   2.181   4.035   7.823  1.2989  2.0209  2.0693
   71CHL1   C27 7731   2.298   3.730   7.896  0.6412  1.2970  0.3724
   71CHL1  H27A 7732   2.329   3.757   7.999  1.1158  1.9266  0.0684
   71CHL1  H27B 7733   2.223   3.655   7.926  1.1177  1.5130  2.1267
   71CHL1  H27C 7734   2.393   3.687   7.855  0.3390 -0.6732  1.6814
   72CHL1    C3 7735   4.823   2.750   6.217 -0.6201 -0.6702  0.5591
   72CHL1    H3 7736   4.915   2.776   6.160 -0.0806 -1.5835  1.0068
   72CHL1    O3 7737   4.739   2.669   6.134 -0.6192 -0.2778  0.1809
   72CHL1   H3' 7738   4.799   2.600   6.104  0.4175  0.3251  0.8117
   72CHL1    C4 7739   4.867   2.671   6.341  0.0405  0.0354 -0.1123
   72CHL1   H4A 7740   4.785   2.605   6.376 -1.0521  1.0416 -0.7153
   72CHL1   H4B 7741   4.955   2.611   6.309 -1.1661 -0.8452 -1.8168
   72CHL1    C5 7742   4.910   2.750   6.461  0.6269  0.3226  0.3660
   72CHL1    C6 7743   5.025   2.731   6.527  0.1743 -0.3334  0.3480
   72CHL1    H6 7744   5.103   2.658   6.500  0.5139  1.2592 -3.2822
   72CHL1    C7 7745   5.061   2.817   6.647  0.7494  0.6435 -0.0248
   72CHL1   H7A 7746   5.086   2.743   6.726  0.8609 -0.3831 -1.0030
   72CHL1   H7B 7747   5.146   2.888   6.636  0.3968  1.2440  1.0383
   72CHL1    C8 7748   4.946   2.892   6.717  0.3037 -0.1874 -0.5614
   72CHL1    H8 7749   4.882   2.811   6.758 -0.9393  0.6820 -0.7808
   72CHL1   C14 7750   4.993   2.995   6.825 -0.2466  0.8860 -0.1157
   72CHL1   H14 7751   5.039   3.081   6.772  0.9725  0.5152  0.3283
   72CHL1   C15 7752   5.089   2.937   6.928  0.1488 -0.7760 -0.2784
   72CHL1  H15A 7753   5.054   2.837   6.961  0.7807 -1.1831 -0.8147
   72CHL1  H15B 7754   5.194   2.941   6.891 -0.0303 -1.6636 -0.8860
   72CHL1   C16 7755   5.078   3.040   7.046 -0.1490  0.2999 -0.2343
   72CHL1  H16A 7756   5.067   2.974   7.135 -0.4480  0.7532  0.0653
   72CHL1  H16B 7757   5.168   3.105   7.040  0.1471 -0.0444  0.3995
   72CHL1   C17 7758   4.958   3.134   7.009 -0.4730 -0.3333  0.3736
   72CHL1   H17 7759   5.003   3.218   6.954  1.9898 -0.6304  1.8420
   72CHL1   C13 7760   4.882   3.057   6.900 -0.2419 -0.0590 -0.0385
   72CHL1   C18 7761   4.782   2.956   6.961  0.6318 -0.3843  0.4685
   72CHL1  H18A 7762   4.714   2.892   6.901  1.4214 -0.8479  0.0711
   72CHL1  H18B 7763   4.835   2.901   7.042  1.2848 -1.5696 -0.7607
   72CHL1  H18C 7764   4.712   3.029   7.010 -0.8364 -1.0832 -0.5467
   72CHL1   C12 7765   4.811   3.147   6.806 -0.1677 -0.1547  0.1101
   72CHL1  H12A 7766   4.719   3.179   6.860 -0.3038 -0.5119  0.0929
   72CHL1  H12B 7767   4.873   3.234   6.775 -1.5409  0.7238 -0.2141
   72CHL1   C11 7768   4.769   3.071   6.683  0.2656 -0.2164  0.3927
   72CHL1  H11A 7769   4.676   3.011   6.701  0.4546 -0.3010  1.1073
   72CHL1  H11B 7770   4.745   3.145   6.604  0.9968 -0.5820 -0.1724
   72CHL1    C9 7771   4.868   2.965   6.615 -0.0854  0.7054  1.0204
   72CHL1    H9 7772   4.941   3.027   6.557  0.7780 -1.1819  0.0587
   72CHL1   C10 7773   4.809   2.871   6.496 -0.0328  0.3888  0.0251
   72CHL1   C19 7774   4.679   2.799   6.540  0.0275 -0.4680  0.5153
   72CHL1  H19A 7775   4.604   2.878   6.562 -0.5122 -0.8896  0.2088
   72CHL1  H19B 7776   4.637   2.735   6.460 -1.0695  0.1938  0.5598
   72CHL1  H19C 7777   4.705   2.729   6.623  3.3559 -0.5876 -0.5664
   72CHL1    C1 7778   4.788   2.958   6.370  0.4733  0.0509 -0.3441
   72CHL1   H1A 7779   4.714   3.040   6.387  0.0901 -0.6780  1.6868
   72CHL1   H1B 7780   4.887   3.007   6.356 -0.2846  1.7402  0.0399
   72CHL1    C2 7781   4.741   2.883   6.243  0.1773  0.5212  0.1726
   72CHL1   H2A 7782   4.751   2.944   6.150  1.0287 -1.4770 -1.0976
   72CHL1   H2B 7783   4.635   2.856   6.266  0.6369 -0.6054  1.0134
   72CHL1   C20 7784   4.879   3.192   7.131 -0.2575 -0.4694 -0.4863
   72CHL1   H20 7785   4.774   3.207   7.098 -0.8513  1.6231  2.1023
   72CHL1   C21 7786   4.936   3.331   7.146 -1.1957  0.1178 -0.6175
   72CHL1  H21A 7787   4.913   3.388   7.054  0.7655 -0.7766 -1.7010
   72CHL1  H21B 7788   5.046   3.318   7.154 -1.1903 -1.1086 -2.3656
   72CHL1  H21C 7789   4.899   3.383   7.237  0.5583  0.6915 -0.2061
   72CHL1   C22 7790   4.878   3.109   7.259 -0.2778  0.1253 -0.1469
   72CHL1  H22A 7791   4.842   3.006   7.243 -2.1984  0.5263  1.5054
   72CHL1  H22B 7792   4.982   3.100   7.296  0.3897  1.5241 -1.6296
   72CHL1   C23 7793   4.780   3.173   7.364  0.1872  0.4138 -0.1646
   72CHL1  H23A 7794   4.818   3.266   7.412  2.5017 -1.7176  2.2501
   72CHL1  H23B 7795   4.682   3.175   7.312 -0.5598 -1.9696  1.0545
   72CHL1   C24 7796   4.750   3.075   7.482 -1.0130  0.1213  0.2178
   72CHL1  H24A 7797   4.712   2.980   7.441  0.4633 -0.7526  0.8074
   72CHL1  H24B 7798   4.843   3.050   7.539 -1.0119  1.1029  0.6654
   72CHL1   C25 7799   4.659   3.117   7.595 -0.2447 -0.5381 -0.2108
   72CHL1   H25 7800   4.558   3.129   7.550  0.0943 -1.2170 -1.1713
   72CHL1   C26 7801   4.646   3.009   7.702  0.0176  0.5174 -0.3109
   72CHL1  H26A 7802   4.592   3.061   7.784  0.2089 -3.0845  2.1753
   72CHL1  H26B 7803   4.595   2.916   7.671 -0.1300  0.2649  0.6692
   72CHL1  H26C 7804   4.749   2.981   7.733  0.7235  2.0441 -1.1968
   72CHL1   C27 7805   4.695   3.253   7.664  0.3345  0.4612 -0.6093
   72CHL1  H27A 7806   4.627   3.273   7.750  0.9918  1.9125 -0.4146
   72CHL1  H27B 7807   4.805   3.260   7.679  0.4286 -1.4531 -0.3158
   72CHL1  H27C 7808   4.662   3.329   7.590 -2.2228 -0.5960 -0.6214
   73CHL1    C3 7809   2.975   4.752   6.267 -0.3590 -0.3174 -0.0772
   73CHL1    H3 7810   2.924   4.656   6.243 -0.7458 -0.1651  0.1329
   73CHL1    O3 7811   3.064   4.789   6.160 -0.0415 -0.0041  0.4706
   73CHL1   H3' 7812   3.093   4.878   6.183 -1.9199  0.8535 -0.4227
   73CHL1    C4 7813   2.861   4.853   6.274 -0.0010  0.7507  0.0301
   73CHL1   H4A 7814   2.903   4.956   6.284 -0.6225  1.0189 -0.1021
   73CHL1   H4B 7815   2.806   4.835   6.179  1.7204 -0.2866 -0.8162
   73CHL1    C5 7816   2.775   4.832   6.392 -0.0400 -0.2709  0.1527
   73CHL1    C6 7817   2.643   4.831   6.379 -0.0281 -0.5063  0.1702
   73CHL1    H6 7818   2.595   4.846   6.282  0.2668  1.1713  0.2702
   73CHL1    C7 7819   2.549   4.814   6.494  0.0169  0.1502  0.0791
   73CHL1   H7A 7820   2.462   4.882   6.485 -0.6393 -0.6863 -0.0496
   73CHL1   H7B 7821   2.508   4.711   6.477  2.5665 -1.0935  1.2792
   73CHL1    C8 7822   2.614   4.830   6.632  0.1406 -0.0644 -0.2870
   73CHL1    H8 7823   2.637   4.938   6.645 -2.7843  0.3819  1.6810
   73CHL1   C14 7824   2.519   4.773   6.737  0.2122 -0.4361 -0.0202
   73CHL1   H14 7825   2.522   4.662   6.726  0.2132 -0.4626  0.2598
   73CHL1   C15 7826   2.375   4.813   6.723  0.0883 -0.1995  0.4313
   73CHL1  H15A 7827   2.352   4.921   6.711  1.7229  0.0581 -0.5808
   73CHL1  H15B 7828   2.324   4.749   6.648  0.6001  0.2053 -0.2760
   73CHL1   C16 7829   2.323   4.772   6.865 -0.0310 -0.0372 -0.2015
   73CHL1  H16A 7830   2.275   4.863   6.908 -1.6539 -0.5684 -0.8554
   73CHL1  H16B 7831   2.249   4.689   6.866  0.8435 -0.8159 -0.1727
   73CHL1   C17 7832   2.443   4.743   6.958 -0.2789 -0.3132  0.4812
   73CHL1   H17 7833   2.448   4.632   6.962  0.5059 -0.2897  0.2224
   73CHL1   C13 7834   2.565   4.802   6.880 -0.0457 -0.2517 -0.7049
   73CHL1   C18 7835   2.581   4.954   6.906 -0.6065 -1.0925  0.4055
   73CHL1  H18A 7836   2.644   5.010   6.834 -1.5962 -0.5196 -0.0234
   73CHL1  H18B 7837   2.483   5.006   6.899 -1.9282 -3.7580 -2.0899
   73CHL1  H18C 7838   2.637   4.968   7.001  0.9870 -1.4405 -0.4572
   73CHL1   C12 7839   2.709   4.731   6.893  1.1953 -0.1177  0.2399
   73CHL1  H12A 7840   2.748   4.753   6.995  3.3895  0.5345 -0.7126
   73CHL1  H12B 7841   2.690   4.622   6.898 -3.2967  0.6259  2.4236
   73CHL1   C11 7842   2.811   4.773   6.783 -0.2204  0.0353 -0.1553
   73CHL1  H11A 7843   2.834   4.877   6.814  0.4229  0.4135 -1.8490
   73CHL1  H11B 7844   2.899   4.706   6.786 -0.2205 -0.0944 -2.4210
   73CHL1    C9 7845   2.750   4.762   6.639  0.0893 -0.5936  0.3120
   73CHL1    H9 7846   2.731   4.654   6.620 -0.3585 -0.8041  1.8888
   73CHL1   C10 7847   2.846   4.809   6.526  0.6068  0.6398  0.0207
   73CHL1   C19 7848   2.920   4.943   6.569 -0.0799  0.1389  0.6740
   73CHL1  H19A 7849   2.965   4.994   6.481 -0.4821  0.2302  0.5185
   73CHL1  H19B 7850   2.844   5.019   6.597 -1.5894 -1.2613  0.4486
   73CHL1  H19C 7851   3.003   4.940   6.642  0.0521 -2.7759  0.4536
   73CHL1    C1 7852   2.964   4.710   6.510  0.9660 -0.7569 -0.8812
   73CHL1   H1A 7853   3.033   4.708   6.597  2.4776  3.3972 -1.8555
   73CHL1   H1B 7854   2.915   4.612   6.492  1.8931 -1.3409 -0.3116
   73CHL1    C2 7855   3.061   4.737   6.387 -0.5630  0.0811 -0.4640
   73CHL1   H2A 7856   3.125   4.646   6.377  0.2574  0.8321 -2.2037
   73CHL1   H2B 7857   3.122   4.828   6.401 -1.4217  0.4392  1.1811
   73CHL1   C20 7858   2.425   4.777   7.104  0.0913 -0.0458 -0.2979
   73CHL1   H20 7859   2.422   4.888   7.092 -0.4187  0.0180  0.4254
   73CHL1   C21 7860   2.547   4.741   7.189  0.2782 -0.4895  0.2428
   73CHL1  H21A 7861   2.632   4.812   7.178  0.8518 -1.1768  0.1953
   73CHL1  H21B 7862   2.583   4.643   7.151  3.1800  1.4775 -2.3053
   73CHL1  H21C 7863   2.522   4.724   7.296  0.2052  0.1327  0.3239
   73CHL1   C22 7864   2.290   4.723   7.167  0.4272 -0.1414  0.0216
   73CHL1  H22A 7865   2.292   4.789   7.257  1.5869  0.2747 -0.3047
   73CHL1  H22B 7866   2.200   4.751   7.107  0.1926  0.7984  0.8032
   73CHL1   C23 7867   2.282   4.575   7.192  0.6479 -0.3149  0.5494
   73CHL1  H23A 7868   2.285   4.527   7.092 -0.4608 -1.2241  0.9435
   73CHL1  H23B 7869   2.380   4.546   7.237  1.4543  1.0928 -0.2571
   73CHL1   C24 7870   2.171   4.545   7.288 -0.6864  0.5392 -0.0268
   73CHL1  H24A 7871   2.199   4.582   7.389 -0.6503  1.5953 -0.4191
   73CHL1  H24B 7872   2.081   4.604   7.262  0.1959  2.6181  1.4967
   73CHL1   C25 7873   2.112   4.397   7.307  0.4876 -0.0530 -0.0365
   73CHL1   H25 7874   2.203   4.336   7.325  1.0869  0.4515 -1.3029
   73CHL1   C26 7875   2.020   4.386   7.434 -0.2510 -0.5518  0.3418
   73CHL1  H26A 7876   2.013   4.278   7.458  1.0770 -0.3380  1.7440
   73CHL1  H26B 7877   2.066   4.437   7.521  0.1852 -0.8710  0.2965
   73CHL1  H26C 7878   1.915   4.419   7.417  0.1831  1.3465  1.2127
   73CHL1   C27 7879   2.029   4.341   7.185 -0.0870  0.1085  0.4872
   73CHL1  H27A 7880   2.017   4.231   7.202 -0.5137  0.0370 -0.2792
   73CHL1  H27B 7881   1.924   4.374   7.191  0.0209  0.6569 -0.6144
   73CHL1  H27C 7882   2.077   4.373   7.091  0.1012  0.6478  0.7653
   74CHL1    C3 7883   1.305   4.534   6.198 -0.9722 -0.7918  0.0339
   74CHL1    H3 7884   1.356   4.633   6.204 -0.4562 -1.0269 -0.4291
   74CHL1    O3 7885   1.265   4.510   6.067  0.4099  0.1237 -0.2100
   74CHL1   H3' 7886   1.307   4.429   6.036  1.4206 -0.5266  2.7078
   74CHL1    C4 7887   1.409   4.430   6.244 -0.1802  0.3315  0.4613
   74CHL1   H4A 7888   1.363   4.329   6.231 -0.8149  0.4653  1.5503
   74CHL1   H4B 7889   1.493   4.430   6.172 -0.9193 -0.4602 -0.4093
   74CHL1    C5 7890   1.452   4.442   6.385  0.4429 -0.3009 -0.2324
   74CHL1    C6 7891   1.582   4.445   6.423 -0.2571 -0.3226 -0.3301
   74CHL1    H6 7892   1.657   4.442   6.343  1.3541 -1.8921  1.2109
   74CHL1    C7 7893   1.630   4.445   6.568  0.3188 -0.0169  0.2349
   74CHL1   H7A 7894   1.707   4.370   6.594 -1.1244 -1.2686  0.9752
   74CHL1   H7B 7895   1.682   4.539   6.595  1.5410 -0.3788 -0.8180
   74CHL1    C8 7896   1.518   4.425   6.682  0.0911  0.5512  0.0868
   74CHL1    H8 7897   1.515   4.314   6.688 -1.7869  0.5374 -0.8828
   74CHL1   C14 7898   1.554   4.477   6.821 -0.0757  0.4336 -0.6814
   74CHL1   H14 7899   1.571   4.585   6.802 -1.0822  0.8118  0.4698
   74CHL1   C15 7900   1.690   4.438   6.885  0.2206  0.2662 -0.2004
   74CHL1  H15A 7901   1.687   4.327   6.874  1.8064  0.2091 -0.1569
   74CHL1  H15B 7902   1.780   4.481   6.838  2.0618 -2.8362  0.3206
   74CHL1   C16 7903   1.678   4.483   7.025 -0.1580  0.1241 -0.2641
   74CHL1  H16A 7904   1.727   4.404   7.084 -1.7538  1.2593  2.6882
   74CHL1  H16B 7905   1.728   4.581   7.039 -0.0636 -0.1574  1.4454
   74CHL1   C17 7906   1.530   4.514   7.056  0.0179  0.5439  0.6882
   74CHL1   H17 7907   1.516   4.624   7.048 -0.1739  0.4569 -0.2576
   74CHL1   C13 7908   1.451   4.467   6.933 -0.6290 -0.0331  0.1669
   74CHL1   C18 7909   1.416   4.316   6.952 -1.3615 -0.9306 -0.1383
   74CHL1  H18A 7910   1.510   4.268   6.988 -0.9927  0.0776  0.2627
   74CHL1  H18B 7911   1.342   4.294   7.032 -0.9190 -1.3331  0.1732
   74CHL1  H18C 7912   1.372   4.274   6.859 -0.9887  0.9889 -1.1881
   74CHL1   C12 7913   1.332   4.545   6.890 -0.3877  0.3041  0.9486
   74CHL1  H12A 7914   1.256   4.526   6.968 -2.5480  0.6403 -1.0302
   74CHL1  H12B 7915   1.346   4.655   6.891 -0.3039  0.2951  0.7675
   74CHL1   C11 7916   1.280   4.493   6.753 -0.6700 -0.0433  0.0009
   74CHL1  H11A 7917   1.243   4.389   6.762 -1.2472  0.0274 -1.3785
   74CHL1  H11B 7918   1.199   4.564   6.722 -2.7879 -0.5629  3.9107
   74CHL1    C9 7919   1.384   4.493   6.642  0.0840  0.3683 -0.0447
   74CHL1    H9 7920   1.402   4.602   6.625 -0.8798  0.0866 -3.1697
   74CHL1   C10 7921   1.336   4.459   6.490  0.1874  0.0086  0.4298
   74CHL1   C19 7922   1.265   4.326   6.514  0.3300  0.0831 -0.5887
   74CHL1  H19A 7923   1.327   4.260   6.580 -1.3950  0.5053  1.5129
   74CHL1  H19B 7924   1.166   4.341   6.563  0.6330  0.0438  0.0414
   74CHL1  H19C 7925   1.250   4.279   6.415  1.3353 -2.1975  0.2896
   74CHL1    C1 7926   1.238   4.570   6.445  0.2118 -0.1421 -0.4490
   74CHL1   H1A 7927   1.156   4.573   6.519  1.2349 -0.5760  0.7264
   74CHL1   H1B 7928   1.286   4.670   6.441  0.2743 -0.1937 -0.9744
   74CHL1    C2 7929   1.187   4.549   6.300  0.5878 -0.1403 -0.1948
   74CHL1   H2A 7930   1.134   4.643   6.274 -0.1529 -0.9958 -1.8046
   74CHL1   H2B 7931   1.115   4.466   6.288 -1.5364  2.0504 -3.2961
   74CHL1   C20 7932   1.485   4.480   7.201 -0.1667  0.1823  0.7757
   74CHL1   H20 7933   1.485   4.370   7.186  0.5072 -0.0043  2.0621
   74CHL1   C21 7934   1.348   4.530   7.235 -0.9067 -0.3824  0.0026
   74CHL1  H21A 7935   1.319   4.505   7.339 -0.2523 -3.2257 -0.4524
   74CHL1  H21B 7936   1.286   4.464   7.170 -1.7830  0.0246  0.4146
   74CHL1  H21C 7937   1.330   4.632   7.194  0.6439 -1.3701 -3.2950
   74CHL1   C22 7938   1.588   4.502   7.316  0.5141  0.8986  0.1112
   74CHL1  H22A 7939   1.686   4.481   7.269 -0.3072 -0.2163 -1.1747
   74CHL1  H22B 7940   1.572   4.611   7.333 -1.5444  0.8170 -1.0657
   74CHL1   C23 7941   1.557   4.432   7.446 -1.1614 -0.1462  0.4921
   74CHL1  H23A 7942   1.455   4.455   7.484 -0.9904  0.6128  0.4856
   74CHL1  H23B 7943   1.565   4.322   7.430  0.4369 -0.3082  2.1762
   74CHL1   C24 7944   1.658   4.454   7.553 -0.1704 -0.4747  0.6850
   74CHL1  H24A 7945   1.765   4.438   7.528 -0.1431 -0.6942  0.9407
   74CHL1  H24B 7946   1.657   4.554   7.601  0.1354 -1.2403  2.3001
   74CHL1   C25 7947   1.635   4.355   7.671 -0.0848  0.1457  0.0195
   74CHL1   H25 7948   1.603   4.254   7.640 -1.3525  0.9538 -1.3701
   74CHL1   C26 7949   1.758   4.329   7.760 -0.5167 -0.2732  0.4222
   74CHL1  H26A 7950   1.786   4.419   7.819 -0.8658 -1.1757  1.9731
   74CHL1  H26B 7951   1.743   4.241   7.825  2.3290 -0.6406  0.6523
   74CHL1  H26C 7952   1.850   4.305   7.703 -1.3149  0.8519 -1.3798
   74CHL1   C27 7953   1.518   4.412   7.752  0.4339 -0.1228  0.4021
   74CHL1  H27A 7954   1.537   4.520   7.774  4.5445  0.0418 -3.3103
   74CHL1  H27B 7955   1.428   4.412   7.688 -1.1820  0.1769  2.5983
   74CHL1  H27C 7956   1.493   4.355   7.844  0.2316 -1.3286 -0.3868
   75CHL1    C3 7957   5.035   5.477   6.341  0.3473  0.3214 -0.5103
   75CHL1    H3 7958   5.051   5.585   6.323  0.1386  1.2202  4.1349
   75CHL1    O3 7959   5.047   5.402   6.222 -0.0463  0.4850 -0.1091
   75CHL1   H3' 7960   5.032   5.310   6.246  1.0737 -0.1577 -1.7588
   75CHL1    C4 7961   5.154   5.436   6.434 -0.7513 -0.1665 -0.1087
   75CHL1   H4A 7962   5.162   5.326   6.431 -0.3681 -0.1279 -0.4614
   75CHL1   H4B 7963   5.243   5.475   6.380  0.4864 -1.5383  0.9341
   75CHL1    C5 7964   5.135   5.500   6.570 -0.9246  0.3960 -0.3783
   75CHL1    C6 7965   5.233   5.574   6.616 -0.0077 -0.6821  0.2765
   75CHL1    H6 7966   5.334   5.571   6.571  1.0515  1.4000  2.3630
   75CHL1    C7 7967   5.235   5.656   6.745  0.1350 -0.4234 -0.6204
   75CHL1   H7A 7968   5.332   5.662   6.797  0.3640 -2.4525 -0.7604
   75CHL1   H7B 7969   5.201   5.760   6.729 -1.6343 -0.7497  0.8266
   75CHL1    C8 7970   5.141   5.573   6.838 -0.2229  0.0838  0.6115
   75CHL1    H8 7971   5.183   5.472   6.858 -1.4726 -0.6850 -0.5357
   75CHL1   C14 7972   5.126   5.642   6.971  0.4553 -0.3374 -0.4111
   75CHL1   H14 7973   5.088   5.746   6.957 -1.0889 -0.7194  0.7322
   75CHL1   C15 7974   5.250   5.662   7.054 -1.1695  0.4441  0.7802
   75CHL1  H15A 7975   5.331   5.587   7.041 -0.6449  1.2018 -0.4257
   75CHL1  H15B 7976   5.303   5.755   7.025  2.0112 -1.4019  0.4713
   75CHL1   C16 7977   5.209   5.658   7.199  0.1862  0.0293  0.1014
   75CHL1  H16A 7978   5.242   5.566   7.251 -1.5887 -0.5504  0.2357
   75CHL1  H16B 7979   5.249   5.746   7.254 -0.1660 -0.1245  0.6164
   75CHL1   C17 7980   5.051   5.658   7.197  0.1992 -0.2036 -0.9038
   75CHL1   H17 7981   5.025   5.763   7.170 -1.4757 -0.9571 -2.3338
   75CHL1   C13 7982   5.021   5.576   7.068 -0.1296  0.0669  0.2603
   75CHL1   C18 7983   5.066   5.431   7.095 -0.7057  0.0114 -0.3355
   75CHL1  H18A 7984   4.992   5.375   7.156 -0.0388 -0.3638  0.1427
   75CHL1  H18B 7985   5.074   5.375   6.999 -0.7528 -0.6768  0.0613
   75CHL1  H18C 7986   5.165   5.424   7.146 -1.1322  0.6503  0.5811
   75CHL1   C12 7987   4.883   5.567   7.009 -0.5417 -0.0232 -0.0250
   75CHL1  H12A 7988   4.806   5.513   7.068 -0.0422 -1.2375 -0.4608
   75CHL1  H12B 7989   4.846   5.672   7.008  0.2203  0.2450 -1.2878
   75CHL1   C11 7990   4.881   5.493   6.875  0.1910 -0.6050  0.0868
   75CHL1  H11A 7991   4.892   5.385   6.897  1.6561 -1.0000 -2.4134
   75CHL1  H11B 7992   4.780   5.507   6.832  0.8947 -2.4293 -2.3210
   75CHL1    C9 7993   4.994   5.548   6.775  0.2452  0.0740 -0.0935
   75CHL1    H9 7994   4.959   5.652   6.756 -0.4553  0.0072  0.7668
   75CHL1   C10 7995   4.998   5.477   6.637  0.6630  0.1120  0.2002
   75CHL1   C19 7996   4.997   5.327   6.670 -0.0397 -0.1203  0.4303
   75CHL1  H19A 7997   4.896   5.289   6.694 -0.2699  0.7279  0.8066
   75CHL1  H19B 7998   5.045   5.263   6.593 -0.1284 -2.1879  2.0417
   75CHL1  H19C 7999   5.063   5.314   6.759 -1.2832  0.1486  1.4014
   75CHL1    C1 8000   4.885   5.527   6.541  0.4832  0.2542  0.0856
   75CHL1   H1A 8001   4.785   5.514   6.587  1.0465  0.9602  1.5319
   75CHL1   H1B 8002   4.887   5.636   6.521 -0.2426  0.4502  1.0655
   75CHL1    C2 8003   4.898   5.450   6.407  1.6942  0.6228  0.1447
   75CHL1   H2A 8004   4.819   5.481   6.336  1.4078  1.8025  0.9617
   75CHL1   H2B 8005   4.876   5.344   6.432  0.1247  0.5133 -1.5947
   75CHL1   C20 8006   4.974   5.620   7.328 -0.4715  0.1083 -0.7599
   75CHL1   H20 8007   4.980   5.510   7.342 -0.4869  0.0449 -1.2452
   75CHL1   C21 8008   4.825   5.669   7.317  0.2532 -0.3928 -0.8132
   75CHL1  H21A 8009   4.810   5.768   7.269 -0.6243  0.2430  0.7249
   75CHL1  H21B 8010   4.769   5.681   7.413  1.4043  2.0722 -0.4333
   75CHL1  H21C 8011   4.764   5.589   7.270  0.1136 -0.5223 -0.4162
   75CHL1   C22 8012   5.041   5.668   7.458 -0.2759  0.0909  0.7277
   75CHL1  H22A 8013   5.150   5.653   7.445 -0.6999 -2.3104 -0.4975
   75CHL1  H22B 8014   5.014   5.775   7.463  0.0615  0.2688 -0.9815
   75CHL1   C23 8015   4.994   5.604   7.591 -0.3693 -0.2875 -0.0969
   75CHL1  H23A 8016   4.883   5.608   7.597 -0.2808 -0.5336  2.4460
   75CHL1  H23B 8017   5.024   5.499   7.571 -1.0572 -0.1316 -2.0124
   75CHL1   C24 8018   5.045   5.662   7.722 -0.3460  0.5768 -0.0119
   75CHL1  H24A 8019   5.149   5.650   7.761 -1.2915  0.1677  2.4679
   75CHL1  H24B 8020   5.033   5.770   7.702 -1.5559  0.7080  1.3916
   75CHL1   C25 8021   4.947   5.625   7.839  1.3386  0.6986 -0.6064
   75CHL1   H25 8022   4.848   5.629   7.788  1.0570 -3.0295 -0.4674
   75CHL1   C26 8023   4.960   5.488   7.893 -0.4731 -1.1293  0.2189
   75CHL1  H26A 8024   4.878   5.472   7.967 -0.6150 -1.5542 -0.0331
   75CHL1  H26B 8025   4.960   5.404   7.821  0.9709  1.3706 -2.8291
   75CHL1  H26C 8026   5.054   5.479   7.952 -0.9186 -2.3910  0.7515
   75CHL1   C27 8027   4.967   5.723   7.955 -0.3707 -0.0277  0.7822
   75CHL1  H27A 8028   4.946   5.827   7.921 -3.7267 -0.5886  0.9725
   75CHL1  H27B 8029   4.891   5.703   8.033 -2.3447 -0.5448 -1.2190
   75CHL1  H27C 8030   5.065   5.722   8.007 -0.4988  0.7033  1.0543
   76CHL1    C3 8031   2.849   1.148   6.264  1.1811 -0.4666  0.1654
   76CHL1    H3 8032   2.866   1.039   6.277 -0.1594 -0.4354  2.4732
   76CHL1    O3 8033   2.851   1.182   6.127 -0.2506  0.3783  0.1690
   76CHL1   H3' 8034   2.767   1.222   6.105 -0.5138  0.4157  1.2288
   76CHL1    C4 8035   2.712   1.188   6.315  0.6180 -0.3289  0.0025
   76CHL1   H4A 8036   2.693   1.297   6.307  1.5846 -0.1665 -0.1535
   76CHL1   H4B 8037   2.639   1.144   6.243 -0.6735  0.0109  1.0711
   76CHL1    C5 8038   2.700   1.143   6.460  0.6352 -0.2808  0.6500
   76CHL1    C6 8039   2.619   1.053   6.505 -0.6892 -0.1114 -1.4445
   76CHL1    H6 8040   2.551   1.009   6.431 -0.0903 -0.8528 -1.5637
   76CHL1    C7 8041   2.615   0.999   6.646  0.3084  0.1709 -0.6025
   76CHL1   H7A 8042   2.508   0.986   6.671 -0.0599 -0.7017 -2.4873
   76CHL1   H7B 8043   2.674   0.905   6.653 -2.4464 -1.5017  1.2369
   76CHL1    C8 8044   2.682   1.094   6.750  0.7925  0.3338 -0.0787
   76CHL1    H8 8045   2.617   1.182   6.770 -0.0343  0.1868 -2.0232
   76CHL1   C14 8046   2.711   1.023   6.888 -0.3079 -0.3062  0.0345
   76CHL1   H14 8047   2.782   0.947   6.848  1.0623  1.8886 -1.8161
   76CHL1   C15 8048   2.603   0.939   6.961 -0.0047 -0.1232 -0.0327
   76CHL1  H15A 8049   2.512   1.003   6.959 -0.8243 -1.2213  1.2995
   76CHL1  H15B 8050   2.577   0.845   6.908 -0.8065 -0.2493  0.5824
   76CHL1   C16 8051   2.658   0.928   7.102  0.4775 -0.3013 -0.0362
   76CHL1  H16A 8052   2.579   0.969   7.168  1.0596 -0.6616  0.8876
   76CHL1  H16B 8053   2.684   0.822   7.121 -0.2726 -0.5910 -0.5946
   76CHL1   C17 8054   2.791   1.012   7.113 -0.2317 -0.1703 -0.0443
   76CHL1   H17 8055   2.873   0.942   7.088  0.4996  0.5575  0.2795
   76CHL1   C13 8056   2.787   1.109   6.997  0.0763  0.8275 -0.3562
   76CHL1   C18 8057   2.706   1.234   7.036 -0.4508 -0.4119 -0.3191
   76CHL1  H18A 8058   2.613   1.214   7.093  0.6958 -1.1046  1.3480
   76CHL1  H18B 8059   2.777   1.294   7.098 -0.1305 -0.8457 -0.2664
   76CHL1  H18C 8060   2.672   1.297   6.951  2.8497  0.3092 -1.1673
   76CHL1   C12 8061   2.921   1.138   6.927 -0.6651 -0.0105  0.4418
   76CHL1  H12A 8062   3.001   1.179   6.991  0.5529 -1.1389 -0.3433
   76CHL1  H12B 8063   2.966   1.040   6.900 -1.6460 -0.9277  2.1064
   76CHL1   C11 8064   2.909   1.228   6.803 -0.3586  0.2574  0.1684
   76CHL1  H11A 8065   2.868   1.328   6.828 -0.9884 -0.6394  2.9056
   76CHL1  H11B 8066   3.013   1.247   6.769 -0.2313 -1.2784 -0.3532
   76CHL1    C9 8067   2.826   1.144   6.702  0.4574  0.3784 -0.9011
   76CHL1    H9 8068   2.883   1.048   6.695  0.4293  0.3849 -1.2352
   76CHL1   C10 8069   2.810   1.200   6.553 -0.7006 -0.1058 -0.6301
   76CHL1   C19 8070   2.775   1.348   6.571  0.2255  0.1191 -0.0572
   76CHL1  H19A 8071   2.755   1.394   6.472  0.0117  1.9614  0.8296
   76CHL1  H19B 8072   2.685   1.371   6.632  0.2827 -0.0390  0.0878
   76CHL1  H19C 8073   2.864   1.397   6.615  0.3275 -0.9737  0.9763
   76CHL1    C1 8074   2.952   1.190   6.483 -0.1398  0.7894 -0.9280
   76CHL1   H1A 8075   3.035   1.233   6.544  0.0492 -1.9818  0.8384
   76CHL1   H1B 8076   2.977   1.082   6.491  1.4780  1.2257  0.2614
   76CHL1    C2 8077   2.963   1.223   6.335 -0.8806 -0.1407  0.0478
   76CHL1   H2A 8078   3.062   1.211   6.286 -1.1890 -0.2557 -0.5498
   76CHL1   H2B 8079   2.947   1.333   6.333 -1.8260 -0.2709  0.7337
   76CHL1   C20 8080   2.841   1.056   7.259  0.3705 -0.5973  0.8082
   76CHL1   H20 8081   2.769   1.126   7.307 -0.1811 -1.8700  1.8369
   76CHL1   C21 8082   2.980   1.122   7.256 -0.7545  0.5796  0.8613
   76CHL1  H21A 8083   2.983   1.211   7.188 -3.6713 -0.9116 -1.3283
   76CHL1  H21B 8084   3.062   1.060   7.216 -2.1702 -0.5738 -0.3161
   76CHL1  H21C 8085   3.012   1.161   7.355 -2.3063  1.0780  1.1928
   76CHL1   C22 8086   2.828   0.935   7.346 -0.8049 -0.6366 -0.0419
   76CHL1  H22A 8087   2.724   0.897   7.356 -0.1465 -2.2646  0.8143
   76CHL1  H22B 8088   2.898   0.861   7.303  1.2219 -0.1913  2.4059
   76CHL1   C23 8089   2.854   0.959   7.494  0.1009  0.6762  0.5094
   76CHL1  H23A 8090   2.960   0.986   7.512 -0.2052  2.2597  0.0228
   76CHL1  H23B 8091   2.795   1.047   7.528 -1.1356 -0.3299  1.0092
   76CHL1   C24 8092   2.814   0.834   7.571 -0.0149  0.2247 -0.2561
   76CHL1  H24A 8093   2.715   0.796   7.537  0.6725 -0.5556 -1.4193
   76CHL1  H24B 8094   2.889   0.760   7.537 -0.0785  1.4930 -3.2849
   76CHL1   C25 8095   2.814   0.845   7.722  0.7749  0.1230 -0.5416
   76CHL1   H25 8096   2.906   0.895   7.762  0.7394  1.6955 -2.3282
   76CHL1   C26 8097   2.693   0.925   7.777  0.0371 -0.3347  0.3291
   76CHL1  H26A 8098   2.604   0.865   7.749 -2.4729  2.5646  1.6865
   76CHL1  H26B 8099   2.702   0.925   7.888  1.8575 -0.7879  0.2039
   76CHL1  H26C 8100   2.688   1.028   7.734 -0.9972 -0.6820 -0.3847
   76CHL1   C27 8101   2.808   0.710   7.784 -0.2302 -0.2366 -0.2664
   76CHL1  H27A 8102   2.709   0.663   7.768  0.2876 -0.8990 -1.6360
   76CHL1  H27B 8103   2.888   0.647   7.739 -1.5241 -2.0561 -0.0397
   76CHL1  H27C 8104   2.835   0.728   7.890 -0.5558  0.5650 -0.3149
   77CHL1    C3 8105   1.668   5.567   6.282 -0.1831  0.1157  0.1292
   77CHL1    H3 8106   1.687   5.667   6.327  0.3486  0.0385  0.0758
   77CHL1    O3 8107   1.594   5.588   6.164 -0.5620 -0.0764 -0.6007
   77CHL1   H3' 8108   1.591   5.511   6.106 -1.9482 -0.6353  0.1962
   77CHL1    C4 8109   1.806   5.492   6.255  0.4378  0.2796 -0.2455
   77CHL1   H4A 8110   1.783   5.390   6.216 -0.6570 -0.0423  1.1554
   77CHL1   H4B 8111   1.861   5.557   6.184 -0.1512 -1.5522 -2.4360
   77CHL1    C5 8112   1.880   5.474   6.384  0.1837  0.2494  1.0331
   77CHL1    C6 8113   1.997   5.523   6.413 -0.3593 -0.3043  0.2931
   77CHL1    H6 8114   2.035   5.590   6.335  0.5316  0.2575  1.1992
   77CHL1    C7 8115   2.074   5.512   6.544 -0.1212  0.4184 -0.2916
   77CHL1   H7A 8116   2.182   5.510   6.518 -0.1621 -0.7475 -0.3986
   77CHL1   H7B 8117   2.057   5.603   6.607  2.4807  0.4502  0.4326
   77CHL1    C8 8118   2.016   5.393   6.630 -0.3512  0.1517 -0.3889
   77CHL1    H8 8119   2.048   5.296   6.586 -0.6461 -0.2960  0.3783
   77CHL1   C14 8120   2.068   5.413   6.771  0.2563 -0.1125 -0.4774
   77CHL1   H14 8121   2.028   5.512   6.803 -1.7044 -0.8771 -0.4943
   77CHL1   C15 8122   2.219   5.425   6.797  0.0286  0.5080  0.6068
   77CHL1  H15A 8123   2.279   5.355   6.736 -0.0718 -1.3142  2.5487
   77CHL1  H15B 8124   2.248   5.527   6.762  0.0448  1.0763  2.2190
   77CHL1   C16 8125   2.237   5.397   6.945 -0.6786  0.2377  0.3189
   77CHL1  H16A 8126   2.300   5.308   6.963 -0.2456  0.4746  0.0010
   77CHL1  H16B 8127   2.288   5.474   7.007 -0.9306  0.3114  0.4353
   77CHL1   C17 8128   2.091   5.358   6.998  0.5963 -0.0403 -0.2920
   77CHL1   H17 8129   2.047   5.451   7.040 -1.9429 -1.6335  0.7370
   77CHL1   C13 8130   2.018   5.319   6.873 -0.0553  0.4512  0.6230
   77CHL1   C18 8131   2.073   5.172   6.843  0.0525 -0.6014 -0.2770
   77CHL1  H18A 8132   2.077   5.145   6.736  1.4971  0.6280 -0.5520
   77CHL1  H18B 8133   2.172   5.149   6.887  0.2170  0.5204 -0.0441
   77CHL1  H18C 8134   2.004   5.096   6.885 -0.2535 -0.3516 -0.3291
   77CHL1   C12 8135   1.867   5.332   6.878 -0.0696 -0.3117  0.1159
   77CHL1  H12A 8136   1.822   5.260   6.949  1.2998 -2.3567 -1.0548
   77CHL1  H12B 8137   1.853   5.437   6.914 -0.5221 -0.4091  0.2254
   77CHL1   C11 8138   1.803   5.316   6.736  0.2867 -0.0286 -0.3269
   77CHL1  H11A 8139   1.825   5.213   6.702  2.6179  0.3125  0.0301
   77CHL1  H11B 8140   1.694   5.332   6.751  0.5628  0.3409  1.4740
   77CHL1    C9 8141   1.865   5.412   6.631 -0.2048 -0.1961  0.7457
   77CHL1    H9 8142   1.849   5.516   6.668 -0.5823  0.5403 -1.3787
   77CHL1   C10 8143   1.795   5.395   6.491 -0.3783 -0.4626  0.2246
   77CHL1   C19 8144   1.780   5.243   6.446  0.3977 -0.3362 -0.0935
   77CHL1  H19A 8145   1.879   5.194   6.447  0.0780 -1.0084  1.9760
   77CHL1  H19B 8146   1.712   5.180   6.507  1.1547  0.4178  1.5900
   77CHL1  H19C 8147   1.736   5.233   6.345  1.5006  0.2306 -0.6326
   77CHL1    C1 8148   1.644   5.450   6.505 -0.4354  0.0276  0.0599
   77CHL1   H1A 8149   1.564   5.401   6.564 -1.3089  1.5283  0.1347
   77CHL1   H1B 8150   1.667   5.544   6.559 -3.9040  0.3157  1.1495
   77CHL1    C2 8151   1.578   5.483   6.373 -0.8014  0.5098  0.1871
   77CHL1   H2A 8152   1.480   5.523   6.406 -1.2862  1.9990 -2.8998
   77CHL1   H2B 8153   1.548   5.384   6.333 -0.0347  0.1473  0.4824
   77CHL1   C20 8154   2.078   5.266   7.120 -0.3431 -0.2430  0.1900
   77CHL1   H20 8155   2.063   5.163   7.082 -1.7882 -0.8247  2.2669
   77CHL1   C21 8156   1.963   5.301   7.218 -0.1563 -0.2571  0.8372
   77CHL1  H21A 8157   1.926   5.215   7.277 -3.2213  1.7070  1.9161
   77CHL1  H21B 8158   1.874   5.343   7.166  0.3879  1.3386  1.1560
   77CHL1  H21C 8159   1.984   5.383   7.289 -0.5703  0.7560 -0.1853
   77CHL1   C22 8160   2.204   5.255   7.213 -0.1150  0.6451 -0.6965
   77CHL1  H22A 8161   2.187   5.187   7.299 -0.8384  1.3033 -0.3030
   77CHL1  H22B 8162   2.293   5.221   7.157  1.9931  3.9039  0.4934
   77CHL1   C23 8163   2.250   5.392   7.279  0.4210  0.6099 -0.2453
   77CHL1  H23A 8164   2.228   5.475   7.208  1.8002  1.3475  0.1733
   77CHL1  H23B 8165   2.193   5.423   7.369 -0.3089 -0.1643 -0.4329
   77CHL1   C24 8166   2.399   5.395   7.314  0.3580 -0.6595  0.6166
   77CHL1  H24A 8167   2.470   5.412   7.231  0.0003  0.4549  0.5309
   77CHL1  H24B 8168   2.415   5.485   7.376  1.5964 -0.4099 -0.0613
   77CHL1   C25 8169   2.445   5.279   7.389  0.2671 -0.1153  0.2714
   77CHL1   H25 8170   2.423   5.179   7.346 -0.1026 -0.3866  1.0840
   77CHL1   C26 8171   2.597   5.286   7.397  0.1660 -0.2200 -0.3387
   77CHL1  H26A 8172   2.639   5.384   7.428 -2.7820  1.4206 -1.2580
   77CHL1  H26B 8173   2.638   5.202   7.456  4.1857  0.4056 -2.0475
   77CHL1  H26C 8174   2.635   5.290   7.292 -1.2770  0.2192 -0.8572
   77CHL1   C27 8175   2.386   5.273   7.534 -0.2950  0.1260 -0.6679
   77CHL1  H27A 8176   2.412   5.371   7.579 -0.3187 -0.6817  1.1681
   77CHL1  H27B 8177   2.275   5.265   7.536 -0.2376 -0.4676  0.1504
   77CHL1  H27C 8178   2.417   5.193   7.604  1.5592  0.5323 -1.0002
   78CHL1    C3 8179   4.908   1.377   6.298 -0.6673  0.4194  0.2273
   78CHL1    H3 8180   5.001   1.436   6.311 -0.2038 -0.0748 -0.7413
   78CHL1    O3 8181   4.866   1.397   6.164 -0.0179  0.4073  0.0631
   78CHL1   H3' 8182   4.784   1.347   6.163  0.1489  0.1453 -0.4746
   78CHL1    C4 8183   4.945   1.226   6.319  0.0921 -0.4189  0.4452
   78CHL1   H4A 8184   4.866   1.152   6.292 -1.0704  1.8575 -2.7383
   78CHL1   H4B 8185   5.024   1.205   6.245  1.2112  0.2497  1.4325
   78CHL1    C5 8186   4.981   1.202   6.466 -0.1906 -0.6151  0.1836
   78CHL1    C6 8187   5.097   1.146   6.500  0.4471  0.2645 -0.2248
   78CHL1    H6 8188   5.160   1.114   6.416  0.0537 -2.2363  0.3826
   78CHL1    C7 8189   5.147   1.115   6.634  0.5841  0.3111 -0.6053
   78CHL1   H7A 8190   5.206   1.021   6.635  1.1722  0.6822  0.1420
   78CHL1   H7B 8191   5.221   1.194   6.661 -0.9117  1.4801  0.2109
   78CHL1    C8 8192   5.023   1.113   6.733  0.6832  0.2024  0.3923
   78CHL1    H8 8193   4.967   1.018   6.719 -0.7172  0.9974  0.4694
   78CHL1   C14 8194   5.068   1.113   6.874 -0.0927  0.0022  0.2112
   78CHL1   H14 8195   5.113   1.215   6.877 -0.4746  0.1353  1.5277
   78CHL1   C15 8196   5.188   1.015   6.923 -0.2982  0.5468  0.2185
   78CHL1  H15A 8197   5.156   0.921   6.873  0.3156  0.7695 -0.6004
   78CHL1  H15B 8198   5.286   1.049   6.882 -0.6284 -1.3454 -2.2419
   78CHL1   C16 8199   5.175   1.004   7.070 -0.0345  0.1167  0.0131
   78CHL1  H16A 8200   5.147   0.897   7.083  1.8221 -0.1689  1.9770
   78CHL1  H16B 8201   5.260   1.016   7.141  1.4579 -1.5954 -1.4507
   78CHL1   C17 8202   5.059   1.100   7.112 -0.8450  0.2403  0.0509
   78CHL1   H17 8203   5.109   1.199   7.119  1.7322 -0.9348 -1.2723
   78CHL1   C13 8204   4.961   1.102   6.988  0.1194  0.6781  0.2814
   78CHL1   C18 8205   4.881   0.967   6.970  0.4196 -0.3448  0.0599
   78CHL1  H18A 8206   4.777   0.988   7.001  0.9197  1.0821  0.8124
   78CHL1  H18B 8207   4.878   0.919   6.870 -1.3105 -1.0882  0.4513
   78CHL1  H18C 8208   4.925   0.904   7.050 -0.0947  0.4572  0.9875
   78CHL1   C12 8209   4.877   1.229   6.983 -0.3701 -0.2707  0.5700
   78CHL1  H12A 8210   4.785   1.212   7.041 -1.9505  1.4728 -1.3212
   78CHL1  H12B 8211   4.935   1.320   7.011 -1.7084  0.1369  2.0343
   78CHL1   C11 8212   4.827   1.256   6.832  0.0227  0.3228  0.1836
   78CHL1  H11A 8213   4.746   1.181   6.823 -0.9239  1.2497  0.7360
   78CHL1  H11B 8214   4.787   1.360   6.824 -2.6285 -0.6592  0.2454
   78CHL1    C9 8215   4.932   1.241   6.719 -0.3295  0.2432 -0.3605
   78CHL1    H9 8216   5.009   1.320   6.728  0.3590 -0.1685 -2.4799
   78CHL1   C10 8217   4.875   1.251   6.570 -0.0161  0.2944  0.0197
   78CHL1   C19 8218   4.751   1.162   6.555 -0.1983  0.0669  0.0516
   78CHL1  H19A 8219   4.771   1.070   6.615  2.0104  1.3006  1.2696
   78CHL1  H19B 8220   4.665   1.203   6.611 -0.2595 -1.3574  1.0422
   78CHL1  H19C 8221   4.723   1.146   6.449 -0.9571 -0.7840  0.3713
   78CHL1    C1 8222   4.841   1.395   6.540 -1.0971  0.0350  0.1552
   78CHL1   H1A 8223   4.754   1.433   6.599 -2.9495  0.7848 -2.9568
   78CHL1   H1B 8224   4.919   1.473   6.556 -1.3441  0.0787  1.2589
   78CHL1    C2 8225   4.795   1.417   6.399 -0.4296 -0.4654  0.6575
   78CHL1   H2A 8226   4.760   1.518   6.367 -0.4655 -0.8100 -0.4083
   78CHL1   H2B 8227   4.703   1.358   6.379 -0.5236  0.2867 -1.2642
   78CHL1   C20 8228   4.993   1.062   7.250  0.6155 -0.4251 -0.0043
   78CHL1   H20 8229   4.907   0.994   7.235  1.2226 -1.0609 -0.6166
   78CHL1   C21 8230   4.920   1.179   7.319  0.2475 -0.1105  0.0237
   78CHL1  H21A 8231   4.996   1.260   7.326 -1.3598  1.3747  0.7312
   78CHL1  H21B 8232   4.887   1.146   7.420 -0.4995 -1.1139 -0.5345
   78CHL1  H21C 8233   4.834   1.213   7.257  0.3967  2.0145  0.9361
   78CHL1   C22 8234   5.089   0.993   7.357 -0.1799 -0.0796 -0.0965
   78CHL1  H22A 8235   5.147   0.912   7.308  3.0466  0.9706  1.8593
   78CHL1  H22B 8236   5.155   1.071   7.399 -1.6230  1.9191 -1.4136
   78CHL1   C23 8237   5.012   0.930   7.479 -0.1921  0.6976 -0.2035
   78CHL1  H23A 8238   4.936   0.991   7.532  1.5010 -0.5193  3.8378
   78CHL1  H23B 8239   4.967   0.836   7.439  0.2909 -0.1616  1.2366
   78CHL1   C24 8240   5.121   0.880   7.576 -0.1222 -0.5834 -0.3768
   78CHL1  H24A 8241   5.173   0.795   7.527  3.4807 -0.6423  3.3249
   78CHL1  H24B 8242   5.199   0.958   7.591  0.6217 -1.3122 -0.4144
   78CHL1   C25 8243   5.062   0.839   7.709 -0.6296 -0.5132 -0.2284
   78CHL1   H25 8244   4.958   0.801   7.703 -1.4498  1.9273 -3.3070
   78CHL1   C26 8245   5.142   0.732   7.772  0.7484 -0.1984  0.3269
   78CHL1  H26A 8246   5.251   0.752   7.761  0.7218 -0.1667  0.1203
   78CHL1  H26B 8247   5.131   0.736   7.882 -1.6714 -1.1886  0.1498
   78CHL1  H26C 8248   5.121   0.631   7.730  0.7205 -0.0323 -0.0657
   78CHL1   C27 8249   5.050   0.961   7.812 -0.1197  0.0032  0.2125
   78CHL1  H27A 8250   5.053   0.925   7.917  2.1727  1.6407  0.7439
   78CHL1  H27B 8251   5.138   1.028   7.803 -1.3609  1.4118 -1.9766
   78CHL1  H27C 8252   4.965   1.029   7.791  1.9011  2.6934  0.5261
   79CHL1    C3 8253   4.540   6.228   6.289  0.5940 -0.2461 -0.2441
   79CHL1    H3 8254   4.566   6.125   6.323  1.2386 -0.2710 -0.8111
   79CHL1    O3 8255   4.550   6.229   6.150 -0.2684 -0.1762  0.1809
   79CHL1   H3' 8256   4.582   6.318   6.131 -0.2725  0.0073  1.0513
   79CHL1    C4 8257   4.395   6.253   6.330  0.3826 -0.3614 -0.0646
   79CHL1   H4A 8258   4.353   6.339   6.273  1.3109  0.2885  0.2129
   79CHL1   H4B 8259   4.342   6.161   6.299 -2.5596  0.6208  1.8064
   79CHL1    C5 8260   4.382   6.285   6.482  0.5782  0.0004 -0.2843
   79CHL1    C6 8261   4.286   6.215   6.553  1.1163  0.3416 -0.3402
   79CHL1    H6 8262   4.227   6.147   6.489  0.5610 -0.1178  0.6527
   79CHL1    C7 8263   4.261   6.221   6.697 -0.2866  0.5981  0.1462
   79CHL1   H7A 8264   4.150   6.225   6.697 -0.3005  0.1859  0.9552
   79CHL1   H7B 8265   4.289   6.123   6.741 -1.8397 -0.2956 -0.8479
   79CHL1    C8 8266   4.334   6.338   6.765 -0.6686 -0.7076 -0.7334
   79CHL1    H8 8267   4.286   6.435   6.738  0.4334  0.2473  0.6591
   79CHL1   C14 8268   4.336   6.319   6.911  0.2052  0.4119  0.1643
   79CHL1   H14 8269   4.387   6.222   6.929  1.4062  1.0372  0.2428
   79CHL1   C15 8270   4.195   6.310   6.979  0.6290 -0.2941  0.6106
   79CHL1  H15A 8271   4.126   6.393   6.953  0.5294 -0.4770  0.3021
   79CHL1  H15B 8272   4.145   6.217   6.944  0.2647  0.0131  0.3027
   79CHL1   C16 8273   4.222   6.331   7.125 -0.0775 -0.1961 -0.8306
   79CHL1  H16A 8274   4.156   6.411   7.166 -1.9503 -1.3044 -1.6007
   79CHL1  H16B 8275   4.214   6.237   7.183 -2.1381  0.4517 -0.0174
   79CHL1   C17 8276   4.371   6.373   7.133  0.7464 -0.0489  0.3603
   79CHL1   H17 8277   4.423   6.277   7.155  1.1407 -0.2195 -1.2994
   79CHL1   C13 8278   4.409   6.425   6.989  0.2646 -0.3179 -0.0754
   79CHL1   C18 8279   4.343   6.567   6.970 -0.3213  0.6731  0.1518
   79CHL1  H18A 8280   4.344   6.609   6.867  3.4222 -0.3426 -0.2734
   79CHL1  H18B 8281   4.236   6.573   7.001 -0.5516  0.4148 -0.5670
   79CHL1  H18C 8282   4.401   6.636   7.034 -0.4648  0.4919  0.4768
   79CHL1   C12 8283   4.558   6.423   6.947 -0.1595 -0.4429  0.1306
   79CHL1  H12A 8284   4.608   6.505   7.002  0.3438 -0.8199  0.2304
   79CHL1  H12B 8285   4.598   6.323   6.971 -1.7442 -0.7750  1.5175
   79CHL1   C11 8286   4.571   6.441   6.795 -0.3177  1.1295 -0.3452
   79CHL1  H11A 8287   4.540   6.546   6.776 -1.7647  0.6628 -0.5650
   79CHL1  H11B 8288   4.677   6.425   6.766  0.0272  0.8461  1.0393
   79CHL1    C9 8289   4.479   6.350   6.708 -0.3101 -0.5746 -0.3112
   79CHL1    H9 8290   4.523   6.250   6.727  0.4369 -0.5105 -1.6537
   79CHL1   C10 8291   4.488   6.369   6.553 -0.0701 -0.0123  0.1893
   79CHL1   C19 8292   4.447   6.513   6.523  0.3965  1.3186 -0.2158
   79CHL1  H19A 8293   4.366   6.552   6.588  0.4726 -0.1022  0.7713
   79CHL1  H19B 8294   4.528   6.586   6.539  0.1601  1.9016 -1.6027
   79CHL1  H19C 8295   4.412   6.515   6.417 -1.1178 -1.1334  0.1933
   79CHL1    C1 8296   4.622   6.327   6.500  0.4431 -0.2853 -0.7380
   79CHL1   H1A 8297   4.704   6.375   6.557 -0.7609 -0.1352  0.9091
   79CHL1   H1B 8298   4.639   6.225   6.540  0.9285 -0.2730 -0.9125
   79CHL1    C2 8299   4.643   6.325   6.346 -0.5903 -0.0519  0.2951
   79CHL1   H2A 8300   4.745   6.290   6.317 -0.7665  1.0359 -1.7516
   79CHL1   H2B 8301   4.627   6.427   6.306 -1.9849 -0.0292  0.9083
   79CHL1   C20 8302   4.391   6.465   7.249 -0.7048 -0.5261  0.1159
   79CHL1   H20 8303   4.336   6.561   7.238  0.6744  0.2970  0.3068
   79CHL1   C21 8304   4.547   6.493   7.266 -0.5042  0.2663 -0.3332
   79CHL1  H21A 8305   4.590   6.562   7.191  0.8471 -0.1691  0.0372
   79CHL1  H21B 8306   4.598   6.396   7.248  1.2425  0.9086  0.9983
   79CHL1  H21C 8307   4.572   6.537   7.365 -0.2126 -0.2162 -0.1907
   79CHL1   C22 8308   4.325   6.408   7.376  0.2255  0.2681  0.0553
   79CHL1  H22A 8309   4.214   6.407   7.370  0.1899 -0.8720  0.8401
   79CHL1  H22B 8310   4.349   6.300   7.387  1.2751  0.3913 -0.9481
   79CHL1   C23 8311   4.357   6.488   7.503 -0.1790  0.9408  0.3524
   79CHL1  H23A 8312   4.460   6.457   7.532 -0.4365  1.4563  1.8861
   79CHL1  H23B 8313   4.331   6.595   7.492 -0.3658  0.6499 -2.3235
   79CHL1   C24 8314   4.261   6.438   7.616  0.1931 -0.8574 -0.6480
   79CHL1  H24A 8315   4.161   6.477   7.587  0.1190 -1.0621 -0.6636
   79CHL1  H24B 8316   4.272   6.328   7.613  0.7799 -0.8343  0.3880
   79CHL1   C25 8317   4.290   6.488   7.759 -0.3140 -0.2951 -0.0359
   79CHL1   H25 8318   4.377   6.428   7.793  1.5654  1.0335 -2.4140
   79CHL1   C26 8319   4.332   6.630   7.755  0.0442 -0.2575 -0.5219
   79CHL1  H26A 8320   4.243   6.679   7.710 -0.7919 -1.9023 -0.6928
   79CHL1  H26B 8321   4.344   6.661   7.861  1.1613 -0.8843 -0.4569
   79CHL1  H26C 8322   4.431   6.651   7.709  0.7818 -1.5502  0.4453
   79CHL1   C27 8323   4.166   6.477   7.843 -0.3117  0.5521  0.2284
   79CHL1  H27A 8324   4.090   6.550   7.808  2.2830  2.6447 -1.2466
   79CHL1  H27B 8325   4.121   6.377   7.828 -2.3094  0.9024  3.4649
   79CHL1  H27C 8326   4.182   6.484   7.953 -1.7800 -0.6731  0.5349
   80CHL1    C3 8327   0.606   4.509   6.328 -0.5687 -0.1755  0.4969
   80CHL1    H3 8328   0.688   4.580   6.305 -1.3373  0.4799 -0.2615
   80CHL1    O3 8329   0.564   4.463   6.198  0.1849  0.7803 -0.5014
   80CHL1   H3' 8330   0.505   4.533   6.169  0.2974  1.2020  0.2591
   80CHL1    C4 8331   0.669   4.383   6.407  0.0548  0.6501  0.4136
   80CHL1   H4A 8332   0.589   4.307   6.407  1.5767 -0.9906  0.0355
   80CHL1   H4B 8333   0.749   4.343   6.339 -2.0888 -0.1844 -1.6958
   80CHL1    C5 8334   0.721   4.406   6.545 -0.4075 -0.0357  0.3233
   80CHL1    C6 8335   0.843   4.383   6.575 -0.2781  0.2321 -0.4542
   80CHL1    H6 8336   0.912   4.347   6.496  1.5995 -1.8444  2.0270
   80CHL1    C7 8337   0.893   4.409   6.715  0.5856  0.6337  1.0564
   80CHL1   H7A 8338   0.965   4.336   6.759 -0.1571 -0.3077  0.7120
   80CHL1   H7B 8339   0.948   4.505   6.720  1.6936  0.0114  1.0367
   80CHL1    C8 8340   0.780   4.436   6.812  0.5681  0.5737 -0.1583
   80CHL1    H8 8341   0.739   4.335   6.833 -2.8329  1.3357 -2.7640
   80CHL1   C14 8342   0.834   4.484   6.950 -0.1560  0.0251  1.0511
   80CHL1   H14 8343   0.890   4.577   6.929  2.0080 -1.9568 -2.5657
   80CHL1   C15 8344   0.936   4.404   7.026 -0.0677  0.8101 -0.8473
   80CHL1  H15A 8345   0.898   4.301   7.041  0.8377  0.8099  1.5184
   80CHL1  H15B 8346   1.038   4.406   6.982  0.0951  0.6215 -0.4739
   80CHL1   C16 8347   0.934   4.464   7.171  0.5275  0.1030 -0.7496
   80CHL1  H16A 8348   0.924   4.386   7.249  0.6912  1.4822  0.6884
   80CHL1  H16B 8349   1.021   4.527   7.201  1.5685 -2.9980  3.2618
   80CHL1   C17 8350   0.810   4.563   7.166  0.2916 -0.1374 -0.1943
   80CHL1   H17 8351   0.847   4.661   7.129  0.1304  0.5046  1.3342
   80CHL1   C13 8352   0.723   4.523   7.049  0.3140 -0.6861 -0.1513
   80CHL1   C18 8353   0.641   4.398   7.094 -0.4842  0.7909  0.5007
   80CHL1  H18A 8354   0.604   4.338   7.008 -0.0471  3.2184 -1.4225
   80CHL1  H18B 8355   0.703   4.335   7.160  0.0721 -1.4568 -2.0791
   80CHL1  H18C 8356   0.559   4.436   7.159  0.2422  1.3312  1.0939
   80CHL1   C12 8357   0.636   4.626   6.980 -0.3190 -0.4736 -0.1635
   80CHL1  H12A 8358   0.545   4.660   7.034  2.4698 -0.0647  4.5166
   80CHL1  H12B 8359   0.698   4.714   6.953 -1.3459  0.5945  0.9146
   80CHL1   C11 8360   0.567   4.574   6.850  0.2305 -0.0257 -0.0720
   80CHL1  H11A 8361   0.514   4.483   6.886  0.4943  0.4333  1.4989
   80CHL1  H11B 8362   0.485   4.635   6.806  1.6803  0.3619 -2.3335
   80CHL1    C9 8363   0.677   4.533   6.751 -0.5205  0.0533  0.6448
   80CHL1    H9 8364   0.735   4.623   6.721 -0.3190  0.2637  1.6463
   80CHL1   C10 8365   0.612   4.477   6.623 -0.2630  0.0012  0.1807
   80CHL1   C19 8366   0.500   4.369   6.649  0.0692 -0.0336 -0.2173
   80CHL1  H19A 8367   0.426   4.409   6.721  2.3170  0.7101  1.7144
   80CHL1  H19B 8368   0.452   4.341   6.552 -1.2674 -1.8377  0.9258
   80CHL1  H19C 8369   0.540   4.283   6.706 -3.7098  0.2187  3.0666
   80CHL1    C1 8370   0.556   4.599   6.542 -0.8026  0.4129  0.0444
   80CHL1   H1A 8371   0.469   4.637   6.599 -1.4747  1.7697 -1.8143
   80CHL1   H1B 8372   0.635   4.677   6.534 -2.4736  2.1107 -0.3378
   80CHL1    C2 8373   0.493   4.567   6.411 -0.0041 -0.4054 -0.6510
   80CHL1   H2A 8374   0.461   4.661   6.360  2.3269 -0.3424 -2.0634
   80CHL1   H2B 8375   0.410   4.494   6.422  2.1169 -2.4078  2.7271
   80CHL1   C20 8376   0.740   4.571   7.302  0.3451 -0.0536  0.1286
   80CHL1   H20 8377   0.700   4.473   7.335  2.2872 -0.5109  1.1956
   80CHL1   C21 8378   0.615   4.669   7.301 -0.7870  0.0370  0.3519
   80CHL1  H21A 8379   0.645   4.764   7.253  0.8784 -0.2998  0.6952
   80CHL1  H21B 8380   0.595   4.692   7.408 -0.9034  0.1368  0.3083
   80CHL1  H21C 8381   0.520   4.632   7.255 -0.2450 -0.8489 -0.0735
   80CHL1   C22 8382   0.834   4.624   7.419 -0.2197 -0.2731 -0.1470
   80CHL1  H22A 8383   0.866   4.726   7.387 -4.0258  0.9002 -0.3834
   80CHL1  H22B 8384   0.766   4.646   7.504  0.9167  1.1939  0.4039
   80CHL1   C23 8385   0.944   4.525   7.477  0.2516 -0.3496 -0.6557
   80CHL1  H23A 8386   0.898   4.423   7.479  1.0292 -0.6715  1.8681
   80CHL1  H23B 8387   1.027   4.513   7.404  0.4310  0.9649 -0.6791
   80CHL1   C24 8388   0.997   4.573   7.608  0.3625  0.1097  0.3582
   80CHL1  H24A 8389   1.025   4.679   7.592  4.3519 -0.7631  1.0122
   80CHL1  H24B 8390   0.935   4.548   7.697 -0.6454  0.8443 -0.1245
   80CHL1   C25 8391   1.134   4.501   7.637  0.3163 -0.7901 -0.8819
   80CHL1   H25 8392   1.201   4.501   7.549  0.5607  0.0872 -0.7034
   80CHL1   C26 8393   1.202   4.579   7.755 -0.5375 -0.1224 -0.3563
   80CHL1  H26A 8394   1.300   4.540   7.790  0.4683  1.0195 -1.8079
   80CHL1  H26B 8395   1.212   4.688   7.736 -2.4465 -0.0392 -0.9609
   80CHL1  H26C 8396   1.145   4.571   7.850  1.1540 -0.2920  0.6628
   80CHL1   C27 8397   1.123   4.354   7.680 -0.5555  0.4445 -0.0165
   80CHL1  H27A 8398   1.091   4.287   7.598 -1.7483 -0.4603  1.1742
   80CHL1  H27B 8399   1.221   4.312   7.711 -0.5772 -1.3240 -2.2390
   80CHL1  H27C 8400   1.054   4.343   7.766  1.2375 -0.5659  1.3507
   81CHL1    C3 8401   6.557   2.318   6.364  0.4354  0.0167  0.1808
   81CHL1    H3 8402   6.648   2.260   6.388 -0.4705 -0.6379  2.1420
   81CHL1    O3 8403   6.530   2.279   6.233  0.2464  0.4931 -0.9315
   81CHL1   H3' 8404   6.456   2.334   6.203 -1.1845 -1.2957 -0.7555
   81CHL1    C4 8405   6.449   2.278   6.458 -0.7131  0.0566  0.0069
   81CHL1   H4A 8406   6.353   2.302   6.406  0.2777  1.6181 -1.1522
   81CHL1   H4B 8407   6.444   2.167   6.461 -0.0351 -0.0307 -1.4590
   81CHL1    C5 8408   6.443   2.337   6.593 -0.4529 -0.2903  0.2132
   81CHL1    C6 8409   6.404   2.264   6.699  0.4281  1.0399 -0.3836
   81CHL1    H6 8410   6.375   2.159   6.683  1.2469  0.4202  2.0460
   81CHL1    C7 8411   6.396   2.314   6.841 -0.4941 -0.8655 -0.2350
   81CHL1   H7A 8412   6.302   2.276   6.885  0.9302 -1.7775  2.0888
   81CHL1   H7B 8413   6.481   2.284   6.906 -0.6348  2.0195  1.3710
   81CHL1    C8 8414   6.392   2.475   6.841  0.4975 -0.2944 -0.1520
   81CHL1    H8 8415   6.291   2.495   6.800  0.8981 -0.0634 -1.0578
   81CHL1   C14 8416   6.425   2.524   6.980 -0.3074 -0.3472 -0.1792
   81CHL1   H14 8417   6.529   2.497   7.008 -0.4741  1.4233  2.3373
   81CHL1   C15 8418   6.334   2.455   7.088 -0.0004 -0.3655 -0.7447
   81CHL1  H15A 8419   6.230   2.459   7.048 -0.4966 -1.1741  0.4001
   81CHL1  H15B 8420   6.364   2.353   7.120  1.1121  0.8217  2.1988
   81CHL1   C16 8421   6.345   2.559   7.206  0.1291  0.5457  1.2762
   81CHL1  H16A 8422   6.239   2.583   7.228 -0.5861  0.0823 -1.4953
   81CHL1  H16B 8423   6.393   2.516   7.297 -0.5371  1.5357  2.1149
   81CHL1   C17 8424   6.421   2.684   7.156  0.0273 -0.3011 -0.6286
   81CHL1   H17 8425   6.523   2.665   7.198 -0.0938  1.9306  0.7896
   81CHL1   C13 8426   6.413   2.676   7.005  0.6127  0.6383 -0.0019
   81CHL1   C18 8427   6.269   2.735   6.959  0.0338 -0.2058  0.3390
   81CHL1  H18A 8428   6.266   2.845   6.973 -2.0871 -0.0285 -1.2226
   81CHL1  H18B 8429   6.253   2.717   6.850 -1.6345 -1.1912  0.7374
   81CHL1  H18C 8430   6.184   2.690   7.014  0.9959 -0.0227  2.0015
   81CHL1   C12 8431   6.530   2.733   6.926  0.3267 -0.0505  0.4405
   81CHL1  H12A 8432   6.517   2.844   6.930  1.0927 -0.0087  2.1237
   81CHL1  H12B 8433   6.626   2.711   6.976  0.6624  2.6033  1.0632
   81CHL1   C11 8434   6.526   2.688   6.779  0.0744  0.5733 -0.4833
   81CHL1  H11A 8435   6.443   2.745   6.730 -1.4109 -0.7419  0.4428
   81CHL1  H11B 8436   6.620   2.708   6.724 -0.0662  0.8480 -0.6305
   81CHL1    C9 8437   6.503   2.537   6.748  0.7900 -0.0657 -0.5339
   81CHL1    H9 8438   6.597   2.490   6.783  0.0566 -0.9182  0.3255
   81CHL1   C10 8439   6.482   2.491   6.605  0.4401 -0.1019  0.2313
   81CHL1   C19 8440   6.369   2.568   6.548  0.2317  0.0697  0.1654
   81CHL1  H19A 8441   6.348   2.551   6.440 -0.9408  1.5165  0.1425
   81CHL1  H19B 8442   6.269   2.548   6.595  0.6339  0.2555  1.1161
   81CHL1  H19C 8443   6.394   2.676   6.557 -0.7802  0.1508  2.5697
   81CHL1    C1 8444   6.609   2.510   6.518  0.0533  0.4326 -0.1832
   81CHL1   H1A 8445   6.648   2.614   6.523 -2.4114  1.2925  2.2051
   81CHL1   H1B 8446   6.686   2.444   6.565  0.9285  2.4169  1.2369
   81CHL1    C2 8447   6.601   2.461   6.372 -0.4789  0.2388 -0.4754
   81CHL1   H2A 8448   6.700   2.472   6.323 -0.5027  0.7938 -0.4099
   81CHL1   H2B 8449   6.526   2.530   6.328 -1.6448 -0.1881  0.7972
   81CHL1   C20 8450   6.380   2.811   7.236  0.7163 -0.8441 -0.8017
   81CHL1   H20 8451   6.285   2.855   7.199 -0.5437 -1.1232  1.9721
   81CHL1   C21 8452   6.500   2.915   7.211  0.1646 -0.0276 -0.5908
   81CHL1  H21A 8453   6.498   3.006   7.274  3.4240  0.0127 -0.4476
   81CHL1  H21B 8454   6.502   2.954   7.107 -1.4186  0.1125 -0.5723
   81CHL1  H21C 8455   6.601   2.871   7.229 -0.5519 -1.4644  0.0322
   81CHL1   C22 8456   6.355   2.799   7.387  0.0888 -0.0817 -0.2050
   81CHL1  H22A 8457   6.276   2.723   7.407 -1.5172  1.1882 -1.5184
   81CHL1  H22B 8458   6.444   2.761   7.442  0.5020  1.0547 -0.0657
   81CHL1   C23 8459   6.305   2.929   7.457 -0.3742 -0.2372 -0.1257
   81CHL1  H23A 8460   6.370   3.018   7.444 -1.6205  0.5751 -0.9095
   81CHL1  H23B 8461   6.203   2.957   7.421  0.4618  1.7358 -1.0220
   81CHL1   C24 8462   6.302   2.898   7.612  0.4928  0.2216 -0.4322
   81CHL1  H24A 8463   6.260   2.797   7.630  2.0731 -0.3030  0.4261
   81CHL1  H24B 8464   6.407   2.901   7.648  0.3182  1.5641 -0.0073
   81CHL1   C25 8465   6.220   2.999   7.696 -1.1077  0.5928 -0.3829
   81CHL1   H25 8466   6.120   3.013   7.651 -2.6006 -1.0379  2.2720
   81CHL1   C26 8467   6.191   2.942   7.838 -0.4449  0.4673 -0.3563
   81CHL1  H26A 8468   6.143   2.842   7.829 -2.4388  1.5733 -2.7725
   81CHL1  H26B 8469   6.289   2.941   7.891  0.0641 -1.3305 -1.2838
   81CHL1  H26C 8470   6.117   3.008   7.888  0.9017  1.7704 -0.0475
   81CHL1   C27 8471   6.286   3.129   7.703  0.1823 -0.4114 -0.0657
   81CHL1  H27A 8472   6.395   3.108   7.713  0.7834  0.3240 -4.0775
   81CHL1  H27B 8473   6.284   3.199   7.616  0.1520  1.9803  1.8060
   81CHL1  H27C 8474   6.244   3.190   7.785  0.5409 -0.3172  0.0486
   82CHL1    C3 8475   5.629   6.044   6.278  0.3835  0.3765  0.8680
   82CHL1    H3 8476   5.689   6.136   6.293  0.6667  0.4814 -0.8838
   82CHL1    O3 8477   5.587   6.051   6.146 -0.3288 -0.4854 -0.4547
   82CHL1   H3' 8478   5.519   6.119   6.153 -0.7065 -0.7588 -1.4004
   82CHL1    C4 8479   5.705   5.916   6.295  0.9559  0.6566 -0.2512
   82CHL1   H4A 8480   5.654   5.823   6.260  3.4799 -1.4799  1.5894
   82CHL1   H4B 8481   5.785   5.917   6.218  1.3838  2.8144  0.1937
   82CHL1    C5 8482   5.749   5.898   6.437  0.2382 -0.5289  0.2261
   82CHL1    C6 8483   5.879   5.879   6.471  0.7627 -0.1083 -0.2886
   82CHL1    H6 8484   5.948   5.855   6.389 -0.3326  0.4511 -1.3901
   82CHL1    C7 8485   5.934   5.843   6.606  0.2416  0.3720 -0.2097
   82CHL1   H7A 8486   5.999   5.754   6.603 -0.6800 -0.3278  0.1796
   82CHL1   H7B 8487   5.997   5.926   6.643 -0.2267  1.3543 -1.5704
   82CHL1    C8 8488   5.820   5.824   6.710  1.1678  0.0621 -0.0217
   82CHL1    H8 8489   5.792   5.717   6.706 -0.3898  0.5233 -3.0111
   82CHL1   C14 8490   5.877   5.858   6.850  0.3506 -0.1629 -0.8881
   82CHL1   H14 8491   5.903   5.966   6.850 -0.2288  0.0017  2.0288
   82CHL1   C15 8492   6.002   5.783   6.898  0.1995  0.3655 -0.2751
   82CHL1  H15A 8493   6.004   5.680   6.856  1.1546  0.6480 -0.9443
   82CHL1  H15B 8494   6.089   5.836   6.855  1.5012  0.5149  2.4353
   82CHL1   C16 8495   6.001   5.791   7.055  1.2097 -0.0543  0.2893
   82CHL1  H16A 8496   5.983   5.691   7.100  1.4355  0.3315  1.2447
   82CHL1  H16B 8497   6.094   5.839   7.091  2.6349 -1.8888 -0.8641
   82CHL1   C17 8498   5.866   5.863   7.091  0.2910  0.1764  0.1501
   82CHL1   H17 8499   5.888   5.972   7.090  2.0596 -0.1496  1.5255
   82CHL1   C13 8500   5.784   5.828   6.963  0.7082 -0.3912 -0.5762
   82CHL1   C18 8501   5.731   5.681   6.965  0.3791  0.2970  0.5543
   82CHL1  H18A 8502   5.695   5.657   7.067  0.4756 -0.4339  0.4234
   82CHL1  H18B 8503   5.645   5.657   6.899  2.2913 -0.0024 -1.9267
   82CHL1  H18C 8504   5.819   5.616   6.941 -0.2790 -0.6339  0.6150
   82CHL1   C12 8505   5.669   5.931   6.939 -0.1565  0.4532 -0.0425
   82CHL1  H12A 8506   5.587   5.907   7.010 -0.4884 -0.9777 -0.8869
   82CHL1  H12B 8507   5.692   6.037   6.962  1.1945  0.3973 -1.0691
   82CHL1   C11 8508   5.601   5.923   6.802 -0.6231  0.0061 -0.0216
   82CHL1  H11A 8509   5.535   5.834   6.796  0.7111 -1.0083  0.0135
   82CHL1  H11B 8510   5.541   6.015   6.784  0.4843  0.6883 -0.2671
   82CHL1    C9 8511   5.705   5.924   6.682 -0.2693  0.9095  0.2212
   82CHL1    H9 8512   5.754   6.024   6.681 -2.1798  1.8664 -0.5083
   82CHL1   C10 8513   5.642   5.909   6.542 -0.2693 -0.0710  0.0411
   82CHL1   C19 8514   5.553   5.789   6.533 -0.4146  0.5448 -0.3190
   82CHL1  H19A 8515   5.609   5.700   6.569 -0.8704  0.2368 -0.3621
   82CHL1  H19B 8516   5.470   5.801   6.605 -0.9209  0.5604 -0.9014
   82CHL1  H19C 8517   5.498   5.763   6.439 -4.6524  1.5063  1.7925
   82CHL1    C1 8518   5.558   6.034   6.515 -0.3213 -0.6581  0.1508
   82CHL1   H1A 8519   5.463   6.036   6.573 -1.2581 -2.6920 -1.2687
   82CHL1   H1B 8520   5.618   6.123   6.546 -3.2693  1.5817 -0.2950
   82CHL1    C2 8521   5.508   6.038   6.371 -0.4242 -0.9414  0.2984
   82CHL1   H2A 8522   5.460   6.138   6.361  1.6980  0.0515 -0.2918
   82CHL1   H2B 8523   5.442   5.953   6.347 -0.3265 -0.6271 -1.1202
   82CHL1   C20 8524   5.812   5.836   7.235 -0.0556 -0.6328  0.0826
   82CHL1   H20 8525   5.762   5.737   7.242 -0.4921 -0.5256 -1.2460
   82CHL1   C21 8526   5.704   5.943   7.264  0.9212  0.4208 -0.3319
   82CHL1  H21A 8527   5.672   5.937   7.370  1.8063  0.1592 -0.0789
   82CHL1  H21B 8528   5.615   5.911   7.206 -0.0805 -0.1054  1.4726
   82CHL1  H21C 8529   5.737   6.048   7.245  0.8681  0.5462  0.2497
   82CHL1   C22 8530   5.923   5.841   7.346 -0.1240 -0.0975 -0.7669
   82CHL1  H22A 8531   6.003   5.768   7.319  0.2385  0.1588 -0.3731
   82CHL1  H22B 8532   5.969   5.941   7.340  2.0196 -1.0646 -0.7214
   82CHL1   C23 8533   5.872   5.804   7.486 -0.5776  0.2531  0.4039
   82CHL1  H23A 8534   5.796   5.882   7.510 -1.4493 -0.6393  0.6122
   82CHL1  H23B 8535   5.816   5.710   7.468 -1.3808  0.6764  0.6639
   82CHL1   C24 8536   5.962   5.800   7.604  0.1977  0.1612  0.2613
   82CHL1  H24A 8537   6.055   5.750   7.571  0.7920  1.6738 -0.4406
   82CHL1  H24B 8538   5.975   5.903   7.644  1.8904 -0.7951  2.2231
   82CHL1   C25 8539   5.904   5.713   7.709 -0.3181 -0.0346  0.0123
   82CHL1   H25 8540   5.871   5.618   7.663  0.2406 -0.1034 -0.2518
   82CHL1   C26 8541   6.017   5.672   7.809  0.8731  0.0757  0.1010
   82CHL1  H26A 8542   5.962   5.619   7.889  0.7670 -1.9023 -1.2369
   82CHL1  H26B 8543   6.088   5.612   7.748 -0.0061 -0.1250 -0.7502
   82CHL1  H26C 8544   6.067   5.766   7.842  0.4203  0.2700  0.2412
   82CHL1   C27 8545   5.786   5.785   7.775  0.1574 -0.0348  0.4258
   82CHL1  H27A 8546   5.757   5.721   7.862 -1.0493  1.7057  1.3314
   82CHL1  H27B 8547   5.823   5.883   7.812  2.7096 -1.1910  1.0349
   82CHL1  H27C 8548   5.704   5.789   7.701  0.4092 -0.7443  0.1005
   83CHL1    C3 8549   4.068   6.531   6.262  0.2898 -0.8019  0.0557
   83CHL1    H3 8550   4.144   6.473   6.319  0.1000 -0.7363  0.3745
   83CHL1    O3 8551   4.098   6.503   6.126  0.0349 -0.1962 -0.4683
   83CHL1   H3' 8552   4.145   6.580   6.095 -1.5727  1.3926  0.8584
   83CHL1    C4 8553   3.924   6.496   6.308 -0.3083 -0.1668  0.4249
   83CHL1   H4A 8554   3.849   6.536   6.236  1.2847  2.0189 -0.1089
   83CHL1   H4B 8555   3.911   6.386   6.314  1.4863 -0.3077  2.0396
   83CHL1    C5 8556   3.916   6.549   6.445  0.1296 -0.0221 -0.4201
   83CHL1    C6 8557   3.876   6.462   6.542  0.0663 -0.4051 -0.5364
   83CHL1    H6 8558   3.848   6.363   6.505 -0.7669 -1.1137  1.8675
   83CHL1    C7 8559   3.885   6.493   6.688 -0.4544 -0.7781  0.0258
   83CHL1   H7A 8560   3.794   6.459   6.741 -1.0132 -0.3554 -0.6682
   83CHL1   H7B 8561   3.976   6.447   6.734  0.7085  0.0314 -1.4059
   83CHL1    C8 8562   3.883   6.642   6.719  0.7387  0.3345 -0.5322
   83CHL1    H8 8563   3.779   6.674   6.696  1.4694  2.0662 -1.4390
   83CHL1   C14 8564   3.915   6.665   6.873  0.4155  0.0969 -0.1378
   83CHL1   H14 8565   4.020   6.629   6.878 -0.6102 -3.1327 -0.3475
   83CHL1   C15 8566   3.842   6.590   6.983 -0.4359 -0.9548 -0.3935
   83CHL1  H15A 8567   3.732   6.590   6.965 -0.8452 -1.8128  1.9636
   83CHL1  H15B 8568   3.878   6.486   6.999  0.3547 -0.3811  1.6761
   83CHL1   C16 8569   3.885   6.667   7.107  0.6328  0.2598 -0.5570
   83CHL1  H16A 8570   3.797   6.700   7.166  0.9328 -0.6864  0.4379
   83CHL1  H16B 8571   3.942   6.604   7.180 -1.2442  2.7681  3.2112
   83CHL1   C17 8572   3.959   6.796   7.066 -0.1533 -0.4301 -0.4972
   83CHL1   H17 8573   4.068   6.779   7.069 -0.0168  0.4045 -0.5224
   83CHL1   C13 8574   3.920   6.813   6.918 -0.0637  0.2628  0.7174
   83CHL1   C18 8575   3.780   6.874   6.887  0.4093  0.1071  0.2468
   83CHL1  H18A 8576   3.695   6.818   6.930  0.2540 -0.0942 -0.3177
   83CHL1  H18B 8577   3.780   6.976   6.933 -1.4249 -0.8852  2.5466
   83CHL1  H18C 8578   3.760   6.878   6.778 -0.6798  0.8783  0.4723
   83CHL1   C12 8579   4.024   6.887   6.825  0.0647 -0.2395  0.3516
   83CHL1  H12A 8580   4.043   6.995   6.839 -0.4923  0.3096 -2.7471
   83CHL1  H12B 8581   4.117   6.834   6.854 -1.3958 -1.7694  2.4627
   83CHL1   C11 8582   4.002   6.865   6.672 -0.2094  0.4919 -0.0741
   83CHL1  H11A 8583   3.921   6.934   6.640  0.0271  1.1455  0.7164
   83CHL1  H11B 8584   4.093   6.904   6.622  0.6443 -0.0307  1.0365
   83CHL1    C9 8585   3.985   6.712   6.633 -1.1554 -0.3884  0.1566
   83CHL1    H9 8586   4.078   6.658   6.663 -1.7857 -1.9174 -0.5958
   83CHL1   C10 8587   3.974   6.685   6.481  0.0765 -0.0803  0.8403
   83CHL1   C19 8588   3.878   6.784   6.410 -0.8264  0.6526 -0.1345
   83CHL1  H19A 8589   3.855   6.749   6.306 -0.0102 -1.6775  0.4238
   83CHL1  H19B 8590   3.782   6.791   6.465 -1.4767  0.7439 -1.2506
   83CHL1  H19C 8591   3.917   6.888   6.404 -0.2295  0.4383 -0.0442
   83CHL1    C1 8592   4.120   6.708   6.428  0.1086  0.1691  0.7822
   83CHL1   H1A 8593   4.150   6.813   6.449  1.7843  0.0811 -0.9960
   83CHL1   H1B 8594   4.193   6.642   6.480 -0.2922 -2.5712 -1.9764
   83CHL1    C2 8595   4.120   6.676   6.277 -0.2190 -0.0333 -0.2277
   83CHL1   H2A 8596   4.227   6.674   6.244 -0.1918  0.4506 -0.1813
   83CHL1   H2B 8597   4.068   6.737   6.200  0.0042  0.4025 -0.0367
   83CHL1   C20 8598   3.918   6.914   7.158  0.3116  0.4174 -0.7411
   83CHL1   H20 8599   3.811   6.935   7.141 -0.4383 -2.9530 -0.4613
   83CHL1   C21 8600   3.990   7.044   7.103  0.0234  0.4900  0.3340
   83CHL1  H21A 8601   4.092   7.018   7.070  0.2226 -1.4548  2.3376
   83CHL1  H21B 8602   3.994   7.120   7.185  2.0488 -0.0411  0.7549
   83CHL1  H21C 8603   3.930   7.087   7.020 -2.6329  0.1759  2.0282
   83CHL1   C22 8604   3.953   6.892   7.305  0.3263  0.5448  0.1274
   83CHL1  H22A 8605   3.924   6.788   7.332  0.1198  0.8885  1.2550
   83CHL1  H22B 8606   4.063   6.893   7.324 -0.1338  2.0048  2.9669
   83CHL1   C23 8607   3.881   6.970   7.415 -0.3809 -1.4058  0.2583
   83CHL1  H23A 8608   3.927   7.070   7.428 -0.8179 -1.0497 -0.8559
   83CHL1  H23B 8609   3.771   6.975   7.397 -0.6328 -2.1856  1.5038
   83CHL1   C24 8610   3.907   6.899   7.553 -0.2015  0.1772  0.4028
   83CHL1  H24A 8611   3.875   6.795   7.534 -0.4760 -0.1695  2.6020
   83CHL1  H24B 8612   4.015   6.899   7.580 -0.0584  0.5786 -0.1433
   83CHL1   C25 8613   3.823   6.955   7.672  0.1167  0.0165 -0.7727
   83CHL1   H25 8614   3.719   6.945   7.636  0.6962  0.3635 -2.6205
   83CHL1   C26 8615   3.845   6.864   7.786  0.8097  0.1211 -0.1919
   83CHL1  H26A 8616   3.775   6.869   7.872 -0.0758 -0.0275 -0.9067
   83CHL1  H26B 8617   3.853   6.758   7.753 -0.2245 -0.9290  2.7360
   83CHL1  H26C 8618   3.947   6.891   7.822  0.2631  0.1005  1.4455
   83CHL1   C27 8619   3.854   7.093   7.720  0.0513 -0.4876 -1.1719
   83CHL1  H27A 8620   3.797   7.131   7.808  3.1156  0.6928  0.3697
   83CHL1  H27B 8621   3.964   7.096   7.733 -0.1924 -1.0308  1.3520
   83CHL1  H27C 8622   3.832   7.160   7.634 -1.7979 -0.1975 -0.4843
   84CHL1    C3 8623   6.384   1.804   6.272 -0.3411  0.3079 -0.1885
   84CHL1    H3 8624   6.489   1.842   6.277 -0.4916  0.7903 -0.6836
   84CHL1    O3 8625   6.358   1.771   6.136 -0.1972 -0.1182 -0.2036
   84CHL1   H3' 8626   6.268   1.738   6.135 -0.1062 -0.3513 -0.8334
   84CHL1    C4 8627   6.364   1.672   6.353  0.2477 -0.9553 -1.2315
   84CHL1   H4A 8628   6.266   1.626   6.329 -0.4212 -0.9727  1.3467
   84CHL1   H4B 8629   6.439   1.596   6.321  1.2521 -0.4561 -0.1230
   84CHL1    C5 8630   6.363   1.685   6.503  0.7989  0.9134 -0.6776
   84CHL1    C6 8631   6.443   1.618   6.585 -0.2452  0.2651  0.1849
   84CHL1    H6 8632   6.528   1.561   6.546  0.2752  1.9915 -1.3000
   84CHL1    C7 8633   6.436   1.629   6.730 -0.2764 -0.2543 -0.7460
   84CHL1   H7A 8634   6.434   1.522   6.760 -3.2702 -0.7192 -2.4238
   84CHL1   H7B 8635   6.527   1.679   6.771 -2.4256  2.2953  1.0730
   84CHL1    C8 8636   6.309   1.708   6.784  0.2494 -0.2274  0.2227
   84CHL1    H8 8637   6.225   1.636   6.787 -1.4563  1.6939 -0.3818
   84CHL1   C14 8638   6.342   1.751   6.918 -0.4805 -0.4163  0.7563
   84CHL1   H14 8639   6.425   1.824   6.908  0.2733 -1.1216  1.6939
   84CHL1   C15 8640   6.386   1.637   7.008 -0.2557 -0.2969  0.4564
   84CHL1  H15A 8641   6.330   1.544   6.984  0.6305 -0.6462 -0.2822
   84CHL1  H15B 8642   6.495   1.614   7.001 -0.4053 -0.4841 -1.4618
   84CHL1   C16 8643   6.359   1.687   7.150  0.0137 -0.1132  0.0301
   84CHL1  H16A 8644   6.290   1.612   7.195  0.3533 -1.0061 -0.9181
   84CHL1  H16B 8645   6.461   1.704   7.190 -0.6542  1.8124  0.9824
   84CHL1   C17 8646   6.292   1.835   7.136 -0.8108  0.2047 -0.6235
   84CHL1   H17 8647   6.382   1.899   7.125 -1.6007  1.0234 -2.4830
   84CHL1   C13 8648   6.229   1.832   6.990 -0.5771  0.0979 -0.7350
   84CHL1   C18 8649   6.098   1.749   7.002  0.2158 -0.3544  0.0695
   84CHL1  H18A 8650   6.065   1.721   6.900  0.6090 -1.7586  0.3255
   84CHL1  H18B 8651   6.112   1.649   7.047 -1.5886  0.8726  3.5343
   84CHL1  H18C 8652   6.030   1.815   7.059  0.9158 -0.1277  0.6513
   84CHL1   C12 8653   6.207   1.955   6.912  0.2244  0.3259 -0.4538
   84CHL1  H12A 8654   6.123   2.018   6.948 -0.4419 -0.6783 -0.2633
   84CHL1  H12B 8655   6.302   2.012   6.926  0.2451  0.2541 -0.3058
   84CHL1   C11 8656   6.171   1.919   6.770 -0.0417 -0.3223 -1.0724
   84CHL1  H11A 8657   6.078   1.859   6.760 -1.0008  0.6775  1.2822
   84CHL1  H11B 8658   6.162   2.018   6.721 -0.2154 -0.2452 -0.8848
   84CHL1    C9 8659   6.279   1.829   6.705  0.7093  0.2418  0.2909
   84CHL1    H9 8660   6.365   1.899   6.712 -0.4898  1.5003  3.7155
   84CHL1   C10 8661   6.257   1.785   6.556  0.4646 -0.0279  0.9728
   84CHL1   C19 8662   6.121   1.713   6.554  0.2682  1.1027 -0.6280
   84CHL1  H19A 8663   6.088   1.673   6.456  1.1252  0.0091 -0.4793
   84CHL1  H19B 8664   6.106   1.624   6.618 -0.4015  0.8934 -1.0667
   84CHL1  H19C 8665   6.041   1.785   6.582 -0.2144  1.2035 -2.2271
   84CHL1    C1 8666   6.262   1.914   6.478  0.0009  0.9395 -0.1779
   84CHL1   H1A 8667   6.163   1.962   6.492 -0.7054 -0.6487  0.3565
   84CHL1   H1B 8668   6.344   1.981   6.514  0.1193 -0.1290  1.5817
   84CHL1    C2 8669   6.275   1.909   6.322 -0.3215 -0.6967  0.1512
   84CHL1   H2A 8670   6.312   2.006   6.281 -1.0062  0.5271  2.3454
   84CHL1   H2B 8671   6.181   1.876   6.273 -1.1569 -0.7832  1.7768
   84CHL1   C20 8672   6.213   1.892   7.255  0.5603 -0.2236  0.8560
   84CHL1   H20 8673   6.123   1.943   7.214 -0.6289 -2.2310  0.9238
   84CHL1   C21 8674   6.311   1.999   7.327 -0.4533 -0.3220  0.1538
   84CHL1  H21A 8675   6.397   1.944   7.370 -1.7034 -2.2652  0.2577
   84CHL1  H21B 8676   6.270   2.049   7.417  0.4389 -2.2104  1.6505
   84CHL1  H21C 8677   6.352   2.076   7.259  0.1000  0.5127  1.4218
   84CHL1   C22 8678   6.156   1.790   7.355 -0.4162  0.1984  0.4852
   84CHL1  H22A 8679   6.124   1.695   7.308  0.1935  1.2029 -2.0569
   84CHL1  H22B 8680   6.239   1.764   7.424 -1.6887 -0.6036  1.7394
   84CHL1   C23 8681   6.035   1.840   7.430  0.1687  0.5016 -0.6306
   84CHL1  H23A 8682   6.068   1.923   7.496  0.7786 -0.3660  0.1883
   84CHL1  H23B 8683   5.968   1.883   7.353  0.2943 -0.4407 -1.2782
   84CHL1   C24 8684   5.965   1.741   7.522 -0.1615 -0.5892  0.5431
   84CHL1  H24A 8685   5.926   1.652   7.468 -0.3083 -0.4698  0.4496
   84CHL1  H24B 8686   6.033   1.705   7.601  0.5559  0.3610  0.3700
   84CHL1   C25 8687   5.846   1.810   7.596 -0.4067  0.5020  0.4690
   84CHL1   H25 8688   5.884   1.903   7.644 -0.5451  0.8218 -0.0460
   84CHL1   C26 8689   5.730   1.839   7.496  0.5322 -0.8681 -0.0793
   84CHL1  H26A 8690   5.663   1.910   7.548  1.0796 -0.4049  0.0054
   84CHL1  H26B 8691   5.767   1.909   7.418 -2.5117  1.6851  0.6683
   84CHL1  H26C 8692   5.685   1.753   7.442 -0.1203 -1.3014  1.1626
   84CHL1   C27 8693   5.790   1.715   7.706 -0.0598 -0.0729 -0.6869
   84CHL1  H27A 8694   5.773   1.616   7.657  1.4456  0.2753 -1.9794
   84CHL1  H27B 8695   5.876   1.692   7.774 -0.7306  0.7350  0.4541
   84CHL1  H27C 8696   5.705   1.755   7.764  0.7105 -0.4796  0.7564
   85CHL1    C3 8697   4.909   5.909   6.311  1.0855  0.0292 -0.3018
   85CHL1    H3 8698   4.882   5.802   6.325 -0.8035  0.4786 -0.4250
   85CHL1    O3 8699   4.879   5.940   6.178 -0.4708 -0.2172 -0.5704
   85CHL1   H3' 8700   4.878   6.036   6.171 -1.2511 -0.1090  0.7551
   85CHL1    C4 8701   4.831   5.999   6.407 -0.0798 -0.8204  0.0888
   85CHL1   H4A 8702   4.853   6.097   6.358 -0.7461 -0.1252  1.1626
   85CHL1   H4B 8703   4.722   5.980   6.394 -0.1056  0.8669 -2.6283
   85CHL1    C5 8704   4.871   5.996   6.554  0.4233  0.9808 -0.7545
   85CHL1    C6 8705   4.783   5.960   6.656  0.4540 -0.1501  0.6486
   85CHL1    H6 8706   4.679   5.931   6.635  0.6481 -1.2924  1.2472
   85CHL1    C7 8707   4.813   5.979   6.800 -0.0530  0.2950  0.0913
   85CHL1   H7A 8708   4.739   6.040   6.855  0.9722 -0.9087  2.9113
   85CHL1   H7B 8709   4.808   5.881   6.853 -0.7547  0.6562  0.7062
   85CHL1    C8 8710   4.946   6.057   6.826 -0.0834 -0.0884 -0.3273
   85CHL1    H8 8711   4.911   6.162   6.817 -3.0922 -0.9547  0.6545
   85CHL1   C14 8712   4.987   6.044   6.973 -0.3098  0.8182  0.1849
   85CHL1   H14 8713   5.003   5.935   6.987 -1.4560  0.3298 -2.0895
   85CHL1   C15 8714   4.888   6.089   7.081 -0.0897  0.1446  0.7390
   85CHL1  H15A 8715   4.813   6.164   7.047  1.7629  2.0141  0.6867
   85CHL1  H15B 8716   4.822   6.002   7.103 -1.6733  0.7387 -1.4281
   85CHL1   C16 8717   4.979   6.124   7.204 -0.1881  0.0267 -0.3990
   85CHL1  H16A 8718   4.956   6.229   7.231 -0.5914 -0.2217  0.2115
   85CHL1  H16B 8719   4.964   6.054   7.289 -0.1066  1.5423  0.8774
   85CHL1   C17 8720   5.125   6.111   7.156  0.4364 -0.3362 -0.1385
   85CHL1   H17 8721   5.154   6.005   7.170 -1.1300 -0.5663  1.4716
   85CHL1   C13 8722   5.112   6.127   7.003 -0.7428  1.0874 -0.3054
   85CHL1   C18 8723   5.093   6.278   6.983  0.0273 -0.0799  0.3228
   85CHL1  H18A 8724   4.994   6.324   7.001  0.2632  0.1638  1.0567
   85CHL1  H18B 8725   5.165   6.336   7.045 -0.4270 -1.6172  2.3733
   85CHL1  H18C 8726   5.113   6.310   6.879  0.1391  0.0726  0.3902
   85CHL1   C12 8727   5.223   6.064   6.916 -0.3720  0.1444  0.2902
   85CHL1  H12A 8728   5.314   6.126   6.929 -2.3552  2.8554  1.6576
   85CHL1  H12B 8729   5.241   5.963   6.959 -1.6931 -1.2479 -2.2825
   85CHL1   C11 8730   5.192   6.062   6.767 -0.1272  0.3595 -0.2514
   85CHL1  H11A 8731   5.206   6.169   6.740  1.8626 -0.0574 -0.9224
   85CHL1  H11B 8732   5.267   6.026   6.694 -0.7977 -2.1879  0.2536
   85CHL1    C9 8733   5.057   6.010   6.729 -0.7393  0.4900  0.0026
   85CHL1    H9 8734   5.062   5.899   6.741 -3.0959  0.3083 -0.5296
   85CHL1   C10 8735   5.013   6.026   6.580  0.5419 -0.0217  0.1547
   85CHL1   C19 8736   5.041   6.172   6.528 -0.8544  0.3792  0.2346
   85CHL1  H19A 8737   5.038   6.176   6.417  0.4311 -0.4434  0.1604
   85CHL1  H19B 8738   4.976   6.247   6.578 -0.3109  1.6206 -0.8752
   85CHL1  H19C 8739   5.146   6.201   6.548 -0.5462 -0.5859  0.0059
   85CHL1    C1 8740   5.094   5.926   6.493 -0.1980  0.3229 -0.6240
   85CHL1   H1A 8741   5.203   5.941   6.504 -0.1484 -0.1901 -0.4045
   85CHL1   H1B 8742   5.085   5.818   6.518 -0.3571  0.3846 -0.4055
   85CHL1    C2 8743   5.062   5.922   6.341 -0.1285  0.3400  0.0947
   85CHL1   H2A 8744   5.107   5.834   6.289 -1.2693  0.0898 -0.5066
   85CHL1   H2B 8745   5.101   6.016   6.298  0.2103  0.5713  0.9041
   85CHL1   C20 8746   5.230   6.193   7.242  0.3304  0.6434  0.2324
   85CHL1   H20 8747   5.204   6.301   7.242  0.1453  0.6065 -0.7633
   85CHL1   C21 8748   5.369   6.172   7.195  0.1665  0.2237  0.8854
   85CHL1  H21A 8749   5.377   6.063   7.172 -3.2179  0.4786 -1.9427
   85CHL1  H21B 8750   5.451   6.201   7.263  1.0264  1.3865 -0.6086
   85CHL1  H21C 8751   5.394   6.219   7.097 -0.6348 -0.9246  0.1163
   85CHL1   C22 8752   5.233   6.156   7.395  0.4418 -0.0613  0.5413
   85CHL1  H22A 8753   5.291   6.235   7.449  0.9298 -0.5219  0.6944
   85CHL1  H22B 8754   5.127   6.176   7.422  0.9088  3.5037 -0.0760
   85CHL1   C23 8755   5.271   6.009   7.428 -0.0261 -0.1540 -0.4633
   85CHL1  H23A 8756   5.196   5.938   7.387 -0.2396  0.4493 -1.1381
   85CHL1  H23B 8757   5.369   5.983   7.383 -0.1450  0.5530 -1.1502
   85CHL1   C24 8758   5.263   5.977   7.579 -0.1358  1.1543  0.3265
   85CHL1  H24A 8759   5.161   6.011   7.607 -0.8485 -1.1540  0.7057
   85CHL1  H24B 8760   5.260   5.869   7.605 -1.9188  1.7470  2.7985
   85CHL1   C25 8761   5.365   6.051   7.672  0.2175  0.0571  0.2049
   85CHL1   H25 8762   5.348   6.159   7.652 -0.1444  0.0144  0.2665
   85CHL1   C26 8763   5.334   6.026   7.815 -0.3681 -0.8385 -0.5594
   85CHL1  H26A 8764   5.224   6.025   7.833 -0.1225 -1.0629  1.0250
   85CHL1  H26B 8765   5.369   5.926   7.847  0.4126 -0.8921 -1.5724
   85CHL1  H26C 8766   5.380   6.103   7.882  0.9673 -0.9340 -1.3545
   85CHL1   C27 8767   5.501   5.999   7.641  0.1601 -0.2449  0.3723
   85CHL1  H27A 8768   5.495   5.888   7.636  0.8005 -0.3849  2.3385
   85CHL1  H27B 8769   5.542   6.036   7.545 -2.3847 -0.3264 -0.7943
   85CHL1  H27C 8770   5.579   6.027   7.714 -2.0294 -0.1938  2.7622
   86CHL1    C3 8771   7.142   4.207   6.157 -0.0860  0.0316  0.2761
   86CHL1    H3 8772   7.215   4.282   6.195  0.0494 -1.0233  2.1855
   86CHL1    O3 8773   7.151   4.213   6.012  0.2930  0.1750 -0.3409
   86CHL1   H3' 8774   7.102   4.140   5.973  0.0629  0.7123 -1.0651
   86CHL1    C4 8775   7.176   4.068   6.217 -0.0880 -0.5354  0.3313
   86CHL1   H4A 8776   7.117   3.998   6.154  1.4666 -1.6239  0.0500
   86CHL1   H4B 8777   7.278   4.044   6.180 -1.0327 -4.9169  0.3548
   86CHL1    C5 8778   7.162   4.063   6.367 -0.4687 -0.8864 -0.3858
   86CHL1    C6 8779   7.271   4.036   6.434 -0.0983  0.9641  0.0535
   86CHL1    H6 8780   7.363   4.004   6.383  0.4950  1.1689  0.9732
   86CHL1    C7 8781   7.269   4.038   6.583  0.0715  0.0400 -0.4437
   86CHL1   H7A 8782   7.297   3.939   6.625 -3.3479 -0.9569 -0.3788
   86CHL1   H7B 8783   7.338   4.116   6.620  0.8374 -0.4103 -0.9200
   86CHL1    C8 8784   7.134   4.062   6.650  0.6307 -0.1064  0.5105
   86CHL1    H8 8785   7.072   3.970   6.656  0.1922 -0.0713 -2.6446
   86CHL1   C14 8786   7.155   4.100   6.796  0.0108  1.1329  0.2032
   86CHL1   H14 8787   7.210   4.195   6.785  0.6257  0.3810 -4.0252
   86CHL1   C15 8788   7.241   4.005   6.885 -0.0538 -0.5574 -0.0509
   86CHL1  H15A 8789   7.210   3.900   6.870  0.2044 -0.6583  0.1222
   86CHL1  H15B 8790   7.351   4.010   6.868 -0.2243  3.7732 -0.4447
   86CHL1   C16 8791   7.206   4.051   7.028 -0.0647  0.6165  0.7574
   86CHL1  H16A 8792   7.187   3.961   7.091  0.5342  1.0489  1.5688
   86CHL1  H16B 8793   7.288   4.109   7.075  1.3985 -0.3677 -0.5254
   86CHL1   C17 8794   7.083   4.144   7.012  0.2550  0.3799 -0.1398
   86CHL1   H17 8795   7.128   4.244   6.994 -1.0494  1.0484  0.2727
   86CHL1   C13 8796   7.026   4.126   6.866  0.2751 -0.8126 -0.7697
   86CHL1   C18 8797   6.941   3.994   6.878  0.0410 -0.2538 -0.8798
   86CHL1  H18A 8798   6.908   3.953   6.780 -0.8906 -1.0897 -0.2303
   86CHL1  H18B 8799   7.001   3.914   6.926  1.2019 -0.4410 -2.5953
   86CHL1  H18C 8800   6.843   4.010   6.929  1.2477  4.8235  0.1194
   86CHL1   C12 8801   6.955   4.248   6.808  0.1146 -0.3873  0.2416
   86CHL1  H12A 8802   6.857   4.266   6.857 -0.4260 -0.5043 -0.7721
   86CHL1  H12B 8803   7.011   4.344   6.814  3.3947 -2.1358 -1.2302
   86CHL1   C11 8804   6.933   4.224   6.657 -0.3342 -0.3742  0.3514
   86CHL1  H11A 8805   6.856   4.144   6.647 -0.0646 -0.8612  1.9772
   86CHL1  H11B 8806   6.887   4.305   6.596  0.8780 -0.8061 -1.1498
   86CHL1    C9 8807   7.056   4.174   6.577  0.0516 -0.0730  0.7990
   86CHL1    H9 8808   7.123   4.263   6.580  0.8179 -0.5792 -0.6888
   86CHL1   C10 8809   7.039   4.137   6.430  0.0694  0.4644  1.0275
   86CHL1   C19 8810   6.932   4.038   6.422  1.3378 -0.1874  0.3660
   86CHL1  H19A 8811   6.957   3.950   6.485  3.7288  0.0154 -0.2744
   86CHL1  H19B 8812   6.840   4.079   6.470  1.6478 -0.3864  1.1319
   86CHL1  H19C 8813   6.902   3.989   6.327 -2.6492 -0.8847  1.8875
   86CHL1    C1 8814   6.996   4.264   6.350  0.7305 -0.1697  0.2698
   86CHL1   H1A 8815   6.891   4.287   6.374 -0.0505  0.8077 -3.7551
   86CHL1   H1B 8816   7.073   4.329   6.397  1.4197 -0.0034 -1.0675
   86CHL1    C2 8817   7.010   4.259   6.202  0.5149 -0.0580  0.4218
   86CHL1   H2A 8818   6.996   4.364   6.167 -0.9689 -0.9653 -1.8420
   86CHL1   H2B 8819   6.920   4.212   6.156 -0.6857  0.4815  2.1682
   86CHL1   C20 8820   6.982   4.161   7.126 -0.2612  0.2114 -0.3819
   86CHL1   H20 8821   6.893   4.214   7.087 -0.2308 -1.5203 -2.9781
   86CHL1   C21 8822   7.059   4.245   7.219 -0.5004 -0.5870  0.2091
   86CHL1  H21A 8823   7.117   4.329   7.175 -0.1966 -1.8553 -1.8591
   86CHL1  H21B 8824   7.142   4.202   7.279  0.9913  0.9741 -0.7079
   86CHL1  H21C 8825   6.995   4.286   7.301 -1.0174  0.1937 -0.5832
   86CHL1   C22 8826   6.947   4.022   7.197  0.4992  0.2565 -0.0831
   86CHL1  H22A 8827   6.887   3.960   7.128  0.1861  1.3979 -0.8325
   86CHL1  H22B 8828   7.044   3.974   7.222  1.7056  1.5876 -2.1103
   86CHL1   C23 8829   6.865   4.034   7.328 -0.4645  0.1368  0.0490
   86CHL1  H23A 8830   6.925   4.090   7.403 -1.3738  2.6327 -1.0437
   86CHL1  H23B 8831   6.778   4.096   7.300 -0.4337  1.0493  1.8997
   86CHL1   C24 8832   6.826   3.893   7.387  0.2503 -0.4620  0.6107
   86CHL1  H24A 8833   6.792   3.820   7.311  0.1511 -0.3472  0.5444
   86CHL1  H24B 8834   6.919   3.856   7.436  0.7259 -1.6902 -1.1695
   86CHL1   C25 8835   6.715   3.899   7.498 -0.3822 -0.0642  0.5095
   86CHL1   H25 8836   6.713   3.797   7.543  1.0499  0.7940  2.5698
   86CHL1   C26 8837   6.744   3.997   7.612 -0.0676 -0.4116  0.3835
   86CHL1  H26A 8838   6.719   4.096   7.569  3.4936 -0.4150 -1.9074
   86CHL1  H26B 8839   6.694   3.971   7.708  1.7540 -0.1371  1.4227
   86CHL1  H26C 8840   6.852   3.999   7.635  0.2011  0.5595 -0.9055
   86CHL1   C27 8841   6.574   3.926   7.439 -0.0739 -0.0580  0.0137
   86CHL1  H27A 8842   6.587   4.005   7.363  1.8437  0.3595  0.7457
   86CHL1  H27B 8843   6.540   3.833   7.389  0.0114 -1.8092  3.0455
   86CHL1  H27C 8844   6.511   3.968   7.521  2.6346  2.9119  0.6399
   87CHL1    C3 8845   0.767   1.968   6.291 -0.4659  0.9082  0.1445
   87CHL1    H3 8846   0.688   2.023   6.347 -1.9715  2.2920 -3.2076
   87CHL1    O3 8847   0.716   1.949   6.162 -0.1583 -0.0096 -0.2754
   87CHL1   H3' 8848   0.761   1.873   6.125 -0.8957 -1.2172  1.2823
   87CHL1    C4 8849   0.895   2.049   6.293  0.1529  0.0839 -0.3853
   87CHL1   H4A 8850   0.968   2.000   6.225 -0.1112  1.8583 -1.9777
   87CHL1   H4B 8851   0.875   2.145   6.240 -0.3257  1.5561  2.3254
   87CHL1    C5 8852   0.956   2.071   6.429 -0.0996  0.1145  0.2739
   87CHL1    C6 8853   0.988   2.193   6.472 -0.0597 -0.2363 -0.7982
   87CHL1    H6 8854   0.979   2.282   6.409 -1.6002 -0.0616 -0.3587
   87CHL1    C7 8855   1.053   2.203   6.614 -0.3114 -0.3069 -0.3856
   87CHL1   H7A 8856   1.148   2.261   6.614 -0.5877  0.1600  0.4725
   87CHL1   H7B 8857   0.989   2.260   6.685  0.0091 -2.2397  1.5144
   87CHL1    C8 8858   1.083   2.075   6.690 -0.0768 -0.8300  0.0358
   87CHL1    H8 8859   1.181   2.037   6.657  0.7857  1.4502 -0.1607
   87CHL1   C14 8860   1.108   2.107   6.834  0.2411  0.3051  0.2173
   87CHL1   H14 8861   1.010   2.149   6.867 -0.3616 -0.8378 -0.0958
   87CHL1   C15 8862   1.221   2.215   6.860  0.1221 -0.4555  0.3785
   87CHL1  H15A 8863   1.312   2.183   6.804  0.5569  0.4626  0.5609
   87CHL1  H15B 8864   1.199   2.322   6.842  1.4856  0.5453  4.1910
   87CHL1   C16 8865   1.257   2.188   7.010  0.0297  0.3351  0.1031
   87CHL1  H16A 8866   1.361   2.153   7.024 -1.2036 -3.3681  0.6048
   87CHL1  H16B 8867   1.234   2.280   7.067  1.3770  0.8970 -0.2448
   87CHL1   C17 8868   1.150   2.076   7.056 -0.2814  0.0461  0.3772
   87CHL1   H17 8869   1.063   2.134   7.092  0.8219  1.2008  1.2400
   87CHL1   C13 8870   1.122   1.990   6.927 -0.4975 -0.2805  0.5624
   87CHL1   C18 8871   1.257   1.911   6.891  0.3229  0.2009  0.6221
   87CHL1  H18A 8872   1.350   1.971   6.891  0.6687 -0.3242  0.2634
   87CHL1  H18B 8873   1.260   1.822   6.957 -0.6433 -0.9104 -0.7733
   87CHL1  H18C 8874   1.248   1.885   6.783  0.8315  1.7795  0.1919
   87CHL1   C12 8875   0.999   1.906   6.918  0.1346 -0.2040 -0.0149
   87CHL1  H12A 8876   1.018   1.810   6.970 -1.0740  0.1599  1.1427
   87CHL1  H12B 8877   0.908   1.954   6.961  1.1556  1.1247  0.7273
   87CHL1   C11 8878   0.969   1.861   6.765 -0.0836 -0.0826 -0.8000
   87CHL1  H11A 8879   1.054   1.798   6.730  0.4397 -0.1268  0.5061
   87CHL1  H11B 8880   0.870   1.810   6.768 -0.0578 -0.3304 -3.3888
   87CHL1    C9 8881   0.966   1.983   6.671 -0.6921 -0.4529 -0.5167
   87CHL1    H9 8882   0.872   2.035   6.700 -0.1583  0.8400 -1.0879
   87CHL1   C10 8883   0.951   1.945   6.518 -0.1251  0.1938 -0.0651
   87CHL1   C19 8884   1.080   1.864   6.468 -0.1906  0.2235  0.1176
   87CHL1  H19A 8885   1.099   1.770   6.524  0.0836  0.5169  0.5192
   87CHL1  H19B 8886   1.071   1.828   6.363  0.2544 -0.7168  0.3906
   87CHL1  H19C 8887   1.172   1.925   6.476 -1.4936  2.0723  1.2529
   87CHL1    C1 8888   0.832   1.845   6.500 -0.4935  0.8838 -0.6675
   87CHL1   H1A 8889   0.867   1.754   6.554  0.0741  1.5578  0.1128
   87CHL1   H1B 8890   0.745   1.874   6.564 -0.7243 -1.9692  0.4018
   87CHL1    C2 8891   0.789   1.829   6.355  0.1425  0.1208 -0.3246
   87CHL1   H2A 8892   0.692   1.774   6.352  1.2977 -2.0026  0.5206
   87CHL1   H2B 8893   0.867   1.771   6.301  0.8125 -0.5576  1.3326
   87CHL1   C20 8894   1.196   1.995   7.189  0.3662 -0.0684 -0.4109
   87CHL1   H20 8895   1.276   1.925   7.158  1.0998  0.0208  1.2093
   87CHL1   C21 8896   1.077   1.906   7.244 -0.9943  0.2648 -0.3731
   87CHL1  H21A 8897   1.112   1.865   7.342 -0.6347  0.7826 -0.2806
   87CHL1  H21B 8898   1.062   1.821   7.174  0.2240  0.1662 -0.5297
   87CHL1  H21C 8899   0.983   1.961   7.264 -0.7445  0.7357 -0.5031
   87CHL1   C22 8900   1.267   2.085   7.296  0.6181  0.0471  0.2520
   87CHL1  H22A 8901   1.364   2.114   7.249 -0.6594  0.0597 -2.4978
   87CHL1  H22B 8902   1.219   2.184   7.312 -0.6459 -0.2687 -1.4473
   87CHL1   C23 8903   1.291   2.022   7.432 -0.0660 -0.1675 -0.6621
   87CHL1  H23A 8904   1.192   1.991   7.472 -0.3412  1.8392  0.2522
   87CHL1  H23B 8905   1.359   1.935   7.417  0.2311 -0.1519  0.5054
   87CHL1   C24 8906   1.362   2.113   7.530  0.3755 -0.0546  0.7543
   87CHL1  H24A 8907   1.449   2.149   7.470  1.9125 -1.7177  1.9051
   87CHL1  H24B 8908   1.305   2.205   7.554  0.1001  0.9246 -3.3498
   87CHL1   C25 8909   1.397   2.049   7.666  0.6932 -0.9458  0.1002
   87CHL1   H25 8910   1.464   1.961   7.655  0.2733 -1.2294 -0.2047
   87CHL1   C26 8911   1.453   2.138   7.782  0.0984 -1.0077  0.4280
   87CHL1  H26A 8912   1.383   2.220   7.808  1.9203  1.0762 -1.0592
   87CHL1  H26B 8913   1.488   2.078   7.869  3.7684  0.6870  0.2402
   87CHL1  H26C 8914   1.541   2.193   7.741 -1.2878  0.6611 -0.3862
   87CHL1   C27 8915   1.270   1.984   7.726 -0.3384 -0.8140  0.1438
   87CHL1  H27A 8916   1.300   1.926   7.816 -0.9899 -0.0217  0.8848
   87CHL1  H27B 8917   1.191   2.062   7.737  0.1983 -0.2022 -0.3091
   87CHL1  H27C 8918   1.230   1.902   7.662 -2.0727  0.3720 -0.3350
   88CHL1    C3 8919   4.692   0.058   6.263 -0.0183 -0.2270  0.0741
   88CHL1    H3 8920   4.677  -0.018   6.342  1.3688 -0.3734  0.2137
   88CHL1    O3 8921   4.650   0.005   6.135 -0.1945 -0.5026 -0.1086
   88CHL1   H3' 8922   4.566  -0.039   6.153 -0.0999 -0.8683 -0.5382
   88CHL1    C4 8923   4.606   0.186   6.296 -0.0575  0.2917 -0.9896
   88CHL1   H4A 8924   4.630   0.274   6.232 -1.0213  1.4906  0.2711
   88CHL1   H4B 8925   4.496   0.169   6.291 -0.2705  1.0505  0.7169
   88CHL1    C5 8926   4.643   0.229   6.437  0.2374  0.5750 -0.1140
   88CHL1    C6 8927   4.552   0.230   6.533  0.1931  0.0351 -0.8300
   88CHL1    H6 8928   4.447   0.216   6.506 -0.6193  1.9830  1.1347
   88CHL1    C7 8929   4.589   0.264   6.680 -0.1851 -0.2784 -0.0772
   88CHL1   H7A 8930   4.507   0.319   6.732 -1.4906 -1.5101 -0.7978
   88CHL1   H7B 8931   4.604   0.166   6.730  2.0074 -0.4878 -1.0644
   88CHL1    C8 8932   4.717   0.344   6.694  0.1709 -0.1206  1.0144
   88CHL1    H8 8933   4.698   0.443   6.647 -0.8342  0.2560  2.1857
   88CHL1   C14 8934   4.755   0.350   6.837 -0.2443 -0.4744  0.3637
   88CHL1   H14 8935   4.779   0.243   6.858 -0.7190 -0.3279  1.7038
   88CHL1   C15 8936   4.643   0.388   6.940 -0.1562  0.5366 -0.6746
   88CHL1  H15A 8937   4.579   0.472   6.905 -2.2128  0.0284  1.7141
   88CHL1  H15B 8938   4.575   0.309   6.979  2.8366 -1.4389  0.6735
   88CHL1   C16 8939   4.736   0.419   7.059 -0.2112 -0.5894 -0.8414
   88CHL1  H16A 8940   4.702   0.520   7.089 -1.8989 -1.2141 -0.5467
   88CHL1  H16B 8941   4.719   0.338   7.133  1.0790 -0.7625 -0.7281
   88CHL1   C17 8942   4.886   0.434   7.011 -0.7513  0.1833  0.6478
   88CHL1   H17 8943   4.930   0.336   7.038 -3.1333 -0.5605  1.9453
   88CHL1   C13 8944   4.881   0.439   6.862 -0.1244  0.2750 -0.6848
   88CHL1   C18 8945   4.848   0.578   6.807 -0.2290  0.0251  0.5098
   88CHL1  H18A 8946   4.926   0.654   6.830 -1.0452  1.1215 -0.2985
   88CHL1  H18B 8947   4.851   0.582   6.696  4.0472 -1.2128  0.4674
   88CHL1  H18C 8948   4.752   0.621   6.841 -0.5157 -0.3540  0.1804
   88CHL1   C12 8949   4.996   0.371   6.789  0.2276 -0.3612  0.7407
   88CHL1  H12A 8950   5.082   0.442   6.795  0.8653 -1.2089  1.9085
   88CHL1  H12B 8951   5.022   0.273   6.835  0.0669  0.1409  1.9250
   88CHL1   C11 8952   4.960   0.340   6.639  0.2630  0.1050 -1.3721
   88CHL1  H11A 8953   4.981   0.437   6.587  0.9164  1.9807  2.2592
   88CHL1  H11B 8954   5.035   0.268   6.600 -0.4576 -0.3885 -1.8589
   88CHL1    C9 8955   4.824   0.273   6.612  0.5823 -1.0473 -0.1991
   88CHL1    H9 8956   4.819   0.171   6.655  1.0422 -0.4717  1.2579
   88CHL1   C10 8957   4.791   0.263   6.466 -0.2471 -0.5123 -0.1433
   88CHL1   C19 8958   4.814   0.404   6.397  0.5433  0.9617  0.0726
   88CHL1  H19A 8959   4.914   0.447   6.419  1.1569  0.7079 -2.1715
   88CHL1  H19B 8960   4.791   0.412   6.289  0.4246  2.0381  0.1689
   88CHL1  H19C 8961   4.733   0.471   6.434  1.4150  1.4801  1.0991
   88CHL1    C1 8962   4.876   0.149   6.406  0.1186 -0.0149  0.2962
   88CHL1   H1A 8963   4.980   0.188   6.401 -0.7711  2.2465 -1.7075
   88CHL1   H1B 8964   4.867   0.063   6.475  0.5798 -0.7797 -0.5773
   88CHL1    C2 8965   4.842   0.096   6.260 -0.3413  0.2074 -0.1867
   88CHL1   H2A 8966   4.907   0.011   6.229  0.7797  0.7598  0.6237
   88CHL1   H2B 8967   4.856   0.181   6.189 -0.5942  1.6001  1.4117
   88CHL1   C20 8968   4.958   0.539   7.080 -0.6330 -0.1712  0.4704
   88CHL1   H20 8969   4.921   0.634   7.037  0.9071  0.1871 -0.0972
   88CHL1   C21 8970   5.106   0.534   7.057  0.0688  0.9156 -0.2564
   88CHL1  H21A 8971   5.157   0.601   7.129 -0.9230  1.7078 -0.2923
   88CHL1  H21B 8972   5.137   0.550   6.951 -0.5639  0.8396 -0.4562
   88CHL1  H21C 8973   5.139   0.431   7.082  0.4743  1.0353 -0.3031
   88CHL1   C22 8974   4.930   0.548   7.233 -0.0130  0.3879  0.3828
   88CHL1  H22A 8975   4.993   0.630   7.272 -0.5050 -0.1292  2.3315
   88CHL1  H22B 8976   4.826   0.579   7.254 -0.4390  0.0459 -1.1966
   88CHL1   C23 8977   4.968   0.429   7.319 -0.4703  0.2103 -0.6302
   88CHL1  H23A 8978   4.909   0.343   7.283  2.3165 -2.0368 -0.0429
   88CHL1  H23B 8979   5.074   0.398   7.308 -0.2281  0.1096  1.7231
   88CHL1   C24 8980   4.945   0.460   7.468 -0.3276 -0.3119 -0.1132
   88CHL1  H24A 8981   4.997   0.398   7.544  1.7961 -1.4769 -2.4280
   88CHL1  H24B 8982   4.974   0.565   7.490  1.1200 -0.8523  0.6808
   88CHL1   C25 8983   4.796   0.455   7.506  0.4846  0.0824  0.2652
   88CHL1   H25 8984   4.731   0.494   7.424  1.6183  0.3473 -0.5186
   88CHL1   C26 8985   4.743   0.316   7.541  0.3354  0.5811  0.0782
   88CHL1  H26A 8986   4.806   0.262   7.614  2.0495  2.9672  0.4271
   88CHL1  H26B 8987   4.639   0.327   7.577  0.0029  0.6194 -0.8640
   88CHL1  H26C 8988   4.728   0.254   7.449 -2.6453  1.4682 -0.1018
   88CHL1   C27 8989   4.774   0.559   7.620 -0.3110  0.0525  0.1097
   88CHL1  H27A 8990   4.670   0.586   7.646 -1.3177 -1.8629 -1.8121
   88CHL1  H27B 8991   4.829   0.529   7.712 -0.5068  3.2561  1.3429
   88CHL1  H27C 8992   4.809   0.661   7.590 -3.6893  0.6599 -2.0151
   89CHL1    C3 8993   7.225   4.665   6.276 -0.6074  0.4051  0.1618
   89CHL1    H3 8994   7.135   4.603   6.292 -1.0764  0.7611 -0.9892
   89CHL1    O3 8995   7.227   4.720   6.147  0.1682 -0.5042 -0.6595
   89CHL1   H3' 8996   7.223   4.814   6.164 -0.4040 -0.6233 -0.1222
   89CHL1    C4 8997   7.234   4.772   6.383  0.0034  0.3577  0.3883
   89CHL1   H4A 8998   7.314   4.847   6.368  1.7192 -1.3948  0.5175
   89CHL1   H4B 8999   7.142   4.835   6.382  0.8120  1.5848 -2.9775
   89CHL1    C5 9000   7.247   4.709   6.526  0.1105 -0.1925 -0.2131
   89CHL1    C6 9001   7.167   4.750   6.628  0.0773 -0.3863 -0.3384
   89CHL1    H6 9002   7.092   4.829   6.609  0.1841 -0.3104 -0.4464
   89CHL1    C7 9003   7.191   4.719   6.769  0.3125  0.2793  0.0603
   89CHL1   H7A 9004   7.195   4.817   6.821  2.7617  0.1153  0.2059
   89CHL1   H7B 9005   7.114   4.650   6.810  1.3634 -0.5892  0.5975
   89CHL1    C8 9006   7.326   4.642   6.795  0.0966 -0.0777  0.4380
   89CHL1    H8 9007   7.406   4.718   6.795  1.9076 -1.9571  1.3532
   89CHL1   C14 9008   7.336   4.578   6.931 -0.6523 -0.1926  0.1590
   89CHL1   H14 9009   7.256   4.502   6.931 -1.1159  0.2940 -0.6734
   89CHL1   C15 9010   7.303   4.664   7.060 -0.5201  0.3288 -0.2104
   89CHL1  H15A 9011   7.358   4.760   7.046 -1.2299  0.6381 -0.8873
   89CHL1  H15B 9012   7.194   4.682   7.070 -1.1846 -2.1247 -2.2961
   89CHL1   C16 9013   7.366   4.592   7.179 -0.3903  0.4710  0.1886
   89CHL1  H16A 9014   7.443   4.661   7.220 -0.1813  0.1207  0.3894
   89CHL1  H16B 9015   7.297   4.552   7.256  0.6098 -0.3049  0.7060
   89CHL1   C17 9016   7.452   4.468   7.123 -0.0901  0.3020  0.1861
   89CHL1   H17 9017   7.391   4.376   7.122  1.7448 -0.9201 -1.7760
   89CHL1   C13 9018   7.466   4.499   6.968 -0.6933  0.1637  0.7706
   89CHL1   C18 9019   7.582   4.598   6.938 -0.6751 -0.3150  0.2394
   89CHL1  H18A 9020   7.573   4.684   7.007 -1.2487 -1.6033  1.8152
   89CHL1  H18B 9021   7.677   4.556   6.978 -1.3876 -0.8390  1.4517
   89CHL1  H18C 9022   7.594   4.636   6.835  1.4371 -0.2510  0.4903
   89CHL1   C12 9023   7.469   4.375   6.864  0.2476  0.4135 -0.2524
   89CHL1  H12A 9024   7.568   4.325   6.873  1.1551  2.3653  1.0834
   89CHL1  H12B 9025   7.391   4.299   6.885  0.7341 -0.6882 -2.3215
   89CHL1   C11 9026   7.455   4.424   6.712 -0.1786  0.4777  0.6124
   89CHL1  H11A 9027   7.551   4.475   6.690  0.4192 -1.4386 -1.3961
   89CHL1  H11B 9028   7.444   4.332   6.650  2.9845  1.5799 -1.7056
   89CHL1    C9 9029   7.344   4.534   6.688  0.4288 -0.2699  0.7011
   89CHL1    H9 9030   7.254   4.470   6.683  0.8346 -0.9306  1.7761
   89CHL1   C10 9031   7.356   4.605   6.547 -0.4452  0.5080 -0.2004
   89CHL1   C19 9032   7.492   4.688   6.544  0.2203 -0.0997 -0.7393
   89CHL1  H19A 9033   7.505   4.770   6.618  0.2003  2.0168 -2.9755
   89CHL1  H19B 9034   7.581   4.621   6.552  0.3656  0.4088  2.6344
   89CHL1  H19C 9035   7.506   4.737   6.445  0.2949 -0.0446 -0.7017
   89CHL1    C1 9036   7.360   4.503   6.426  0.3361 -0.2657  0.2861
   89CHL1   H1A 9037   7.452   4.441   6.432 -1.0815 -2.6207 -1.5300
   89CHL1   H1B 9038   7.280   4.427   6.439  0.3090 -0.5413 -1.3963
   89CHL1    C2 9039   7.349   4.570   6.289  0.1103 -0.5000 -0.2006
   89CHL1   H2A 9040   7.337   4.484   6.219 -3.3198 -1.5554  1.5729
   89CHL1   H2B 9041   7.447   4.618   6.268 -0.4242 -0.0400 -1.6565
   89CHL1   C20 9042   7.568   4.433   7.217 -0.3025 -0.3759 -0.0818
   89CHL1   H20 9043   7.641   4.516   7.218  1.0324 -1.5221  1.3656
   89CHL1   C21 9044   7.646   4.307   7.163 -0.2923 -0.3412  0.6897
   89CHL1  H21A 9045   7.736   4.303   7.228 -1.0672  1.4819  1.9438
   89CHL1  H21B 9046   7.668   4.329   7.056 -1.1369  0.6514  0.6996
   89CHL1  H21C 9047   7.587   4.213   7.168 -0.4109 -0.3471 -0.5132
   89CHL1   C22 9048   7.535   4.408   7.369 -0.2328  0.4887  0.4701
   89CHL1  H22A 9049   7.621   4.366   7.425  0.0939  2.0784  1.1939
   89CHL1  H22B 9050   7.514   4.505   7.420  1.6633  1.2236 -0.0959
   89CHL1   C23 9051   7.404   4.316   7.391  0.1053 -0.9246  0.3653
   89CHL1  H23A 9052   7.314   4.374   7.362  0.1399 -0.7896  0.5292
   89CHL1  H23B 9053   7.412   4.227   7.325  0.9295 -0.8106  0.3056
   89CHL1   C24 9054   7.388   4.281   7.538 -0.2102 -0.5623 -0.3359
   89CHL1  H24A 9055   7.471   4.217   7.575  0.2181  0.3793  0.3542
   89CHL1  H24B 9056   7.387   4.374   7.599  1.4231 -1.4249  1.0534
   89CHL1   C25 9057   7.253   4.208   7.572  0.2155 -0.1831  0.4053
   89CHL1   H25 9058   7.166   4.263   7.531 -0.3737 -0.4324  1.3081
   89CHL1   C26 9059   7.255   4.068   7.509 -0.1440 -0.7215  0.6389
   89CHL1  H26A 9060   7.290   4.075   7.404 -1.7480  0.7538  0.1747
   89CHL1  H26B 9061   7.327   4.001   7.560 -0.4895 -2.5707 -1.2455
   89CHL1  H26C 9062   7.153   4.024   7.510 -0.6438  0.3672 -0.9359
   89CHL1   C27 9063   7.236   4.197   7.721 -0.1929 -0.0054 -1.2070
   89CHL1  H27A 9064   7.128   4.195   7.747  0.2224  0.5529  0.6308
   89CHL1  H27B 9065   7.284   4.111   7.772 -1.5007 -0.5819 -0.9212
   89CHL1  H27C 9066   7.277   4.288   7.768  1.5656 -0.3635 -2.0160
   90CHL1    C3 9067   0.398   4.957   6.294  0.3171 -0.2600 -0.2648
   90CHL1    H3 9068   0.345   4.859   6.305 -0.9991  0.4813  0.0794
   90CHL1    O3 9069   0.454   4.975   6.160  0.0760  0.0501 -0.3582
   90CHL1   H3' 9070   0.492   5.062   6.147 -1.0672  0.4118 -1.4059
   90CHL1    C4 9071   0.298   5.071   6.336 -0.0700 -0.0095 -0.1161
   90CHL1   H4A 9072   0.345   5.169   6.312 -1.5600  0.3230 -1.8294
   90CHL1   H4B 9073   0.215   5.045   6.266  0.0278 -0.6714  0.0088
   90CHL1    C5 9074   0.262   5.080   6.481 -0.7646  0.0224 -0.2388
   90CHL1    C6 9075   0.134   5.081   6.524  0.3172 -0.9793  0.1042
   90CHL1    H6 9076   0.045   5.087   6.460  0.9524 -1.0325 -0.7925
   90CHL1    C7 9077   0.098   5.082   6.671 -0.2961 -0.6236  0.2288
   90CHL1   H7A 9078   0.024   5.163   6.688  2.1270  2.0549 -1.4934
   90CHL1   H7B 9079   0.063   4.979   6.694 -1.3098  0.1772  2.3831
   90CHL1    C8 9080   0.218   5.097   6.771  1.3076 -0.1251  0.0548
   90CHL1    H8 9081   0.237   5.206   6.774 -0.8022  0.2628 -0.1469
   90CHL1   C14 9082   0.176   5.045   6.908 -0.7653  0.6574 -0.2783
   90CHL1   H14 9083   0.154   4.936   6.897 -0.4743  0.4845  0.8647
   90CHL1   C15 9084   0.044   5.098   6.957 -0.1010 -0.2655 -0.7339
   90CHL1  H15A 9085   0.026   5.207   6.945 -1.1075 -0.0892  1.9644
   90CHL1  H15B 9086  -0.041   5.045   6.908 -0.4070 -0.2706 -0.2050
   90CHL1   C16 9087   0.046   5.057   7.105 -0.2826 -0.6399 -0.3272
   90CHL1  H16A 9088   0.029   5.149   7.166 -1.3483 -1.9659  1.4377
   90CHL1  H16B 9089  -0.031   4.981   7.132 -0.1822 -0.4888  0.4120
   90CHL1   C17 9090   0.193   5.010   7.135  0.0165 -0.0507 -0.0698
   90CHL1   H17 9091   0.191   4.899   7.129 -0.4890  0.0066 -1.0763
   90CHL1   C13 9092   0.281   5.062   7.016 -0.0029  1.0367  0.7181
   90CHL1   C18 9093   0.314   5.206   7.044  0.4949  0.7342  0.1832
   90CHL1  H18A 9094   0.393   5.214   7.123 -0.5335 -0.7194  1.3855
   90CHL1  H18B 9095   0.346   5.257   6.951  0.1193 -1.4778 -1.1963
   90CHL1  H18C 9096   0.231   5.261   7.093 -0.2775 -0.7789  0.6018
   90CHL1   C12 9097   0.404   4.984   6.971  0.0865  0.3761 -0.4261
   90CHL1  H12A 9098   0.490   4.986   7.041  0.2450 -0.4540 -0.5869
   90CHL1  H12B 9099   0.379   4.876   6.970 -1.0868  0.6346 -0.0298
   90CHL1   C11 9100   0.451   5.022   6.830  0.3063  0.6945  0.6410
   90CHL1  H11A 9101   0.501   5.122   6.834  2.1556 -0.1916  0.5198
   90CHL1  H11B 9102   0.530   4.951   6.797  0.3347  0.5089  1.1065
   90CHL1    C9 9103   0.336   5.021   6.724  0.1200  0.4156 -0.6322
   90CHL1    H9 9104   0.298   4.918   6.709 -3.1594  1.6840 -1.4669
   90CHL1   C10 9105   0.380   5.065   6.587 -0.7361 -0.1116 -0.2980
   90CHL1   C19 9106   0.455   5.196   6.593  0.4559  0.5701  0.1289
   90CHL1  H19A 9107   0.556   5.186   6.636  0.4867 -0.1859 -0.1146
   90CHL1  H19B 9108   0.475   5.224   6.487  2.8580 -0.4625  0.3021
   90CHL1  H19C 9109   0.400   5.281   6.639  0.5541  0.2309  0.8633
   90CHL1    C1 9110   0.475   4.953   6.531  0.4497 -0.3015  0.2841
   90CHL1   H1A 9111   0.560   4.955   6.603 -1.0017  0.0356  2.0282
   90CHL1   H1B 9112   0.424   4.855   6.535 -1.2646  0.6526  4.3978
   90CHL1    C2 9113   0.523   4.957   6.389 -0.7167 -0.1539  0.1582
   90CHL1   H2A 9114   0.589   4.872   6.360  0.6686  1.1480 -0.5495
   90CHL1   H2B 9115   0.581   5.051   6.382  1.8422 -1.7937 -1.5338
   90CHL1   C20 9116   0.237   5.043   7.277  0.4601  0.0508  0.2933
   90CHL1   H20 9117   0.253   5.152   7.284  1.9490 -0.1410  0.0945
   90CHL1   C21 9118   0.371   4.974   7.303  0.8960  0.5056  0.0872
   90CHL1  H21A 9119   0.446   5.030   7.243  0.4916  2.8010  1.6385
   90CHL1  H21B 9120   0.364   4.873   7.258  0.5636  0.1628  0.9033
   90CHL1  H21C 9121   0.417   4.962   7.404 -2.0218 -2.4362  1.1715
   90CHL1   C22 9122   0.142   5.001   7.397  0.3276  0.0326  0.2781
   90CHL1  H22A 9123   0.035   5.027   7.385  0.2032  0.3880  1.9920
   90CHL1  H22B 9124   0.155   4.891   7.389  0.9202  0.2209 -1.5521
   90CHL1   C23 9125   0.180   5.037   7.543 -1.5048  0.0185 -0.3000
   90CHL1  H23A 9126   0.283   5.003   7.566 -0.4319  0.9566 -3.5231
   90CHL1  H23B 9127   0.174   5.147   7.558 -1.1593  0.0301 -0.2582
   90CHL1   C24 9128   0.081   4.966   7.646 -0.1660 -0.5656  0.3177
   90CHL1  H24A 9129  -0.026   4.987   7.625 -0.2025 -0.6197  0.4513
   90CHL1  H24B 9130   0.092   4.855   7.642 -0.8688 -0.6491  0.6677
   90CHL1   C25 9131   0.104   5.019   7.796 -0.2188 -0.2448 -0.3594
   90CHL1   H25 9132   0.024   4.969   7.854 -0.2325 -0.7567 -0.8159
   90CHL1   C26 9133   0.243   4.986   7.850  0.4732  0.1111  0.4539
   90CHL1  H26A 9134   0.265   4.877   7.846 -0.0065  0.0308  0.0248
   90CHL1  H26B 9135   0.317   5.038   7.784 -0.8470  0.4130 -0.8156
   90CHL1  H26C 9136   0.245   5.019   7.956  0.9906  0.3905  0.3623
   90CHL1   C27 9137   0.078   5.167   7.802  0.2056 -0.0213 -0.0130
   90CHL1  H27A 9138   0.103   5.196   7.906 -3.3785 -1.4181  1.2943
   90CHL1  H27B 9139   0.155   5.220   7.742 -0.2642  0.8337  0.1374
   90CHL1  H27C 9140  -0.025   5.190   7.767 -0.0562  1.0179  1.4045
   91CHL1    C3 9141   2.150   6.942   6.193 -0.1177 -0.2960 -0.4569
   91CHL1    H3 9142   2.051   6.905   6.227 -0.2576 -0.0866 -0.6321
   91CHL1    O3 9143   2.148   6.956   6.052 -0.5979  0.7095 -1.1064
   91CHL1   H3' 9144   2.082   7.024   6.035 -0.5289  0.5035 -2.2368
   91CHL1    C4 9145   2.179   7.085   6.259 -0.4747  0.4455 -0.2234
   91CHL1   H4A 9146   2.276   7.123   6.223  0.5189 -0.1525  1.7207
   91CHL1   H4B 9147   2.094   7.149   6.226 -0.1767  0.1213 -1.6201
   91CHL1    C5 9148   2.195   7.077   6.412  0.5699 -0.2179 -0.5216
   91CHL1    C6 9149   2.111   7.144   6.493 -0.1620  0.0451 -0.3054
   91CHL1    H6 9150   2.048   7.222   6.446 -0.3481 -0.4685 -0.9113
   91CHL1    C7 9151   2.102   7.119   6.645 -0.1797 -0.5413  0.0501
   91CHL1   H7A 9152   2.105   7.216   6.700 -1.2482 -0.9311  0.7989
   91CHL1   H7B 9153   2.008   7.068   6.673  0.8463 -1.9166  1.1018
   91CHL1    C8 9154   2.226   7.043   6.696  0.5586  0.3829 -0.2465
   91CHL1    H8 9155   2.311   7.114   6.700 -0.1714  1.2897 -0.7881
   91CHL1   C14 9156   2.195   6.987   6.843 -0.4901  0.6722 -0.2819
   91CHL1   H14 9157   2.123   6.905   6.824 -0.6785  0.8936 -0.5257
   91CHL1   C15 9158   2.139   7.084   6.953  0.2295  0.3959  0.1681
   91CHL1  H15A 9159   2.199   7.177   6.956 -3.4811  2.8920  1.4483
   91CHL1  H15B 9160   2.041   7.125   6.921 -1.2552 -2.9487  0.2297
   91CHL1   C16 9161   2.155   7.011   7.087  0.0711 -0.4520  0.5284
   91CHL1  H16A 9162   2.203   7.082   7.157  0.4056 -0.8147  0.6702
   91CHL1  H16B 9163   2.068   6.972   7.143  0.1776 -1.5660 -0.0534
   91CHL1   C17 9164   2.249   6.892   7.048  0.1062  0.0154 -0.5728
   91CHL1   H17 9165   2.182   6.804   7.034  0.6764 -0.8859  1.9808
   91CHL1   C13 9166   2.318   6.919   6.913 -0.2052  0.0135 -0.1802
   91CHL1   C18 9167   2.435   7.015   6.934  0.3405 -0.0512  0.5343
   91CHL1  H18A 9168   2.460   7.065   6.838  0.7184 -0.4104  0.4400
   91CHL1  H18B 9169   2.412   7.091   7.011  0.6851 -1.9385  2.5649
   91CHL1  H18C 9170   2.528   6.958   6.958  1.2807  1.7383  1.2613
   91CHL1   C12 9171   2.362   6.797   6.825  0.5491 -0.4866 -0.0284
   91CHL1  H12A 9172   2.449   6.740   6.863  0.6647 -0.7593 -0.6960
   91CHL1  H12B 9173   2.281   6.721   6.823  0.0462 -0.1145  3.2390
   91CHL1   C11 9174   2.404   6.853   6.684  0.0897  0.6184 -0.6333
   91CHL1  H11A 9175   2.489   6.924   6.674 -1.2907  2.1406 -1.8213
   91CHL1  H11B 9176   2.426   6.766   6.619 -0.7481  2.1212 -2.9805
   91CHL1    C9 9177   2.279   6.925   6.612  0.1717  0.2573  0.6187
   91CHL1    H9 9178   2.202   6.845   6.605  1.1612 -0.8395  1.9553
   91CHL1   C10 9179   2.296   6.963   6.458 -0.0043  0.1068  1.0402
   91CHL1   C19 9180   2.436   7.024   6.438 -0.0987 -0.2977 -0.5598
   91CHL1  H19A 9181   2.446   7.117   6.497  1.3124 -1.7569  1.6014
   91CHL1  H19B 9182   2.515   6.952   6.467 -0.6640 -0.1317  1.4362
   91CHL1  H19C 9183   2.459   7.046   6.331 -0.6754  1.1782 -0.3875
   91CHL1    C1 9184   2.277   6.834   6.386 -0.6817 -0.4088  0.6133
   91CHL1   H1A 9185   2.359   6.760   6.398 -0.7232 -1.2422 -3.4162
   91CHL1   H1B 9186   2.178   6.790   6.412 -0.3083 -1.5318  0.1795
   91CHL1    C2 9187   2.270   6.857   6.238  0.3588 -1.2934 -0.4258
   91CHL1   H2A 9188   2.262   6.759   6.185  0.5769 -1.4007 -0.2621
   91CHL1   H2B 9189   2.369   6.900   6.214  0.3272 -1.9385 -1.7791
   91CHL1   C20 9190   2.342   6.850   7.167 -0.7442 -0.7798 -0.4997
   91CHL1   H20 9191   2.406   6.937   7.189 -0.8460 -0.9389  0.4522
   91CHL1   C21 9192   2.431   6.729   7.139 -0.4294  0.5950  0.3375
   91CHL1  H21A 9193   2.506   6.748   7.059  2.0378 -2.1931  1.9018
   91CHL1  H21B 9194   2.385   6.635   7.103  2.8026 -1.4489  1.2865
   91CHL1  H21C 9195   2.482   6.707   7.235 -2.1172 -0.6840  0.9656
   91CHL1   C22 9196   2.246   6.819   7.293 -0.6111  0.2335  0.0329
   91CHL1  H22A 9197   2.182   6.907   7.317 -3.8271 -2.5551  2.0690
   91CHL1  H22B 9198   2.177   6.736   7.269 -1.7367  1.1559 -0.0026
   91CHL1   C23 9199   2.308   6.799   7.430 -0.7933 -0.2082  0.0626
   91CHL1  H23A 9200   2.370   6.707   7.428  1.7674  1.4627  0.1967
   91CHL1  H23B 9201   2.383   6.881   7.440 -2.4480  1.4446 -0.7778
   91CHL1   C24 9202   2.210   6.797   7.549  1.0255 -0.0116  1.3298
   91CHL1  H24A 9203   2.144   6.885   7.565  0.7812  0.4773 -1.9826
   91CHL1  H24B 9204   2.150   6.708   7.520  0.2444  0.1998  2.2622
   91CHL1   C25 9205   2.288   6.750   7.673 -0.2423 -0.1033 -0.4102
   91CHL1   H25 9206   2.360   6.667   7.657  0.9539  0.3100  2.5676
   91CHL1   C26 9207   2.385   6.856   7.730 -0.0869 -0.3085  0.0061
   91CHL1  H26A 9208   2.420   6.829   7.832  1.3338 -0.5181 -0.5243
   91CHL1  H26B 9209   2.479   6.865   7.671  1.2018  2.7131  2.4040
   91CHL1  H26C 9210   2.333   6.954   7.736  1.7404  0.5592  2.3692
   91CHL1   C27 9211   2.192   6.710   7.782  0.1880 -0.6758 -0.1573
   91CHL1  H27A 9212   2.256   6.677   7.867 -0.1161  2.8814  1.5575
   91CHL1  H27B 9213   2.126   6.789   7.823  2.8532  1.3428  0.3790
   91CHL1  H27C 9214   2.127   6.624   7.757 -1.6167 -0.1247  2.3948
   92CHL1    C3 9215   6.156   1.250   6.291  0.5486 -0.0180 -0.5472
   92CHL1    H3 9216   6.219   1.164   6.261  1.8970  1.4414 -1.9909
   92CHL1    O3 9217   6.100   1.319   6.172  0.4888 -0.8997 -0.5470
   92CHL1   H3' 9218   6.030   1.374   6.208  2.1916 -1.1183  3.3434
   92CHL1    C4 9219   6.035   1.202   6.378  0.0337  0.2258 -0.3247
   92CHL1   H4A 9220   5.966   1.288   6.398 -1.7994 -1.1385 -0.6223
   92CHL1   H4B 9221   5.976   1.130   6.318  2.0006  0.7388 -2.9384
   92CHL1    C5 9222   6.076   1.143   6.517 -0.1043 -0.1488 -0.2150
   92CHL1    C6 9223   6.050   1.011   6.550  0.7472 -0.2817 -0.3164
   92CHL1    H6 9224   5.992   0.947   6.482 -0.9330 -1.3015  2.0297
   92CHL1    C7 9225   6.095   0.935   6.678  0.3144  0.2871 -0.5325
   92CHL1   H7A 9226   6.003   0.887   6.717  0.4979 -1.5849 -2.2998
   92CHL1   H7B 9227   6.168   0.859   6.644 -0.7286 -0.5482 -0.9093
   92CHL1    C8 9228   6.155   1.035   6.781  0.1846  0.6112  0.6038
   92CHL1    H8 9229   6.071   1.088   6.831 -0.8195 -0.4705  0.0872
   92CHL1   C14 9230   6.243   0.948   6.876  0.2404 -0.3178  0.0605
   92CHL1   H14 9231   6.325   0.911   6.811 -0.0486 -1.0336  0.1090
   92CHL1   C15 9232   6.187   0.815   6.939  0.1003 -0.7611 -0.3509
   92CHL1  H15A 9233   6.084   0.836   6.974 -0.0447  0.5988 -1.5306
   92CHL1  H15B 9234   6.205   0.740   6.859  0.8943  0.9324 -1.7986
   92CHL1   C16 9235   6.289   0.796   7.058  0.6923 -0.2005 -0.8359
   92CHL1  H16A 9236   6.231   0.791   7.153 -0.4407 -1.9052 -1.5848
   92CHL1  H16B 9237   6.353   0.706   7.057  2.7809  1.2144  1.0462
   92CHL1   C17 9238   6.389   0.919   7.055 -1.3708  0.0408  0.3904
   92CHL1   H17 9239   6.464   0.881   6.983 -0.3171  0.1119  1.4323
   92CHL1   C13 9240   6.309   1.033   6.984  0.1261  0.1559  0.1161
   92CHL1   C18 9241   6.200   1.098   7.076  0.0741  0.5702 -0.2586
   92CHL1  H18A 9242   6.128   1.150   7.009  0.1434 -1.5747 -2.0724
   92CHL1  H18B 9243   6.136   1.021   7.125  1.0725 -0.9616 -1.3059
   92CHL1  H18C 9244   6.246   1.163   7.153 -0.3914 -0.6115  1.0263
   92CHL1   C12 9245   6.401   1.134   6.918  0.0228 -0.4930 -0.3932
   92CHL1  H12A 9246   6.442   1.212   6.985 -1.9252 -0.7875  1.2116
   92CHL1  H12B 9247   6.480   1.083   6.859 -0.0771  1.0398 -1.9015
   92CHL1   C11 9248   6.328   1.224   6.820 -1.0673 -0.6393 -0.4987
   92CHL1  H11A 9249   6.258   1.283   6.883 -1.1813 -0.7468 -0.5263
   92CHL1  H11B 9250   6.401   1.299   6.783 -0.1073 -2.0748 -1.5813
   92CHL1    C9 9251   6.244   1.139   6.718 -0.1706 -0.6967  0.6617
   92CHL1    H9 9252   6.320   1.080   6.662 -0.2908 -0.6290  0.4255
   92CHL1   C10 9253   6.175   1.223   6.606  0.1088  0.3251  0.1205
   92CHL1   C19 9254   6.087   1.333   6.668  0.1819 -0.2162  0.0278
   92CHL1  H19A 9255   6.034   1.293   6.757 -2.4822  0.9081 -1.0126
   92CHL1  H19B 9256   6.136   1.425   6.705 -0.7821  0.1051  0.5183
   92CHL1  H19C 9257   6.020   1.387   6.598  0.5230 -0.4716 -0.4959
   92CHL1    C1 9258   6.281   1.265   6.505 -0.1259 -0.4452  0.0959
   92CHL1   H1A 9259   6.358   1.325   6.559  1.7701 -2.7711  0.0496
   92CHL1   H1B 9260   6.334   1.180   6.457 -2.5604 -0.5032 -2.5972
   92CHL1    C2 9261   6.231   1.344   6.383 -0.4414  0.6049  0.2776
   92CHL1   H2A 9262   6.326   1.378   6.337  2.1628 -1.0108  4.2124
   92CHL1   H2B 9263   6.177   1.440   6.401 -2.1689  0.4627 -3.7402
   92CHL1   C20 9264   6.479   0.944   7.173 -0.0286  0.8912 -0.0381
   92CHL1   H20 9265   6.522   1.046   7.165 -3.4405  2.4575  0.6231
   92CHL1   C21 9266   6.593   0.846   7.170 -0.3077 -0.1561  0.4950
   92CHL1  H21A 9267   6.646   0.879   7.262 -0.5800  0.1432  0.5438
   92CHL1  H21B 9268   6.655   0.850   7.078  1.7342 -0.2520  1.8247
   92CHL1  H21C 9269   6.554   0.742   7.178  1.2693 -0.8769 -0.9582
   92CHL1   C22 9270   6.400   0.932   7.305  0.3933  0.4093  0.6572
   92CHL1  H22A 9271   6.299   0.974   7.287 -0.4535 -1.3931  1.0700
   92CHL1  H22B 9272   6.375   0.825   7.327 -0.4030  0.9060  2.2625
   92CHL1   C23 9273   6.478   0.993   7.422  0.6113 -0.5870  0.0767
   92CHL1  H23A 9274   6.581   0.952   7.419  0.3591 -1.2575  0.3826
   92CHL1  H23B 9275   6.483   1.103   7.411 -3.1418 -0.3648 -0.2582
   92CHL1   C24 9276   6.418   0.970   7.551 -0.0717 -0.1059 -0.3393
   92CHL1  H24A 9277   6.326   1.032   7.550 -1.2698 -1.7554  1.9972
   92CHL1  H24B 9278   6.379   0.867   7.568  0.8711 -0.0178  2.6743
   92CHL1   C25 9279   6.494   0.997   7.685  0.0549 -0.5303  0.6513
   92CHL1   H25 9280   6.581   0.927   7.681 -0.4036 -1.2240  2.1152
   92CHL1   C26 9281   6.545   1.135   7.707 -0.4244 -0.8144 -0.0886
   92CHL1  H26A 9282   6.602   1.157   7.614 -1.9628 -0.1195 -0.8878
   92CHL1  H26B 9283   6.461   1.208   7.712  0.8524  0.5273  2.5886
   92CHL1  H26C 9284   6.605   1.133   7.800 -0.2796  2.0006 -0.0938
   92CHL1   C27 9285   6.412   0.957   7.807  0.7085  0.5117 -0.1149
   92CHL1  H27A 9286   6.319   1.015   7.821 -0.2273 -0.1895 -3.0003
   92CHL1  H27B 9287   6.384   0.850   7.793  1.1560  0.1408  1.7606
   92CHL1  H27C 9288   6.472   0.963   7.900  2.5421  1.9632 -1.3502
   93CHL1    C3 9289   5.958   6.371   6.324 -0.4053  0.5596  0.4024
   93CHL1    H3 9290   5.850   6.397   6.318 -0.4632  0.0760 -0.6452
   93CHL1    O3 9291   6.010   6.352   6.191 -0.7169  0.7840  0.1011
   93CHL1   H3' 9292   6.098   6.315   6.199  0.4107  3.0017 -1.6925
   93CHL1    C4 9293   6.028   6.500   6.381  0.5823 -0.1112 -0.4125
   93CHL1   H4A 9294   6.137   6.480   6.376  0.4943 -0.9908  0.8604
   93CHL1   H4B 9295   5.984   6.581   6.319 -0.1948  0.9418  1.4717
   93CHL1    C5 9296   5.985   6.522   6.522 -0.2645  0.7812 -0.0127
   93CHL1    C6 9297   5.923   6.636   6.559  0.5030 -0.1788  0.0523
   93CHL1    H6 9298   5.898   6.706   6.478  0.7871 -0.2338 -0.0869
   93CHL1    C7 9299   5.867   6.666   6.702 -0.3461 -0.6971 -0.2771
   93CHL1   H7A 9300   5.895   6.766   6.741 -0.7313 -1.4112  1.8751
   93CHL1   H7B 9301   5.757   6.658   6.713 -0.2690 -0.0697  1.0155
   93CHL1    C8 9302   5.927   6.566   6.803  0.1481  0.3621 -0.2733
   93CHL1    H8 9303   6.033   6.587   6.826  0.0731 -0.2353  0.6070
   93CHL1   C14 9304   5.842   6.571   6.936  0.2777 -0.3846  1.0317
   93CHL1   H14 9305   5.745   6.534   6.897  0.6418  0.3794 -0.6017
   93CHL1   C15 9306   5.812   6.703   7.008  0.1522 -0.3389  0.9035
   93CHL1  H15A 9307   5.911   6.752   7.015  0.9026 -1.7393  0.4046
   93CHL1  H15B 9308   5.734   6.763   6.957 -1.0996 -0.5458  2.5315
   93CHL1   C16 9309   5.762   6.664   7.151 -0.1158 -0.2847 -0.2697
   93CHL1  H16A 9310   5.816   6.730   7.222 -2.4548 -0.2075  1.5053
   93CHL1  H16B 9311   5.655   6.694   7.159 -0.0279 -0.1336  0.3770
   93CHL1   C17 9312   5.771   6.510   7.154 -0.1510 -0.4376  0.6058
   93CHL1   H17 9313   5.676   6.476   7.107 -0.1152 -1.4264  1.2416
   93CHL1   C13 9314   5.877   6.470   7.050 -0.0146 -0.1164 -0.5669
   93CHL1   C18 9315   6.017   6.498   7.111 -0.6272 -0.4682 -0.3297
   93CHL1  H18A 9316   6.019   6.599   7.158 -1.6802  0.4355 -2.1284
   93CHL1  H18B 9317   6.038   6.423   7.190 -3.2292 -1.2508 -0.3323
   93CHL1  H18C 9318   6.104   6.494   7.042  1.8311 -4.1203  2.7569
   93CHL1   C12 9319   5.871   6.330   6.993  0.3439  0.9909  1.0638
   93CHL1  H12A 9320   5.895   6.241   7.057  1.2827  0.6792  0.2806
   93CHL1  H12B 9321   5.768   6.317   6.952  0.3143  2.1396  0.7647
   93CHL1   C11 9322   5.976   6.317   6.873 -0.1051 -0.5178 -0.0807
   93CHL1  H11A 9323   6.082   6.316   6.909 -0.0788 -2.4683 -0.1611
   93CHL1  H11B 9324   5.957   6.215   6.833 -2.7966  0.1225 -0.5059
   93CHL1    C9 9325   5.935   6.420   6.761  0.2417  0.0411  0.3766
   93CHL1    H9 9326   5.829   6.394   6.739  0.7266 -2.1843  0.5747
   93CHL1   C10 9327   6.012   6.402   6.614 -0.4984 -0.1016  0.1651
   93CHL1   C19 9328   6.172   6.398   6.657  0.1645 -0.8975 -0.1720
   93CHL1  H19A 9329   6.198   6.310   6.719 -0.9722 -0.5724  0.7863
   93CHL1  H19B 9330   6.234   6.396   6.564  1.1927 -0.7953  0.5126
   93CHL1  H19C 9331   6.192   6.496   6.706 -0.5057 -1.0528  0.4176
   93CHL1    C1 9332   5.971   6.267   6.553 -0.1589 -0.1869  0.1218
   93CHL1   H1A 9333   6.007   6.182   6.615  0.8057 -1.0346 -1.5823
   93CHL1   H1B 9334   5.860   6.269   6.563 -0.0165  1.2345  1.8022
   93CHL1    C2 9335   6.000   6.243   6.404  0.1608 -0.6219 -0.0525
   93CHL1   H2A 9336   5.933   6.161   6.372 -2.7899  0.8467  2.0890
   93CHL1   H2B 9337   6.104   6.211   6.380  0.5375 -0.7058  1.6210
   93CHL1   C20 9338   5.780   6.461   7.291 -0.0081  0.2227  0.1264
   93CHL1   H20 9339   5.884   6.490   7.316 -0.8947  4.5187 -0.8118
   93CHL1   C21 9340   5.756   6.314   7.303  0.0518  0.3070 -0.1368
   93CHL1  H21A 9341   5.655   6.300   7.261 -0.2436  2.0282 -0.0571
   93CHL1  H21B 9342   5.752   6.285   7.410  0.5917 -0.4153 -0.3081
   93CHL1  H21C 9343   5.835   6.254   7.253 -1.5495  0.1117 -2.4948
   93CHL1   C22 9344   5.692   6.539   7.401 -0.0968 -0.0789 -0.3721
   93CHL1  H22A 9345   5.729   6.504   7.499  4.4772 -0.5328 -2.1654
   93CHL1  H22B 9346   5.707   6.648   7.383 -2.5067  0.3559 -0.0391
   93CHL1   C23 9347   5.548   6.517   7.397  1.1982  0.1248 -0.4853
   93CHL1  H23A 9348   5.514   6.534   7.292  0.5846  1.2194 -0.1190
   93CHL1  H23B 9349   5.521   6.411   7.412  0.1934  0.0251 -2.6965
   93CHL1   C24 9350   5.460   6.622   7.476  0.6591  0.3198 -0.2031
   93CHL1  H24A 9351   5.505   6.722   7.461  4.0050 -0.8794  1.3273
   93CHL1  H24B 9352   5.354   6.617   7.445  0.3442 -3.3913  1.2501
   93CHL1   C25 9353   5.448   6.601   7.631  0.1881  0.2587 -0.0442
   93CHL1   H25 9354   5.548   6.602   7.678 -0.0235 -0.5644  0.4370
   93CHL1   C26 9355   5.365   6.715   7.686 -0.3122  0.0994  0.2883
   93CHL1  H26A 9356   5.417   6.811   7.701 -0.4273 -0.0698  1.9384
   93CHL1  H26B 9357   5.272   6.727   7.627 -0.2958 -0.5369  0.1210
   93CHL1  H26C 9358   5.319   6.684   7.783  0.3223 -0.9331  0.2711
   93CHL1   C27 9359   5.388   6.462   7.652 -0.1536 -0.5264 -0.1387
   93CHL1  H27A 9360   5.305   6.429   7.587 -1.5789  0.5851  1.0877
   93CHL1  H27B 9361   5.469   6.393   7.619  1.1764  0.4886  0.9494
   93CHL1  H27C 9362   5.369   6.441   7.759 -0.0505  1.2434  0.2439
   94CHL1    C3 9363   0.248   1.769   6.312 -0.2204 -0.1751 -1.1177
   94CHL1    H3 9364   0.177   1.852   6.331 -1.2292 -0.8041 -2.1091
   94CHL1    O3 9365   0.231   1.744   6.172  0.1718  0.4913 -0.3398
   94CHL1   H3' 9366   0.266   1.655   6.169 -2.9124 -0.7439 -1.9552
   94CHL1    C4 9367   0.400   1.817   6.328 -0.3377 -0.1037 -0.1676
   94CHL1   H4A 9368   0.468   1.742   6.282  0.5177  1.1333 -0.9699
   94CHL1   H4B 9369   0.408   1.912   6.270  1.7612 -0.2846 -0.2263
   94CHL1    C5 9370   0.415   1.840   6.474 -0.2373  0.9326 -0.5869
   94CHL1    C6 9371   0.463   1.955   6.518 -0.3183 -0.6225 -0.1326
   94CHL1    H6 9372   0.498   2.027   6.442 -0.4650  0.5245  0.8852
   94CHL1    C7 9373   0.481   1.994   6.663  0.2734  0.2884  0.5722
   94CHL1   H7A 9374   0.563   2.066   6.683 -0.5816  1.9535 -1.6928
   94CHL1   H7B 9375   0.391   2.053   6.690 -0.6250 -0.5122 -0.5826
   94CHL1    C8 9376   0.485   1.867   6.750 -0.1096 -0.0395 -0.9328
   94CHL1    H8 9377   0.574   1.803   6.730 -0.6280 -0.8183 -0.7589
   94CHL1   C14 9378   0.503   1.895   6.900 -0.7451  0.7039 -0.6400
   94CHL1   H14 9379   0.413   1.955   6.926 -1.7849 -1.3981  0.7430
   94CHL1   C15 9380   0.614   1.991   6.943  0.0945  0.1343 -0.8853
   94CHL1  H15A 9381   0.702   1.976   6.876  1.3146  1.5869  0.3568
   94CHL1  H15B 9382   0.588   2.098   6.931  3.4100  0.7614 -3.1645
   94CHL1   C16 9383   0.658   1.958   7.091  0.0601 -0.9353 -0.2193
   94CHL1  H16A 9384   0.752   1.900   7.095 -0.0239 -1.0054  0.8541
   94CHL1  H16B 9385   0.657   2.052   7.149 -1.8893 -0.3116 -1.2239
   94CHL1   C17 9386   0.542   1.856   7.129  0.2295  0.7374 -0.1606
   94CHL1   H17 9387   0.455   1.922   7.148 -1.9282 -1.8137 -0.8987
   94CHL1   C13 9388   0.516   1.777   6.997  0.1211  0.7844  0.8385
   94CHL1   C18 9389   0.633   1.686   6.960 -0.0435 -0.6795  0.9051
   94CHL1  H18A 9390   0.634   1.616   7.046 -1.1844 -1.4199  0.3342
   94CHL1  H18B 9391   0.616   1.629   6.866  0.9000 -0.0021  0.3254
   94CHL1  H18C 9392   0.723   1.751   6.957 -1.3082  1.1062  0.9015
   94CHL1   C12 9393   0.382   1.701   6.977  0.3310  0.3234  0.0405
   94CHL1  H12A 9394   0.401   1.605   7.028  0.0813  1.3413  2.0922
   94CHL1  H12B 9395   0.299   1.762   7.020 -2.3218 -2.6672 -0.6895
   94CHL1   C11 9396   0.354   1.664   6.829 -0.1927  0.8907  0.2697
   94CHL1  H11A 9397   0.424   1.581   6.805  0.8235  2.1831 -1.2971
   94CHL1  H11B 9398   0.250   1.623   6.833 -0.0097  0.3573 -0.3833
   94CHL1    C9 9399   0.366   1.776   6.721 -0.7207 -1.1653 -0.5343
   94CHL1    H9 9400   0.276   1.839   6.735  1.7660  2.0731  1.8286
   94CHL1   C10 9401   0.369   1.729   6.572 -0.5317 -0.2356  0.0998
   94CHL1   C19 9402   0.467   1.608   6.560 -0.0712  0.8582 -0.7463
   94CHL1  H19A 9403   0.568   1.626   6.602 -0.4060 -0.2052  0.5639
   94CHL1  H19B 9404   0.420   1.518   6.607  0.8339  0.0196 -1.4316
   94CHL1  H19C 9405   0.472   1.573   6.455  1.1865 -2.1875  0.2710
   94CHL1    C1 9406   0.227   1.684   6.542  0.7628  1.1102  0.2738
   94CHL1   H1A 9407   0.195   1.604   6.613 -0.5298  2.7606  1.5764
   94CHL1   H1B 9408   0.161   1.771   6.560 -0.1960  0.9941 -2.4498
   94CHL1    C2 9409   0.206   1.646   6.397  0.1501 -0.1534 -0.2666
   94CHL1   H2A 9410   0.096   1.640   6.392  0.1051 -0.2216  0.7117
   94CHL1   H2B 9411   0.249   1.548   6.368  1.5621  0.9316 -1.9588
   94CHL1   C20 9412   0.556   1.766   7.259 -0.0047  0.3744  0.2195
   94CHL1   H20 9413   0.612   1.672   7.242  1.1413  1.0030  0.4954
   94CHL1   C21 9414   0.416   1.717   7.312  0.7466 -0.3605 -0.0331
   94CHL1  H21A 9415   0.366   1.816   7.310  0.0612 -0.7305 -2.2758
   94CHL1  H21B 9416   0.415   1.695   7.421 -1.7202 -0.8960 -0.1394
   94CHL1  H21C 9417   0.361   1.636   7.260  1.7254  0.1431 -1.8794
   94CHL1   C22 9418   0.639   1.849   7.359 -0.1016  0.5143 -0.1859
   94CHL1  H22A 9419   0.743   1.861   7.322  0.7191 -0.3602  1.7732
   94CHL1  H22B 9420   0.588   1.948   7.362 -0.7251  0.2623 -2.0106
   94CHL1   C23 9421   0.659   1.785   7.499 -0.0565 -0.7948 -0.2716
   94CHL1  H23A 9422   0.566   1.778   7.561  1.1840  0.8245  1.8604
   94CHL1  H23B 9423   0.701   1.684   7.482 -1.1105 -0.9857 -1.9020
   94CHL1   C24 9424   0.765   1.875   7.570 -0.0291 -0.6852 -1.0978
   94CHL1  H24A 9425   0.859   1.890   7.511  0.0847 -0.6919 -0.9190
   94CHL1  H24B 9426   0.722   1.976   7.586 -0.4634 -1.1697  0.9281
   94CHL1   C25 9427   0.826   1.813   7.696  0.2185  0.1154 -0.2766
   94CHL1   H25 9428   0.874   1.718   7.667  0.7241  0.6469 -1.2055
   94CHL1   C26 9429   0.939   1.905   7.757  0.3717 -0.5596  0.2011
   94CHL1  H26A 9430   1.005   1.961   7.687 -0.2978 -1.1825 -0.9651
   94CHL1  H26B 9431   0.885   1.988   7.807 -2.5979 -2.1559 -0.2342
   94CHL1  H26C 9432   1.004   1.854   7.830  0.1245 -0.0726  0.7665
   94CHL1   C27 9433   0.721   1.788   7.809  0.3278  0.1322  0.1526
   94CHL1  H27A 9434   0.763   1.728   7.893 -0.1285 -1.2411 -0.5863
   94CHL1  H27B 9435   0.683   1.886   7.847 -0.6884 -0.0246 -0.4291
   94CHL1  H27C 9436   0.639   1.723   7.773  0.3239  1.1110 -1.6471
   95CHL1    C3 9437   5.810   0.294   6.251 -0.0440  0.1470 -0.6973
   95CHL1    H3 9438   5.703   0.267   6.260  0.5205 -1.9705 -0.2090
   95CHL1    O3 9439   5.837   0.300   6.113  0.3159  0.1605 -0.6236
   95CHL1   H3' 9440   5.927   0.333   6.109  0.9846 -1.4640  0.3184
   95CHL1    C4 9441   5.830   0.434   6.311  0.7971 -1.6304 -0.4554
   95CHL1   H4A 9442   5.932   0.455   6.273 -0.2678  1.5613 -1.6294
   95CHL1   H4B 9443   5.763   0.514   6.275 -0.3771 -2.0523  0.7440
   95CHL1    C5 9444   5.827   0.428   6.469  0.4086 -0.0851  0.3084
   95CHL1    C6 9445   5.758   0.523   6.535 -0.0675 -0.1282 -0.1282
   95CHL1    H6 9446   5.702   0.598   6.477  1.7015  1.3031 -0.0158
   95CHL1    C7 9447   5.778   0.555   6.682  0.5818  0.4162  0.6806
   95CHL1   H7A 9448   5.786   0.666   6.692 -1.2901  0.4722  1.7148
   95CHL1   H7B 9449   5.685   0.528   6.736  1.8181  0.6396  2.9890
   95CHL1    C8 9450   5.895   0.478   6.745 -0.3460 -0.3089  0.4249
   95CHL1    H8 9451   5.987   0.531   6.713  0.1026 -0.8849  0.7520
   95CHL1   C14 9452   5.879   0.474   6.896  0.0568 -0.3333  0.3566
   95CHL1   H14 9453   5.783   0.422   6.915  0.2901 -1.5260 -1.5707
   95CHL1   C15 9454   5.867   0.612   6.966  0.3774 -0.4786 -0.2606
   95CHL1  H15A 9455   5.948   0.682   6.936  0.9965 -1.6953 -1.4622
   95CHL1  H15B 9456   5.768   0.657   6.947 -0.6651 -3.0262 -1.1294
   95CHL1   C16 9457   5.883   0.578   7.117  0.2339  0.2326  0.0050
   95CHL1  H16A 9458   5.953   0.656   7.153 -0.1972  1.0001 -0.8095
   95CHL1  H16B 9459   5.787   0.574   7.172  1.5633 -0.5172  2.3279
   95CHL1   C17 9460   5.952   0.432   7.116  0.7745  0.3552 -0.0523
   95CHL1   H17 9461   5.869   0.364   7.146  1.2055 -0.2283 -0.1765
   95CHL1   C13 9462   5.990   0.400   6.967 -0.2056  0.6467  0.2314
   95CHL1   C18 9463   6.124   0.466   6.943 -0.2451  0.2250  0.5076
   95CHL1  H18A 9464   6.121   0.572   6.976 -1.8480  0.5798 -0.7171
   95CHL1  H18B 9465   6.208   0.429   7.006 -0.2478  0.3847  0.6077
   95CHL1  H18C 9466   6.167   0.469   6.840  0.6154  0.1580  0.8604
   95CHL1   C12 9467   5.985   0.254   6.922  0.4422  0.0984  0.3646
   95CHL1  H12A 9468   6.067   0.197   6.970  2.0086 -0.1225 -2.4635
   95CHL1  H12B 9469   5.887   0.219   6.963  0.1623 -0.2642 -0.5909
   95CHL1   C11 9470   6.001   0.250   6.770  0.6475 -0.1896  0.1707
   95CHL1  H11A 9471   6.098   0.298   6.747  0.0588  0.3171 -1.2885
   95CHL1  H11B 9472   5.995   0.148   6.727  2.3150  0.0486 -0.6380
   95CHL1    C9 9473   5.899   0.333   6.690  0.9221 -0.1787  0.3905
   95CHL1    H9 9474   5.800   0.286   6.706  1.4797 -0.4364  3.5826
   95CHL1   C10 9475   5.918   0.337   6.541  0.5904 -0.1934  0.3408
   95CHL1   C19 9476   6.069   0.370   6.512  0.3382  0.4951  0.3819
   95CHL1  H19A 9477   6.102   0.461   6.567 -0.0544  0.3045  0.9322
   95CHL1  H19B 9478   6.136   0.285   6.535  1.4365  1.5506  1.1324
   95CHL1  H19C 9479   6.082   0.387   6.403  0.2002 -0.5939  0.1911
   95CHL1    C1 9480   5.886   0.197   6.478 -0.0668  0.3028  0.0096
   95CHL1   H1A 9481   5.972   0.130   6.498 -1.0509 -1.0388 -0.1720
   95CHL1   H1B 9482   5.790   0.155   6.514 -1.4821  2.1616 -1.5169
   95CHL1    C2 9483   5.902   0.188   6.324  0.5601  0.7120 -0.5362
   95CHL1   H2A 9484   5.874   0.085   6.294  3.1627 -0.0679 -0.3701
   95CHL1   H2B 9485   6.007   0.206   6.294  1.4539 -0.1530  1.9805
   95CHL1   C20 9486   6.046   0.412   7.227 -0.1420 -0.0678 -0.0402
   95CHL1   H20 9487   6.127   0.487   7.220 -0.2476  0.0102 -0.4748
   95CHL1   C21 9488   6.109   0.268   7.220 -0.2534  0.2822 -0.3166
   95CHL1  H21A 9489   6.159   0.242   7.316 -0.8316 -1.3890 -0.4549
   95CHL1  H21B 9490   6.185   0.265   7.138 -1.3493 -1.0093 -1.3041
   95CHL1  H21C 9491   6.036   0.187   7.199 -1.4916  1.0115  1.1354
   95CHL1   C22 9492   5.977   0.421   7.366 -0.1832  0.5814 -0.4432
   95CHL1  H22A 9493   5.939   0.525   7.374  1.8671  1.1062  2.9667
   95CHL1  H22B 9494   5.895   0.345   7.366  0.1903  0.1700  1.1130
   95CHL1   C23 9495   6.074   0.417   7.487 -0.3939 -0.8605 -0.7565
   95CHL1  H23A 9496   6.127   0.320   7.493 -0.3016 -0.7945 -0.5178
   95CHL1  H23B 9497   6.148   0.498   7.469  0.4955 -1.2888  0.9201
   95CHL1   C24 9498   6.002   0.435   7.620  0.2384 -0.1762  0.6284
   95CHL1  H24A 9499   5.955   0.535   7.615 -0.8808 -0.6481  1.4597
   95CHL1  H24B 9500   5.918   0.362   7.623  0.5005 -0.4207  4.3245
   95CHL1   C25 9501   6.085   0.412   7.749 -0.1125 -0.0583  0.1795
   95CHL1   H25 9502   6.132   0.312   7.737 -0.6888 -0.3081  0.0051
   95CHL1   C26 9503   6.195   0.512   7.772  0.2537 -0.3419  0.3333
   95CHL1  H26A 9504   6.260   0.473   7.854  0.9355 -0.8034 -0.4191
   95CHL1  H26B 9505   6.249   0.525   7.676 -1.7907  1.3138 -0.6196
   95CHL1  H26C 9506   6.155   0.611   7.803 -0.2575 -0.5631  0.3857
   95CHL1   C27 9507   5.981   0.402   7.866  0.1373 -0.4126  0.0076
   95CHL1  H27A 9508   5.927   0.499   7.867  2.5162  0.9790 -0.7246
   95CHL1  H27B 9509   5.923   0.311   7.841  0.7474 -0.3015 -1.9313
   95CHL1  H27C 9510   6.028   0.377   7.963 -0.5710  2.7179  1.2153
   96CHL1    C3 9511   5.992   7.096   6.279 -0.5286 -0.2475 -0.2625
   96CHL1    H3 9512   5.935   7.191   6.285  0.7490  0.3590  3.7915
   96CHL1    O3 9513   5.983   7.047   6.150  0.1858 -0.3862  0.3444
   96CHL1   H3' 9514   5.970   6.955   6.175 -0.6669 -0.0653  1.1085
   96CHL1    C4 9515   6.144   7.125   6.308  0.0343  0.2487 -0.2162
   96CHL1   H4A 9516   6.201   7.032   6.288 -1.9192 -0.4966 -2.6242
   96CHL1   H4B 9517   6.168   7.199   6.229  2.7073  0.1360  0.4624
   96CHL1    C5 9518   6.172   7.166   6.451  0.5428 -0.8526 -0.2296
   96CHL1    C6 9519   6.239   7.281   6.486 -0.1864  0.1084  0.0427
   96CHL1    H6 9520   6.283   7.344   6.407 -1.7581 -0.8457 -1.6292
   96CHL1    C7 9521   6.271   7.323   6.628 -0.1541  0.5633 -0.5836
   96CHL1   H7A 9522   6.365   7.383   6.637  0.3927 -0.1355 -1.6250
   96CHL1   H7B 9523   6.192   7.398   6.650 -0.6537 -0.3947  0.9979
   96CHL1    C8 9524   6.253   7.207   6.732 -0.1211 -0.1702 -0.0229
   96CHL1    H8 9525   6.339   7.140   6.713  0.7436  0.6609  0.8583
   96CHL1   C14 9526   6.249   7.266   6.872  0.3283  0.0584 -0.2720
   96CHL1   H14 9527   6.161   7.334   6.878  0.6973  0.5149 -0.0351
   96CHL1   C15 9528   6.366   7.348   6.912 -0.2114 -0.0131 -0.1807
   96CHL1  H15A 9529   6.453   7.289   6.874 -0.4664 -1.0164  0.7792
   96CHL1  H15B 9530   6.376   7.450   6.868  0.0356  0.4904  1.0289
   96CHL1   C16 9531   6.361   7.357   7.064  0.1032 -0.0161  0.4789
   96CHL1  H16A 9532   6.460   7.324   7.102  1.3401  2.6376 -0.3102
   96CHL1  H16B 9533   6.330   7.457   7.100 -1.8395  0.2248 -1.7521
   96CHL1   C17 9534   6.250   7.250   7.107 -0.2739 -0.4868 -0.3107
   96CHL1   H17 9535   6.155   7.306   7.119 -0.4903 -0.9147 -0.0308
   96CHL1   C13 9536   6.236   7.163   6.979 -0.4953  0.0979 -0.3252
   96CHL1   C18 9537   6.347   7.052   6.973  0.2076  0.3614  0.0805
   96CHL1  H18A 9538   6.331   6.968   6.902  0.9695  0.6536 -0.4432
   96CHL1  H18B 9539   6.453   7.084   6.960  0.9837 -1.3171  1.7890
   96CHL1  H18C 9540   6.343   6.994   7.069 -0.1642  0.8775  0.3762
   96CHL1   C12 9541   6.096   7.099   6.960 -0.2318 -0.4725  0.3031
   96CHL1  H12A 9542   6.082   7.027   7.043 -1.1070  0.5238  1.0409
   96CHL1  H12B 9543   6.015   7.173   6.979  0.5276  0.4924 -0.1259
   96CHL1   C11 9544   6.084   7.038   6.817  0.2143 -0.0942 -0.5513
   96CHL1  H11A 9545   6.161   6.959   6.814 -0.4700 -0.8181  0.5231
   96CHL1  H11B 9546   5.982   6.998   6.798  1.6463 -3.8737 -0.5018
   96CHL1    C9 9547   6.122   7.137   6.704  0.2406 -0.4906 -0.0148
   96CHL1    H9 9548   6.043   7.215   6.699  0.3095 -0.2593  2.1817
   96CHL1   C10 9549   6.104   7.078   6.561  0.0796 -0.2402  0.1434
   96CHL1   C19 9550   6.183   6.949   6.552  0.0728 -0.3361 -0.7373
   96CHL1  H19A 9551   6.190   6.907   6.449  1.2552 -2.6625  0.2526
   96CHL1  H19B 9552   6.284   6.963   6.596 -0.6342  0.1309  0.7640
   96CHL1  H19C 9553   6.136   6.868   6.613  3.8869 -1.6522  0.5894
   96CHL1    C1 9554   5.952   7.053   6.531 -0.2452  0.6974 -0.4286
   96CHL1   H1A 9555   5.916   6.979   6.606 -0.1976  0.7278 -0.3767
   96CHL1   H1B 9556   5.918   7.159   6.539 -0.7053  0.8115 -3.3361
   96CHL1    C2 9557   5.932   6.999   6.385  0.2550 -0.2016 -0.2269
   96CHL1   H2A 9558   5.824   6.984   6.364  0.7795 -2.4816 -1.5064
   96CHL1   H2B 9559   5.980   6.899   6.374  0.3286 -0.1267 -0.5984
   96CHL1   C20 9560   6.277   7.183   7.240 -0.4445  0.0712  0.2465
   96CHL1   H20 9561   6.374   7.130   7.243  0.2796  1.4459  1.5947
   96CHL1   C21 9562   6.169   7.082   7.285 -0.2130  0.5252 -0.1599
   96CHL1  H21A 9563   6.164   6.985   7.231 -4.9895  0.1980  0.6441
   96CHL1  H21B 9564   6.069   7.129   7.277 -1.5124 -1.7138  2.1381
   96CHL1  H21C 9565   6.198   7.054   7.389  2.3250  0.1192 -0.9361
   96CHL1   C22 9566   6.293   7.292   7.344 -0.3839  0.5787 -0.2321
   96CHL1  H22A 9567   6.351   7.379   7.307  0.8788 -1.1939 -2.5183
   96CHL1  H22B 9568   6.191   7.322   7.376 -0.6604 -0.4465 -0.1592
   96CHL1   C23 9569   6.365   7.261   7.478 -0.6369 -0.3134  0.1890
   96CHL1  H23A 9570   6.285   7.224   7.545 -1.1093 -1.3185 -0.9003
   96CHL1  H23B 9571   6.451   7.191   7.466  0.2463  0.4203  2.0636
   96CHL1   C24 9572   6.439   7.381   7.544 -0.5957 -0.3051 -0.0033
   96CHL1  H24A 9573   6.519   7.402   7.470 -0.9552  0.6220 -0.1359
   96CHL1  H24B 9574   6.379   7.474   7.532 -0.3413 -0.2521 -0.9598
   96CHL1   C25 9575   6.499   7.341   7.684 -0.0754 -0.4644  0.1169
   96CHL1   H25 9576   6.425   7.284   7.743  0.0571  0.6578  1.3779
   96CHL1   C26 9577   6.633   7.264   7.650  0.3751 -0.0142 -0.5892
   96CHL1  H26A 9578   6.664   7.211   7.743 -1.2743 -1.4516 -0.8300
   96CHL1  H26B 9579   6.627   7.200   7.559  1.0009  0.4523 -0.9636
   96CHL1  H26C 9580   6.715   7.338   7.643  1.7336 -1.1250  2.5667
   96CHL1   C27 9581   6.533   7.461   7.770 -0.2176 -0.4886  0.3115
   96CHL1  H27A 9582   6.442   7.515   7.804 -0.4238 -0.3160 -0.5154
   96CHL1  H27B 9583   6.586   7.424   7.861 -1.3559 -1.0206  0.7724
   96CHL1  H27C 9584   6.604   7.538   7.732 -0.5910 -0.0730  0.4496
   97OSM      N 9585   3.288   3.088  10.128  0.2199 -0.5577 -0.0230
   97OSM    C15 9586   3.294   3.206  10.220  0.0358  0.0163 -0.3386
   97OSM   H15A 9587   3.389   3.257  10.214 -0.9388  1.8609 -0.2911
   97OSM   H15B 9588   3.291   3.165  10.320  0.1406  0.3852 -0.1816
   97OSM   H15C 9589   3.210   3.270  10.197 -0.6813 -0.4798  0.8854
   97OSM    C14 9590   3.287   3.133   9.982 -0.2687 -0.4474  0.1542
   97OSM   H14A 9591   3.389   3.161   9.964 -0.5772  1.2653  0.9774
   97OSM   H14B 9592   3.220   3.216   9.967  1.8086  1.2757  0.1632
   97OSM   H14C 9593   3.265   3.046   9.921 -1.0169 -1.2191  1.4807
   97OSM    C13 9594   3.407   3.003  10.147 -0.4901 -0.2650 -0.6759
   97OSM   H13A 9595   3.409   2.959  10.246 -1.1650  0.0641 -0.5173
   97OSM   H13B 9596   3.500   3.057  10.138 -0.7686 -0.0480 -2.4962
   97OSM   H13C 9597   3.393   2.927  10.072  1.0519 -2.6729  1.3892
   97OSM    C12 9598   3.160   3.012  10.156 -0.7057 -0.1229  0.2766
   97OSM   H12A 9599   3.078   3.071  10.117  0.1104 -0.5267 -2.0988
   97OSM   H12B 9600   3.139   3.013  10.262  0.6248  0.5599  0.5417
   97OSM    C11 9601   3.141   2.874  10.098  0.2811 -0.0342 -0.4763
   97OSM   H11A 9602   3.040   2.835  10.126  1.0624 -1.5222  0.3057
   97OSM   H11B 9603   3.213   2.803  10.143  0.7458  0.1296 -0.9542
   97OSM      P 9604   3.221   2.736   9.890  0.8286  0.0572  0.1654
   97OSM    O13 9605   3.369   2.760   9.893  0.2268  0.6753  0.2074
   97OSM    O14 9606   3.173   2.615   9.962  1.1226  0.3809  0.2513
   97OSM    O11 9607   3.164   2.739   9.737 -0.5674  0.3446  0.0263
   97OSM    O12 9608   3.153   2.866   9.957  0.1065  0.4143  0.0648
   97OSM    C1S 9609   3.028   2.771   9.713  0.7102 -0.2085  0.2526
   97OSM    H1S 9610   3.009   2.877   9.740  3.6471  0.4498 -0.1278
   97OSM    H1T 9611   2.958   2.712   9.777  0.4381 -0.4795 -0.2877
   97OSM     NF 9612   2.846   2.802   9.550  0.1628 -0.1378 -0.4117
   97OSM    HNF 9613   2.768   2.741   9.540  0.1725 -0.1524 -0.3998
   97OSM    C2S 9614   2.987   2.753   9.564 -0.3124  0.3517 -0.1288
   97OSM    H2S 9615   3.051   2.817   9.500  0.8608 -0.5398  0.1479
   97OSM    C3S 9616   2.995   2.603   9.527  0.3379 -0.2002  0.1668
   97OSM    H3S 9617   2.923   2.540   9.583  2.0646 -1.8847  0.5209
   97OSM     O3 9618   3.128   2.548   9.553  0.2260 -0.0585 -0.1468
   97OSM    HO3 9619   3.171   2.607   9.614 -0.5659 -0.3233  0.6719
   97OSM    C4S 9620   2.963   2.590   9.376 -0.1054 -0.1070 -0.2581
   97OSM    H4S 9621   2.870   2.536   9.352  0.6200 -2.1670  1.3347
   97OSM    C5S 9622   3.051   2.620   9.274  0.0861  0.1102 -0.0345
   97OSM    H5S 9623   3.149   2.667   9.291  0.3086  0.6849 -2.6656
   97OSM    C6S 9624   3.013   2.608   9.128  0.1240  0.4974 -0.4564
   97OSM    H6S 9625   3.033   2.705   9.076  1.1136  1.3331  1.4204
   97OSM    H6T 9626   2.907   2.588   9.105 -0.6099  1.6128  1.8006
   97OSM    C7S 9627   3.091   2.502   9.039 -0.5057  0.0450  0.4904
   97OSM    H7S 9628   3.042   2.404   9.061 -0.3181  0.4004  2.5835
   97OSM    H7T 9629   3.201   2.499   9.055 -0.3314 -3.1511 -0.7780
   97OSM    C8S 9630   3.071   2.535   8.887  0.2752  0.2579 -0.2516
   97OSM    H8S 9631   3.137   2.621   8.865  2.8367 -1.4139  0.6701
   97OSM    H8T 9632   2.968   2.567   8.858  0.3861 -1.0055 -2.2190
   97OSM    C9S 9633   3.112   2.417   8.798  0.3023  0.5027 -1.1008
   97OSM    H9S 9634   3.051   2.327   8.823  0.9417  1.0615  2.7538
   97OSM    H9T 9635   3.210   2.387   8.840 -0.0528  3.9465  2.5019
   97OSM   C10S 9636   3.114   2.434   8.646 -0.1107 -0.0356 -0.4058
   97OSM   H10S 9637   3.026   2.497   8.620 -0.1741  1.5780  3.3887
   97OSM   H10T 9638   3.105   2.331   8.604  2.2352 -1.7852  3.1300
   97OSM   C11S 9639   3.234   2.515   8.588  0.2037 -0.8715 -0.1940
   97OSM   H11S 9640   3.325   2.470   8.633 -0.5298 -1.7077  0.4525
   97OSM   H11T 9641   3.228   2.619   8.629  0.2417  0.0391 -2.4190
   97OSM   C12S 9642   3.244   2.532   8.435 -0.7999  0.2643 -0.1038
   97OSM   H12S 9643   3.171   2.610   8.407 -1.2144 -0.0235  0.1603
   97OSM   H12T 9644   3.207   2.448   8.373 -1.9253  1.7190 -1.4330
   97OSM   C13S 9645   3.387   2.563   8.400 -0.1931  0.4353  0.6846
   97OSM   H13S 9646   3.456   2.491   8.450  0.0649  1.1624  1.3789
   97OSM   H13T 9647   3.413   2.666   8.430  1.2917 -0.1012  1.2966
   97OSM   C14S 9648   3.409   2.545   8.247  0.5304  0.4610 -0.1932
   97OSM   H14S 9649   3.321   2.595   8.201  1.0077 -0.0786 -1.6860
   97OSM   H14T 9650   3.404   2.436   8.229  3.6929  0.6855 -2.7491
   97OSM   C15S 9651   3.532   2.611   8.198 -0.4215  0.6280 -0.3159
   97OSM   H15S 9652   3.625   2.570   8.244 -0.7213  0.1718 -0.1058
   97OSM   H15T 9653   3.545   2.715   8.234 -0.2310  0.7878 -0.8422
   97OSM   C16S 9654   3.552   2.598   8.047 -0.2212  0.1957  0.2591
   97OSM   H16S 9655   3.510   2.499   8.017 -0.6297  0.1190  1.0666
   97OSM   H16T 9656   3.660   2.596   8.021  0.1033  0.6420  1.5190
   97OSM   C17S 9657   3.505   2.726   7.978 -0.2061  0.5562  0.2168
   97OSM   H17S 9658   3.571   2.814   7.989  1.6422 -0.7725  0.0216
   97OSM   H17T 9659   3.400   2.756   8.002 -0.5508 -0.8377  0.4872
   97OSM   C18S 9660   3.500   2.689   7.833 -0.0333  0.1629 -0.5111
   97OSM   H18S 9661   3.456   2.771   7.773  0.6795  1.2095  0.3664
   97OSM   H18T 9662   3.441   2.599   7.805 -2.8216  1.4416  0.9396
   97OSM   H18U 9663   3.601   2.686   7.788  0.4644 -1.5749  0.6676
   97OSM    C1F 9664   2.802   2.927   9.576  0.7140 -0.0658  1.0713
   97OSM     OF 9665   2.877   3.027   9.586  0.0018 -0.1286  0.1036
   97OSM    C2F 9666   2.659   2.934   9.601  0.6282 -0.1847  0.5459
   97OSM    H2F 9667   2.645   2.912   9.709 -1.1996 -3.0782 -0.1957
   97OSM    H2G 9668   2.606   2.857   9.540 -1.1552  0.6804  0.9691
   97OSM    C3F 9669   2.597   3.071   9.579  0.6274  0.0253 -0.4676
   97OSM    H3F 9670   2.640   3.152   9.642 -1.2578  2.2135 -1.9447
   97OSM    H3G 9671   2.490   3.067   9.608  0.4897 -0.0626 -0.9915
   97OSM    C4F 9672   2.601   3.126   9.439  0.0117  0.8989 -1.1846
   97OSM    H4F 9673   2.701   3.130   9.391  1.4700  3.0396  1.8841
   97OSM    H4G 9674   2.574   3.234   9.435  0.1367  0.9551 -0.5389
   97OSM    C5F 9675   2.507   3.043   9.351  0.1243 -0.2767  1.0419
   97OSM    H5F 9676   2.402   3.067   9.379 -0.2779 -1.1766  0.3506
   97OSM    H5G 9677   2.515   2.932   9.354  1.1888 -0.3170 -1.6049
   97OSM    C6F 9678   2.518   3.060   9.190 -0.3682 -0.0027 -0.1715
   97OSM    H6F 9679   2.492   3.167   9.171 -2.6917  0.0684  3.0298
   97OSM    H6G 9680   2.441   3.005   9.133 -0.6666  2.0989 -1.8627
   97OSM    C7F 9681   2.656   3.020   9.138  0.7163 -0.7987  0.0679
   97OSM    H7F 9682   2.744   3.068   9.185  0.1860  0.4011 -0.1436
   97OSM    H7G 9683   2.652   3.048   9.031 -3.4009  3.4288  1.1280
   97OSM    C8F 9684   2.692   2.873   9.145  0.2480 -0.3472  0.3316
   97OSM    H8F 9685   2.713   2.857   9.252  0.4257 -0.4323  0.2837
   97OSM    H8G 9686   2.792   2.860   9.099  0.8108  0.3059  1.3668
   97OSM    C9F 9687   2.592   2.768   9.100  0.4913 -0.5710 -0.3048
   97OSM    H9F 9688   2.501   2.762   9.162  0.2595  0.7283 -0.5068
   97OSM   C10F 9689   2.590   2.699   8.988  0.7818 -0.2302  0.3367
   97OSM   H10F 9690   2.520   2.615   8.976 -1.3660  1.4653  0.8247
   97OSM   C11F 9691   2.689   2.705   8.870  0.1479  0.4414  0.1892
   97OSM   H11F 9692   2.742   2.609   8.851 -0.3946  0.0242  0.7589
   97OSM   H11G 9693   2.773   2.774   8.894  1.4827 -1.1489  0.1498
   97OSM   C12F 9694   2.630   2.749   8.740  0.2053  0.5998 -0.3130
   97OSM   H12F 9695   2.539   2.806   8.769 -1.0711 -2.0056  1.0104
   97OSM   H12G 9696   2.602   2.655   8.688  0.2739 -1.6809  3.5865
   97OSM   C13F 9697   2.724   2.842   8.659 -0.2588  0.1320 -0.4756
   97OSM   H13F 9698   2.827   2.799   8.657 -0.0563  0.4543  1.7869
   97OSM   H13G 9699   2.730   2.930   8.727 -0.2312 -0.0694 -0.2155
   97OSM   C14F 9700   2.664   2.881   8.520  0.0875  0.0514 -0.0029
   97OSM   H14F 9701   2.679   2.791   8.455  1.1201 -0.9328  1.5521
   97OSM   H14G 9702   2.726   2.964   8.481 -0.9350 -0.3268 -2.5699
   97OSM   C15F 9703   2.521   2.914   8.525  0.4298  0.3186 -0.8271
   97OSM   H15F 9704   2.503   3.005   8.587  0.1188 -1.8029  2.2579
   97OSM   H15G 9705   2.459   2.836   8.574  1.3039  0.6109  0.7460
   97OSM   C16F 9706   2.462   2.942   8.385  0.0776 -0.5342 -0.8723
   97OSM   H16F 9707   2.534   3.011   8.335  1.1899 -1.3725 -0.4612
   97OSM   H16G 9708   2.374   3.006   8.402  0.6632 -0.1618  0.8172
   97OSM   C17F 9709   2.421   2.815   8.305  0.1272 -0.0842 -0.4622
   97OSM   H17F 9710   2.365   2.751   8.377 -0.2502 -0.6242 -1.2339
   97OSM   H17G 9711   2.510   2.756   8.277 -0.9794 -2.9512  1.8221
   97OSM   C18F 9712   2.345   2.855   8.174  0.1283  0.4169  0.1400
   97OSM   H18F 9713   2.411   2.909   8.103  0.0639  3.4196  2.2618
   97OSM   H18G 9714   2.248   2.904   8.199 -1.2964 -1.5564 -1.4091
   97OSM   H18H 9715   2.318   2.755   8.136  0.1353  0.2489  0.5761
   98OSM      N 9716   2.753   2.888  10.082  0.2801 -0.1480 -0.2456
   98OSM    C15 9717   2.808   2.854  10.221  0.7822 -0.2607  0.1189
   98OSM   H15A 9718   2.820   2.943  10.281 -1.0098  0.4870 -0.5920
   98OSM   H15B 9719   2.903   2.804  10.220  0.9628  0.0575  1.0009
   98OSM   H15C 9720   2.735   2.803  10.282  2.6464  0.0855  2.7466
   98OSM    C14 9721   2.850   2.965  10.001  0.3431  0.8023 -0.5749
   98OSM   H14A 9722   2.867   3.064  10.040  0.7104  0.6036 -0.2290
   98OSM   H14B 9723   2.811   2.987   9.902  2.5765  2.2687 -1.1689
   98OSM   H14C 9724   2.945   2.915   9.987  1.3892  2.2898  1.1324
   98OSM    C13 9725   2.719   2.760  10.016 -0.2804  0.0184  0.3626
   98OSM   H13A 9726   2.633   2.718  10.066 -0.3049 -0.9681 -0.4700
   98OSM   H13B 9727   2.794   2.684  10.035 -0.4799 -0.3713 -0.3978
   98OSM   H13C 9728   2.694   2.771   9.911  1.3144  3.6240  0.2889
   98OSM    C12 9729   2.621   2.961  10.090  0.0434 -0.5358 -0.1078
   98OSM   H12A 9730   2.628   3.061  10.129  2.6683 -1.0452  0.8233
   98OSM   H12B 9731   2.557   2.905  10.156 -0.9227 -0.1568 -0.7106
   98OSM    C11 9732   2.550   2.984   9.956 -0.5136 -1.0919  0.6020
   98OSM   H11A 9733   2.551   2.890   9.896  2.1611  0.3952 -1.8312
   98OSM   H11B 9734   2.614   3.061   9.906 -0.4487  0.4939  3.0647
   98OSM      P 9735   2.312   2.950  10.041  0.2295  0.7642  0.0967
   98OSM    O13 9736   2.372   2.844  10.127  0.5436  0.2157 -0.7382
   98OSM    O14 9737   2.223   3.043  10.112 -0.3578  0.0503  0.2280
   98OSM    O11 9738   2.225   2.879   9.924 -0.5480  0.7214 -0.0534
   98OSM    O12 9739   2.421   3.035   9.980  0.2161 -0.9985 -0.5211
   98OSM    C1S 9740   2.281   2.876   9.792  0.3513  0.7970  0.6480
   98OSM    H1S 9741   2.369   2.809   9.791  0.1695  0.5579 -0.7038
   98OSM    H1T 9742   2.314   2.976   9.756  2.2379 -1.8085 -5.5804
   98OSM     NF 9743   2.241   2.809   9.546 -0.0161  0.6568  0.0077
   98OSM    HNF 9744   2.193   2.835   9.463  1.1625  1.9789 -0.2717
   98OSM    C2S 9745   2.178   2.829   9.680 -0.0165 -1.2920  0.5590
   98OSM    H2S 9746   2.129   2.731   9.700 -1.3199 -1.8375 -4.4559
   98OSM    C3S 9747   2.060   2.933   9.672  0.5181  0.0269  0.2714
   98OSM    H3S 9748   2.100   3.032   9.642 -2.3091  0.9334 -0.6549
   98OSM     O3 9749   1.988   2.934   9.792  0.5571  0.0674 -0.3915
   98OSM    HO3 9750   2.040   2.890   9.860  0.3450  1.1708  0.4876
   98OSM    C4S 9751   1.959   2.899   9.562  0.3245 -0.0414 -0.1237
   98OSM    H4S 9752   1.914   2.799   9.566  1.6332 -0.5734  1.5154
   98OSM    C5S 9753   1.922   2.977   9.453 -0.0311  0.1192  0.1412
   98OSM    H5S 9754   1.973   3.075   9.453 -2.7926  1.6715  2.9274
   98OSM    C6S 9755   1.827   2.948   9.335  0.2249  0.4910  0.3245
   98OSM    H6S 9756   1.811   3.034   9.266  2.6155  0.1760 -0.6721
   98OSM    H6T 9757   1.731   2.913   9.378  0.3102 -0.8491 -0.5657
   98OSM    C7S 9758   1.873   2.849   9.232 -0.0353  0.0435  0.1029
   98OSM    H7S 9759   1.792   2.834   9.157  0.0319  1.1298 -0.1870
   98OSM    H7T 9760   1.884   2.746   9.273 -1.4170  0.0999  0.6540
   98OSM    C8S 9761   2.006   2.895   9.170 -0.7194  1.0041 -0.0386
   98OSM    H8S 9762   2.085   2.908   9.247  1.0109 -2.3967 -1.1450
   98OSM    H8T 9763   1.986   2.996   9.129 -2.9096  0.8037  0.4470
   98OSM    C9S 9764   2.042   2.814   9.046  0.4499  0.6382  0.0517
   98OSM    H9S 9765   1.966   2.832   8.967 -0.0018 -0.5523  0.2108
   98OSM    H9T 9766   2.041   2.705   9.067  1.1360  0.3328 -1.4671
   98OSM   C10S 9767   2.181   2.844   8.996  0.3967 -0.4908  0.4053
   98OSM   H10S 9768   2.204   2.777   8.911  2.1426  1.8941 -1.0757
   98OSM   H10T 9769   2.256   2.825   9.076 -0.8388 -1.2024  1.4017
   98OSM   C11S 9770   2.180   2.986   8.939 -0.1393  0.0125 -0.8121
   98OSM   H11S 9771   2.173   3.047   9.032 -0.9103 -1.4486  0.1136
   98OSM   H11T 9772   2.097   3.005   8.868 -0.7226  1.4430  0.2131
   98OSM   C12S 9773   2.303   3.020   8.856 -0.1309  0.2911  0.2354
   98OSM   H12S 9774   2.291   2.969   8.758 -0.6522  1.1099 -0.1403
   98OSM   H12T 9775   2.398   2.983   8.899  1.6485  2.4114 -1.7167
   98OSM   C13S 9776   2.321   3.166   8.828 -0.4232 -0.2798 -0.1334
   98OSM   H13S 9777   2.429   3.185   8.813 -0.7533  1.5747 -0.3522
   98OSM   H13T 9778   2.308   3.223   8.923 -1.0796 -0.5859 -0.0424
   98OSM   C14S 9779   2.255   3.234   8.713 -0.0697  0.3933 -1.1099
   98OSM   H14S 9780   2.265   3.345   8.712 -0.7808  0.4811  0.7402
   98OSM   H14T 9781   2.148   3.208   8.725  0.4502 -0.6785  1.6156
   98OSM   C15S 9782   2.305   3.189   8.577 -0.1183 -0.3063  0.5828
   98OSM   H15S 9783   2.291   3.078   8.577  0.4920 -0.3851  0.8190
   98OSM   H15T 9784   2.415   3.204   8.578 -0.2116  0.5337 -0.4040
   98OSM   C16S 9785   2.246   3.270   8.455 -0.6501  0.8963 -0.6683
   98OSM   H16S 9786   2.268   3.226   8.355  0.7498 -1.7244  0.7405
   98OSM   H16T 9787   2.307   3.363   8.455  0.3057  0.2734 -0.9090
   98OSM   C17S 9788   2.095   3.295   8.471  0.0372 -0.3340 -0.6366
   98OSM   H17S 9789   2.084   3.352   8.566  0.4982 -1.1815 -0.0661
   98OSM   H17T 9790   2.048   3.197   8.493 -2.0664  0.8029  0.1220
   98OSM   C18S 9791   2.033   3.376   8.361 -0.5765  0.1776  0.0975
   98OSM   H18S 9792   2.068   3.481   8.353 -2.0768  0.5734 -1.5083
   98OSM   H18T 9793   1.922   3.380   8.367 -0.4747  0.5350  2.0305
   98OSM   H18U 9794   2.050   3.320   8.267 -0.4758 -2.5489  1.6857
   98OSM    C1F 9795   2.329   2.713   9.532 -0.5888  0.0367  0.7159
   98OSM     OF 9796   2.397   2.661   9.619  0.0972 -0.2150 -0.2588
   98OSM    C2F 9797   2.351   2.671   9.392  0.1599 -0.2502 -0.5211
   98OSM    H2F 9798   2.458   2.680   9.362  0.3505  0.3599  0.3235
   98OSM    H2G 9799   2.297   2.736   9.320  2.0173  1.8178 -0.0990
   98OSM    C3F 9800   2.313   2.525   9.368 -0.7604 -0.0623  0.5057
   98OSM    H3F 9801   2.204   2.502   9.374 -0.7304 -0.4442 -0.2965
   98OSM    H3G 9802   2.364   2.459   9.441 -2.8566  0.1295  2.2230
   98OSM    C4F 9803   2.341   2.474   9.226 -0.5576  0.1679  0.5225
   98OSM    H4F 9804   2.445   2.500   9.197 -0.7732  1.2108  0.6584
   98OSM    H4G 9805   2.267   2.523   9.159 -0.6568  1.3662  1.4860
   98OSM    C5F 9806   2.343   2.322   9.224 -0.0742 -0.8528 -0.0423
   98OSM    H5F 9807   2.244   2.277   9.247 -1.2722 -0.1612 -3.5997
   98OSM    H5G 9808   2.420   2.286   9.296  3.4795  0.7385 -2.8786
   98OSM    C6F 9809   2.388   2.275   9.088 -0.1432 -0.4905  0.2813
   98OSM    H6F 9810   2.447   2.181   9.083  1.0592  0.2986 -0.2992
   98OSM    H6G 9811   2.458   2.354   9.054 -1.6122  0.1704 -1.3403
   98OSM    C7F 9812   2.270   2.264   9.000  0.0392 -0.0290  0.5401
   98OSM    H7F 9813   2.205   2.353   9.010 -0.9698 -0.8386  1.3128
   98OSM    H7G 9814   2.205   2.180   9.032 -0.5714  0.5625  0.8799
   98OSM    C8F 9815   2.301   2.231   8.846  0.0733 -0.2105  0.9910
   98OSM    H8F 9816   2.217   2.164   8.816 -0.5393 -0.2336  2.6990
   98OSM    H8G 9817   2.400   2.180   8.845 -0.5805 -1.5087  0.6349
   98OSM    C9F 9818   2.324   2.354   8.758 -0.2690 -0.3059  0.4740
   98OSM    H9F 9819   2.362   2.441   8.813  1.2562  0.3045 -1.5229
   98OSM   C10F 9820   2.305   2.355   8.625 -0.2276 -0.3278  0.6851
   98OSM   H10F 9821   2.330   2.450   8.577  0.4616 -1.4137 -1.1485
   98OSM   C11F 9822   2.261   2.231   8.547  0.0262 -0.1308  0.4230
   98OSM   H11F 9823   2.168   2.181   8.582  0.7794  0.0276  2.7201
   98OSM   H11G 9824   2.343   2.157   8.552  1.6329  1.7065  3.0814
   98OSM   C12F 9825   2.242   2.272   8.396  0.2005 -0.2954  0.4530
   98OSM   H12F 9826   2.173   2.358   8.385  0.6915  0.2530  1.5351
   98OSM   H12G 9827   2.202   2.182   8.345 -0.2365  0.1515 -0.0017
   98OSM   C13F 9828   2.382   2.300   8.329  1.1317  0.2486 -0.2862
   98OSM   H13F 9829   2.439   2.205   8.332 -0.9531 -0.9927  1.1671
   98OSM   H13G 9830   2.432   2.385   8.381  0.5435  1.2388 -1.2913
   98OSM   C14F 9831   2.362   2.356   8.185 -0.9451 -0.5928 -0.6273
   98OSM   H14F 9832   2.462   2.389   8.150 -1.6070  1.3895 -0.6773
   98OSM   H14G 9833   2.304   2.450   8.187 -0.5292 -0.3467 -0.0551
   98OSM   C15F 9834   2.310   2.257   8.078 -0.2949 -0.2223 -0.2993
   98OSM   H15F 9835   2.209   2.217   8.102 -1.0126  0.3394 -2.2660
   98OSM   H15G 9836   2.373   2.166   8.072  1.2293  0.7449  0.9220
   98OSM   C16F 9837   2.309   2.315   7.937 -0.4636 -0.0310  0.3652
   98OSM   H16F 9838   2.392   2.389   7.941 -1.6752  1.3860 -0.0208
   98OSM   H16G 9839   2.219   2.377   7.913  0.7515  1.9301  0.7687
   98OSM   C17F 9840   2.337   2.211   7.825 -0.3900 -0.3740 -0.0695
   98OSM   H17F 9841   2.247   2.146   7.826 -0.7597  0.0734 -1.8324
   98OSM   H17G 9842   2.419   2.147   7.862 -1.1821 -0.8580  0.8491
   98OSM   C18F 9843   2.372   2.273   7.689  0.2074  0.8868 -0.5336
   98OSM   H18F 9844   2.284   2.318   7.639  0.9605  0.7783 -1.9717
   98OSM   H18G 9845   2.409   2.189   7.627  3.0682  1.6877  0.0241
   98OSM   H18H 9846   2.453   2.347   7.704  0.5347  0.7979 -1.8434
   99OSM      N 9847   2.940   1.842  10.314  0.4803 -0.3278  0.2058
   99OSM    C15 9848   3.068   1.788  10.271  0.5313  0.0560  0.8313
   99OSM   H15A 9849   3.124   1.846  10.199 -0.3946 -2.1082 -1.7170
   99OSM   H15B 9850   3.063   1.694  10.218  1.7119  0.2487  0.3530
   99OSM   H15C 9851   3.133   1.786  10.358  3.7180  1.3949 -1.4446
   99OSM    C14 9852   2.871   1.744  10.400  0.5276  0.1652 -0.4089
   99OSM   H14A 9853   2.820   1.668  10.343 -3.3553  1.9478  0.5435
   99OSM   H14B 9854   2.796   1.792  10.461 -0.3091  0.7957 -1.9320
   99OSM   H14C 9855   2.931   1.680  10.464  1.9414  0.3734 -1.5068
   99OSM    C13 9856   2.974   1.965  10.389 -0.3018 -0.3915 -0.0788
   99OSM   H13A 9857   2.893   1.999  10.452 -0.0362  1.1166 -0.5211
   99OSM   H13B 9858   3.013   2.039  10.321 -0.3777 -1.5238 -1.3781
   99OSM   H13C 9859   3.061   1.942  10.448 -0.5475  3.4710  1.9854
   99OSM    C12 9860   2.849   1.869  10.196 -0.5052  0.6539  0.3863
   99OSM   H12A 9861   2.754   1.903  10.235 -0.4668  1.6492 -0.3630
   99OSM   H12B 9862   2.834   1.783  10.133  2.1166 -0.4253  1.1787
   99OSM    C11 9863   2.900   1.978  10.094  0.0324  0.8466  0.1893
   99OSM   H11A 9864   2.824   1.980  10.014  0.2885 -3.5206 -0.2497
   99OSM   H11B 9865   2.999   1.937  10.064 -0.5308 -1.5574  1.4470
   99OSM      P 9866   2.923   2.232  10.075  0.4686 -0.1367 -0.4259
   99OSM    O13 9867   2.799   2.310  10.080  0.2158  0.3834 -0.2627
   99OSM    O14 9868   3.044   2.298  10.129  0.6139  0.3708 -0.0968
   99OSM    O11 9869   2.955   2.191   9.926 -0.3643  0.6390  0.0909
   99OSM    O12 9870   2.904   2.102  10.159 -0.2899  0.0624  0.1766
   99OSM    C1S 9871   3.061   2.252   9.858  0.2723  0.0999  0.2112
   99OSM    H1S 9872   3.159   2.230   9.907  0.7555  2.3566  0.2998
   99OSM    H1T 9873   3.042   2.361   9.853  0.6379  0.1385 -0.3410
   99OSM     NF 9874   3.178   2.271   9.648 -0.0542  0.9135 -0.9511
   99OSM    HNF 9875   3.158   2.362   9.613 -1.7394  1.1999  0.6987
   99OSM    C2S 9876   3.072   2.196   9.714 -0.5848  0.0329  0.3748
   99OSM    H2S 9877   3.103   2.090   9.727 -2.4257 -0.3630  1.8470
   99OSM    C3S 9878   2.936   2.207   9.639  0.0202 -0.9257  0.1594
   99OSM    H3S 9879   2.916   2.317   9.637 -1.1248 -1.1392 -3.4439
   99OSM     O3 9880   2.827   2.142   9.706 -0.5869 -0.3861 -0.5303
   99OSM    HO3 9881   2.861   2.150   9.795  1.2727 -1.2124 -1.1350
   99OSM    C4S 9882   2.951   2.150   9.499 -0.0528 -0.2338 -0.5674
   99OSM    H4S 9883   2.977   2.043   9.498  2.2999  0.2893 -0.3707
   99OSM    C5S 9884   2.932   2.223   9.387  0.7219 -0.1198  0.4045
   99OSM    H5S 9885   2.899   2.328   9.388  2.5584  0.5819 -3.1982
   99OSM    C6S 9886   2.947   2.165   9.247  0.3544  0.5770  0.4292
   99OSM    H6S 9887   2.959   2.055   9.251 -2.0348  0.3321  1.5922
   99OSM    H6T 9888   3.031   2.215   9.194 -0.2532 -0.5195 -1.6392
   99OSM    C7S 9889   2.817   2.195   9.165 -0.4344  0.6692  0.2405
   99OSM    H7S 9890   2.800   2.305   9.163  2.1004  1.0912  0.4083
   99OSM    H7T 9891   2.738   2.132   9.211 -0.0220 -0.0875 -0.0761
   99OSM    C8S 9892   2.835   2.142   9.018  0.6726  0.4954 -0.0143
   99OSM    H8S 9893   2.854   2.033   9.023 -1.0284  0.2341  1.0528
   99OSM    H8T 9894   2.930   2.185   8.979  1.4645 -0.1257  1.2151
   99OSM    C9S 9895   2.711   2.168   8.928  0.4155  0.3458  0.2430
   99OSM    H9S 9896   2.673   2.272   8.928  3.2606  1.5981 -5.3246
   99OSM    H9T 9897   2.627   2.109   8.970  2.8069 -1.6402  2.3981
   99OSM   C10S 9898   2.744   2.117   8.778 -0.3889  0.0792  0.9862
   99OSM   H10S 9899   2.782   2.013   8.780  4.0050  1.5261 -0.6661
   99OSM   H10T 9900   2.823   2.183   8.736  0.1652 -0.1719  1.6292
   99OSM   C11S 9901   2.624   2.128   8.688  0.8403 -0.1350  0.1613
   99OSM   H11S 9902   2.570   2.225   8.691 -1.5685 -1.4389 -0.1000
   99OSM   H11T 9903   2.546   2.055   8.717 -0.4046 -0.1571 -3.0084
   99OSM   C12S 9904   2.663   2.098   8.537  0.3035  0.0887 -0.6399
   99OSM   H12S 9905   2.733   2.012   8.536  0.6289  0.3148  1.2451
   99OSM   H12T 9906   2.563   2.080   8.491 -1.4771  1.0048  2.6336
   99OSM   C13S 9907   2.724   2.222   8.469  0.3849  0.5707  0.1538
   99OSM   H13S 9908   2.824   2.235   8.517  0.3284  3.7880 -0.5101
   99OSM   H13T 9909   2.671   2.317   8.492  2.2559  1.7991 -0.5175
   99OSM   C14S 9910   2.749   2.196   8.317 -0.6195  0.2870 -0.2853
   99OSM   H14S 9911   2.646   2.180   8.279 -1.0122 -2.8278  1.8777
   99OSM   H14T 9912   2.801   2.099   8.308  1.6871  1.1021  3.1149
   99OSM   C15S 9913   2.832   2.303   8.248  0.2761 -0.4351  0.3866
   99OSM   H15S 9914   2.917   2.339   8.309  1.8876 -1.3947 -1.2671
   99OSM   H15T 9915   2.767   2.393   8.238  0.2484 -0.3423  1.3557
   99OSM   C16S 9916   2.869   2.267   8.102 -0.3727  0.6066  0.5912
   99OSM   H16S 9917   2.785   2.202   8.069  0.0193  0.6966 -0.6408
   99OSM   H16T 9918   2.965   2.210   8.107  0.4081  2.0069  2.1337
   99OSM   C17S 9919   2.887   2.394   8.016  0.0403  0.2661  0.3192
   99OSM   H17S 9920   2.809   2.462   8.057 -1.2350  0.5573 -2.4900
   99OSM   H17T 9921   2.881   2.380   7.906 -0.4851  1.1457  0.2337
   99OSM   C18S 9922   3.021   2.457   8.052 -0.3775 -0.4801 -0.6702
   99OSM   H18S 9923   3.029   2.555   8.000 -1.0469  0.0133  0.1367
   99OSM   H18T 9924   3.105   2.389   8.026  0.1095  0.2449 -0.9979
   99OSM   H18U 9925   3.024   2.472   8.162 -2.7444 -0.5862 -0.5634
   99OSM    C1F 9926   3.308   2.251   9.674 -0.2299  0.3357 -0.1879
   99OSM     OF 9927   3.346   2.156   9.742  0.0790  0.2286  0.0428
   99OSM    C2F 9928   3.403   2.355   9.626  0.2496 -0.0510  0.3453
   99OSM    H2F 9929   3.482   2.366   9.703  2.5197 -0.3791 -1.8759
   99OSM    H2G 9930   3.348   2.451   9.617 -0.4367 -0.4330  0.4746
   99OSM    C3F 9931   3.467   2.310   9.494 -0.2356  0.8647 -0.4057
   99OSM    H3F 9932   3.542   2.389   9.471 -0.6510  1.5281  0.5001
   99OSM    H3G 9933   3.531   2.221   9.514 -2.1111 -0.0978  1.4626
   99OSM    C4F 9934   3.366   2.290   9.374 -0.4898 -0.8007 -0.3086
   99OSM    H4F 9935   3.290   2.370   9.376  0.4385  0.0670  0.4866
   99OSM    H4G 9936   3.326   2.188   9.396 -0.6912 -0.2015  2.3232
   99OSM    C5F 9937   3.446   2.274   9.241  0.5375  0.7190 -0.7859
   99OSM    H5F 9938   3.527   2.202   9.265  1.5720  2.2888  0.4880
   99OSM    H5G 9939   3.490   2.366   9.199 -0.1607  1.7048  0.6058
   99OSM    C6F 9940   3.350   2.217   9.136 -0.0986 -0.5330  0.1292
   99OSM    H6F 9941   3.312   2.300   9.074  3.2815  1.1935  0.2882
   99OSM    H6G 9942   3.272   2.150   9.180 -0.3868 -0.3534 -0.1048
   99OSM    C7F 9943   3.420   2.123   9.029 -0.2891  0.0534 -0.6385
   99OSM    H7F 9944   3.428   2.021   9.071 -1.0051  0.8721  1.5149
   99OSM    H7G 9945   3.520   2.168   9.008 -0.7190  0.7131 -1.3069
   99OSM    C8F 9946   3.334   2.120   8.904  0.0643 -0.5015  0.3379
   99OSM    H8F 9947   3.387   2.061   8.826  1.3591 -2.4157  2.5792
   99OSM    H8G 9948   3.337   2.223   8.862 -0.2135 -1.0403 -1.0060
   99OSM    C9F 9949   3.203   2.054   8.925  0.0438  0.6405 -0.5003
   99OSM    H9F 9950   3.124   2.115   8.971  2.0660  1.4799  1.9823
   99OSM   C10F 9951   3.180   1.930   8.873 -0.1610 -0.6457 -0.2516
   99OSM   H10F 9952   3.090   1.876   8.907  0.7134 -1.4866  0.8070
   99OSM   C11F 9953   3.271   1.834   8.789  0.0457 -0.3535 -0.0894
   99OSM   H11F 9954   3.255   1.730   8.823  2.5373 -0.1182  2.0268
   99OSM   H11G 9955   3.380   1.848   8.808  0.4403 -1.5667 -1.3812
   99OSM   C12F 9956   3.265   1.847   8.636 -0.3672  0.5223  0.3800
   99OSM   H12F 9957   3.360   1.809   8.593 -0.6470  0.1329  0.1014
   99OSM   H12G 9958   3.271   1.956   8.613 -0.9855 -0.0129 -2.4502
   99OSM   C13F 9959   3.143   1.775   8.578  0.0432 -0.8319  0.0957
   99OSM   H13F 9960   3.139   1.809   8.472 -1.1086 -1.5126 -0.0873
   99OSM   H13G 9961   3.040   1.800   8.613 -0.3033 -2.5271  0.3142
   99OSM   C14F 9962   3.153   1.621   8.574 -0.5170  0.3136 -0.4196
   99OSM   H14F 9963   3.135   1.587   8.678  0.2688  1.4176  0.0805
   99OSM   H14G 9964   3.257   1.599   8.543 -0.8033 -1.1533 -0.3592
   99OSM   C15F 9965   3.032   1.565   8.500  0.1817 -0.0488  0.0669
   99OSM   H15F 9966   3.017   1.627   8.410  0.4195  0.4760  0.3881
   99OSM   H15G 9967   2.941   1.572   8.563  0.6003  0.4215  0.6318
   99OSM   C16F 9968   3.055   1.420   8.453 -0.1564 -0.2742 -0.3636
   99OSM   H16F 9969   3.079   1.354   8.539  1.4442 -0.6857 -1.1212
   99OSM   H16G 9970   3.137   1.417   8.379 -0.3120 -1.4931 -0.4993
   99OSM   C17F 9971   2.931   1.363   8.387  0.2705 -0.7489 -0.5001
   99OSM   H17F 9972   2.907   1.424   8.297 -0.1771 -1.2245 -0.7032
   99OSM   H17G 9973   2.832   1.370   8.437  0.2722 -1.9135 -0.3125
   99OSM   C18F 9974   2.956   1.223   8.352 -0.2519 -0.4744  0.0737
   99OSM   H18F 9975   2.999   1.165   8.436 -0.1297  1.1805  1.1678
   99OSM   H18G 9976   3.028   1.213   8.267  0.6729  0.5603  0.7207
   99OSM   H18H 9977   2.863   1.172   8.320  0.8975 -2.9462  0.5157
  100OSM      N 9978   5.690   3.746  10.333 -0.3943  0.4363 -0.5034
  100OSM    C15 9979   5.641   3.819  10.455  0.0861  0.3666 -0.7449
  100OSM   H15A 9980   5.608   3.918  10.429 -0.2305 -0.1299 -2.2708
  100OSM   H15B 9981   5.705   3.825  10.542 -0.3710  1.3395 -0.4631
  100OSM   H15C 9982   5.543   3.785  10.485  0.1354  0.4790 -0.4532
  100OSM    C14 9983   5.821   3.814  10.292  0.2062 -0.5059  0.0135
  100OSM   H14A 9984   5.811   3.921  10.297 -1.8674 -0.7568  1.9085
  100OSM   H14B 9985   5.865   3.786  10.197 -0.3777 -3.4068  0.5547
  100OSM   H14C 9986   5.891   3.804  10.374  1.0044  2.5113 -0.2301
  100OSM    C13 9987   5.713   3.598  10.367 -0.4075 -0.3834  0.0042
  100OSM   H13A 9988   5.622   3.548  10.397  0.3783 -3.3326 -2.2957
  100OSM   H13B 9989   5.781   3.585  10.450  0.4119 -1.2278 -0.7779
  100OSM   H13C 9990   5.756   3.545  10.283 -1.0395  1.5085 -1.5311
  100OSM    C12 9991   5.583   3.750  10.221 -0.1881  0.4784  0.5922
  100OSM   H12A 9992   5.546   3.850  10.204 -0.8453  0.3787  1.4323
  100OSM   H12B 9993   5.496   3.691  10.244  0.4257 -0.3231  0.8861
  100OSM    C11 9994   5.628   3.713  10.075  0.0880 -0.1286 -0.2671
  100OSM   H11A 9995   5.534   3.700  10.017 -0.4761  0.9348  0.3988
  100OSM   H11B 9996   5.679   3.615  10.082  1.3051  0.5651  0.8499
  100OSM      P 9997   5.665   3.940   9.958 -0.2390  0.7239  0.2568
  100OSM    O13 9998   5.569   3.919   9.850  0.1365  0.0008 -0.1355
  100OSM    O14 9999   5.609   4.032  10.066 -0.1045  0.2845 -0.7464
  100OSM    O1110000   5.793   4.021   9.904  0.2915  0.0756 -0.4924
  100OSM    O1210001   5.720   3.806  10.026  0.0362 -0.5066  0.2506
  100OSM    C1S10002   5.889   3.928   9.844 -0.5202  0.0550  0.5806
  100OSM    H1S10003   5.855   3.869   9.756 -0.6901 -1.1745  1.4542
  100OSM    H1T10004   5.922   3.849   9.915  1.6375  0.5776  0.1667
  100OSM     NF10005   6.119   3.920   9.736 -0.2496  0.6524  0.1416
  100OSM    HNF10006   6.188   3.866   9.784  1.4581  0.1588 -2.7846
  100OSM    C2S10007   6.021   4.011   9.801 -0.1580  0.4132  0.4573
  100OSM    H2S10008   5.977   4.092   9.737  1.6695  1.1788  0.1471
  100OSM    C3S10009   6.081   4.088   9.926  0.0302  0.3647  0.3161
  100OSM    H3S10010   6.128   4.012   9.992  1.1172  1.7029  1.0933
  100OSM     O310011   5.995   4.174   9.997 -0.6011 -0.1762 -0.0612
  100OSM    HO310012   5.910   4.168   9.953 -0.6948 -1.6401  0.3004
  100OSM    C4S10013   6.204   4.164   9.880  0.4179  0.0129  0.2204
  100OSM    H4S10014   6.292   4.099   9.871 -1.6129 -2.7897 -0.5327
  100OSM    C5S10015   6.216   4.291   9.843  0.7589 -0.5190 -0.3218
  100OSM    H5S10016   6.126   4.353   9.851 -0.3428 -1.8855 -1.8776
  100OSM    C6S10017   6.345   4.355   9.796 -0.3341  0.5934  0.4578
  100OSM    H6S10018   6.405   4.379   9.887  1.0658 -2.0818  0.2900
  100OSM    H6T10019   6.310   4.445   9.742  0.6378  1.1381  0.7179
  100OSM    C7S10020   6.444   4.272   9.707  0.0432 -0.6130  0.5396
  100OSM    H7S10021   6.497   4.194   9.766  2.2298  0.7585  0.4241
  100OSM    H7T10022   6.517   4.344   9.666  0.0522  0.9052  3.1286
  100OSM    C8S10023   6.379   4.191   9.588  0.7152  0.3650  0.0252
  100OSM    H8S10024   6.296   4.123   9.617  0.6850  0.4248  0.0757
  100OSM    H8T10025   6.453   4.131   9.532 -0.9530 -1.7780  0.0117
  100OSM    C9S10026   6.319   4.282   9.478  0.6173  0.0076 -0.4182
  100OSM    H9S10027   6.389   4.354   9.430  0.3140  1.6531  1.5409
  100OSM    H9T10028   6.243   4.341   9.533  1.2089  0.2533  0.1417
  100OSM   C10S10029   6.257   4.209   9.354  0.2011  0.2639  0.3339
  100OSM   H10S10030   6.193   4.123   9.383  0.5577 -0.5937 -1.3564
  100OSM   H10T10031   6.340   4.177   9.287  0.1677  0.0095  0.4119
  100OSM   C11S10032   6.172   4.307   9.271 -0.3835 -0.4790 -0.1068
  100OSM   H11S10033   6.216   4.403   9.305 -2.9238  0.9289 -0.6402
  100OSM   H11T10034   6.068   4.322   9.306 -0.4664 -0.8609 -0.1796
  100OSM   C12S10035   6.181   4.299   9.122  0.1913 -0.2872 -0.1293
  100OSM   H12S10036   6.288   4.285   9.097  0.3894  1.8962 -0.5820
  100OSM   H12T10037   6.136   4.395   9.088  1.6309  0.1007 -0.9700
  100OSM   C13S10038   6.094   4.190   9.065  0.0289 -0.2924  0.0893
  100OSM   H13S10039   5.986   4.218   9.064 -0.0573 -0.6216  0.2578
  100OSM   H13T10040   6.106   4.093   9.118  0.0832 -0.1940  0.2549
  100OSM   C14S10041   6.128   4.168   8.911  0.2629  0.4761 -0.3312
  100OSM   H14S10042   6.069   4.083   8.869 -0.8894  2.2081 -2.3549
  100OSM   H14T10043   6.236   4.145   8.901  0.0887 -0.5493  0.1109
  100OSM   C15S10044   6.092   4.282   8.810  0.2522 -0.1569 -0.1717
  100OSM   H15S10045   6.172   4.359   8.816  0.2936 -0.3575  2.1261
  100OSM   H15T10046   6.007   4.341   8.850 -0.0037  0.7498 -1.9721
  100OSM   C16S10047   6.058   4.228   8.671 -0.0939 -0.1602  0.4433
  100OSM   H16S10048   5.960   4.180   8.690  0.1171 -0.7372  0.0981
  100OSM   H16T10049   6.136   4.155   8.639 -0.9387 -0.2827 -1.4072
  100OSM   C17S10050   6.041   4.344   8.572 -1.1030 -0.9027  0.4947
  100OSM   H17S10051   6.136   4.401   8.579 -1.6890 -0.0274  1.6075
  100OSM   H17T10052   5.960   4.413   8.605 -0.8027  0.9434 -2.4377
  100OSM   C18S10053   6.017   4.296   8.423 -0.2545  0.5615 -0.0998
  100OSM   H18S10054   6.016   4.385   8.356  0.8027  0.0781 -0.7630
  100OSM   H18T10055   5.924   4.236   8.419  0.5356 -0.7767  1.0508
  100OSM   H18U10056   6.098   4.223   8.401 -1.5258 -0.5972 -1.0071
  100OSM    C1F10057   6.108   3.893   9.608 -0.9943 -0.0386  0.0532
  100OSM     OF10058   6.014   3.924   9.541  0.0016  0.5433  0.2289
  100OSM    C2F10059   6.206   3.792   9.550  0.0038  0.0596  0.0485
  100OSM    H2F10060   6.221   3.711   9.625 -1.9860  0.3418  0.7736
  100OSM    H2G10061   6.305   3.844   9.554 -0.0877  0.1363  1.6569
  100OSM    C3F10062   6.176   3.730   9.410 -0.5373  0.3169  0.4795
  100OSM    H3F10063   6.075   3.686   9.421 -0.9800  1.7524  2.3021
  100OSM    H3G10064   6.253   3.651   9.393 -0.2872  1.1140 -2.3800
  100OSM    C4F10065   6.176   3.822   9.284  0.3288  0.1533 -0.4909
  100OSM    H4F10066   6.280   3.859   9.273  1.1662 -2.1519 -0.6133
  100OSM    H4G10067   6.108   3.909   9.299  0.5196  0.1047  0.6419
  100OSM    C5F10068   6.135   3.738   9.165 -0.0382  0.0741 -0.0071
  100OSM    H5F10069   6.032   3.698   9.177 -1.3583  3.3383  0.0861
  100OSM    H5G10070   6.203   3.650   9.162 -1.7488 -1.3238  1.1987
  100OSM    C6F10071   6.147   3.800   9.022  0.4304 -0.3903  0.1162
  100OSM    H6F10072   6.248   3.840   8.995 -1.2354  2.1566 -2.6685
  100OSM    H6G10073   6.084   3.891   9.015  1.9589  0.6153 -0.8820
  100OSM    C7F10074   6.093   3.705   8.911  0.5340  0.3037 -0.2444
  100OSM    H7F10075   5.995   3.676   8.955  0.9804  1.5561  1.6735
  100OSM    H7G10076   6.151   3.611   8.908 -1.4996 -0.9896  0.3474
  100OSM    C8F10077   6.064   3.771   8.768  0.4614 -0.3017 -0.2070
  100OSM    H8F10078   5.986   3.848   8.791  0.7217 -0.4570  1.2652
  100OSM    H8G10079   6.037   3.699   8.688  0.7731 -0.2579 -0.3510
  100OSM    C9F10080   6.182   3.844   8.713 -0.1060  0.2487  0.3868
  100OSM    H9F10081   6.277   3.834   8.767  1.2902 -1.0280 -2.2123
  100OSM   C10F10082   6.183   3.903   8.594  0.3429  0.7226 -0.0811
  100OSM   H10F10083   6.284   3.922   8.556  0.4426 -0.8776 -0.6850
  100OSM   C11F10084   6.064   3.917   8.498  0.2824  0.1874  0.1983
  100OSM   H11F10085   6.039   4.022   8.472 -0.9281 -0.0152  0.5114
  100OSM   H11G10086   5.967   3.872   8.527  0.2116  1.5329  2.1573
  100OSM   C12F10087   6.118   3.847   8.372 -0.0072 -0.3924 -0.4095
  100OSM   H12F10088   6.021   3.836   8.318  0.4093  0.9215 -1.4341
  100OSM   H12G10089   6.149   3.741   8.390  2.7657  0.7988  2.1538
  100OSM   C13F10090   6.216   3.931   8.282  0.1644  0.0953  0.2414
  100OSM   H13F10091   6.313   3.953   8.330  0.6826 -1.6409  0.0001
  100OSM   H13G10092   6.167   4.031   8.277 -3.0699 -1.3941  0.8429
  100OSM   C14F10093   6.248   3.865   8.150 -0.8389  1.1472 -0.1481
  100OSM   H14F10094   6.146   3.834   8.120 -0.0654 -1.9806  0.3703
  100OSM   H14G10095   6.309   3.775   8.166  0.0591  2.1505  2.3643
  100OSM   C15F10096   6.313   3.957   8.047 -0.3066 -0.0750 -0.0866
  100OSM   H15F10097   6.256   4.050   8.028  1.4687  1.2964  1.1685
  100OSM   H15G10098   6.311   3.893   7.955  0.9797  0.8271 -0.7645
  100OSM   C16F10099   6.457   3.994   8.067  0.3389  0.0141  0.3418
  100OSM   H16F10100   6.517   3.912   8.111 -0.4717 -1.2531 -0.8579
  100OSM   H16G10101   6.466   4.080   8.137 -0.0592 -0.2737  0.7520
  100OSM   C17F10102   6.509   4.017   7.922 -0.2235 -0.2390 -0.0685
  100OSM   H17F10103   6.500   3.919   7.871 -1.0170  0.1885 -0.7578
  100OSM   H17G10104   6.619   4.030   7.931 -0.0522  0.4193 -2.6756
  100OSM   C18F10105   6.459   4.146   7.849 -0.3794 -0.0539 -0.4725
  100OSM   H18F10106   6.463   4.234   7.916 -2.4791 -0.4584  0.2065
  100OSM   H18G10107   6.353   4.137   7.817 -0.8614 -0.8752  1.2690
  100OSM   H18H10108   6.522   4.172   7.761  0.1273  3.1160  0.7883
  101OSM      N10109   1.827   3.908  10.057  0.0196  0.4820 -0.3245
  101OSM    C1510110   1.966   3.857  10.085  0.1497  0.5747  0.6478
  101OSM   H15A10111   2.019   3.925  10.152 -0.7582  3.0221 -1.0352
  101OSM   H15B10112   2.021   3.847   9.993  0.5815  1.2117  0.8291
  101OSM   H15C10113   1.972   3.758  10.128  1.1130 -0.2330 -1.3006
  101OSM    C1410114   1.834   4.049  10.020 -0.6056 -1.0949  0.4758
  101OSM   H14A10115   1.886   4.070   9.928  0.0272 -1.7603  0.6726
  101OSM   H14B10116   1.872   4.107  10.103 -0.3300 -0.1034 -0.3384
  101OSM   H14C10117   1.733   4.085  10.007 -1.0793 -2.7503 -0.7134
  101OSM    C1310118   1.765   3.833   9.944 -0.6860 -0.0077  0.1593
  101OSM   H13A10119   1.758   3.727   9.964  2.5081 -0.3800 -0.5785
  101OSM   H13B10120   1.826   3.840   9.856 -1.4261 -0.3804 -0.3885
  101OSM   H13C10121   1.669   3.877   9.920  0.0769 -0.4032 -3.8894
  101OSM    C1210122   1.734   3.897  10.173 -0.1235 -0.4018 -0.0582
  101OSM   H12A10123   1.785   3.960  10.244 -0.5118 -0.8988  0.6663
  101OSM   H12B10124   1.741   3.799  10.216 -1.7396  0.7332  2.8864
  101OSM    C1110125   1.583   3.937  10.166 -0.5799  0.0601 -0.0561
  101OSM   H11A10126   1.549   3.913  10.269 -1.3042 -0.5170 -0.4308
  101OSM   H11B10127   1.523   3.871  10.100 -1.0794  0.1927  0.2650
  101OSM      P10128   1.422   4.149  10.122 -0.1392 -0.1331 -0.4936
  101OSM    O1310129   1.342   4.091  10.013 -0.2792 -0.6552  0.4075
  101OSM    O1410130   1.359   4.134  10.254 -0.5397  0.4609 -0.4302
  101OSM    O1110131   1.454   4.299  10.090 -0.2853 -0.5500  0.6630
  101OSM    O1210132   1.563   4.079  10.126  0.3953 -0.1413 -0.7366
  101OSM    C1S10133   1.563   4.349  10.009 -0.1835 -0.2721 -0.1517
  101OSM    H1S10134   1.634   4.266   9.986 -2.2832 -2.2330  0.2856
  101OSM    H1T10135   1.613   4.428  10.069 -0.5966  0.4935 -0.7948
  101OSM     NF10136   1.629   4.437   9.788 -0.4073  0.3019 -0.2233
  101OSM    HNF10137   1.658   4.531   9.774 -0.4050  0.1127 -1.5806
  101OSM    C2S10138   1.515   4.412   9.868 -0.0866  0.3944 -0.0541
  101OSM    H2S10139   1.458   4.335   9.811  1.0596  0.8117 -1.7828
  101OSM    C3S10140   1.428   4.536   9.904 -0.6261 -0.3633  0.5034
  101OSM    H3S10141   1.492   4.625   9.921 -0.5053 -0.3121 -0.2161
  101OSM     O310142   1.348   4.527  10.022 -0.1443 -0.7916 -0.0173
  101OSM    HO310143   1.370   4.442  10.061 -0.7089 -0.1980  1.6278
  101OSM    C4S10144   1.347   4.566   9.782  0.7013  0.1954  0.0553
  101OSM    H4S10145   1.388   4.645   9.717  3.0040 -2.7979 -2.3150
  101OSM    C5S10146   1.231   4.508   9.747 -0.2317 -0.1463 -0.3505
  101OSM    H5S10147   1.184   4.428   9.806  0.1924  3.1070  4.7893
  101OSM    C6S10148   1.149   4.540   9.626 -0.1530 -0.2712 -0.3787
  101OSM    H6S10149   1.041   4.525   9.648  0.5115 -3.9650  0.7711
  101OSM    H6T10150   1.169   4.472   9.541 -2.6130 -0.4815 -0.8341
  101OSM    C7S10151   1.160   4.686   9.574  0.0518 -0.5258  0.4603
  101OSM    H7S10152   1.266   4.712   9.554  0.3453 -2.7223 -1.0249
  101OSM    H7T10153   1.108   4.754   9.645  0.4756  0.6427 -0.3502
  101OSM    C8S10154   1.093   4.707   9.438  0.6643 -0.1139  0.3966
  101OSM    H8S10155   1.093   4.816   9.415 -1.5941 -0.1953 -0.1423
  101OSM    H8T10156   0.983   4.691   9.450  0.7589 -0.0402  1.4383
  101OSM    C9S10157   1.150   4.632   9.316  0.1550 -0.3457 -0.5272
  101OSM    H9S10158   1.072   4.632   9.237 -0.4680  0.3222  0.0822
  101OSM    H9T10159   1.163   4.526   9.345  0.5620 -0.9005 -2.6818
  101OSM   C10S10160   1.279   4.693   9.259  0.1323 -0.0388 -1.0281
  101OSM   H10S10161   1.358   4.695   9.336  0.0379 -0.7390 -0.9058
  101OSM   H10T10162   1.267   4.799   9.231  0.6256  0.3932  0.3620
  101OSM   C11S10163   1.343   4.620   9.130  0.0707 -0.7933  0.4861
  101OSM   H11S10164   1.260   4.584   9.067 -1.0257  2.0060  0.2596
  101OSM   H11T10165   1.415   4.541   9.162  0.9319 -0.4721 -0.6273
  101OSM   C12S10166   1.428   4.717   9.057  0.6300 -0.6722  0.1827
  101OSM   H12S10167   1.514   4.747   9.121 -0.4994 -2.3693  2.5505
  101OSM   H12T10168   1.356   4.795   9.026 -2.3677 -2.6543  1.8702
  101OSM   C13S10169   1.479   4.652   8.926  0.1179 -0.1571 -0.3878
  101OSM   H13S10170   1.568   4.711   8.895  1.8264 -0.2827  3.9582
  101OSM   H13T10171   1.397   4.669   8.853  2.2780  1.1076 -2.6516
  101OSM   C14S10172   1.525   4.501   8.928 -0.1884 -0.0836 -0.0579
  101OSM   H14S10173   1.449   4.430   8.968  0.7199 -0.7235  0.5495
  101OSM   H14T10174   1.602   4.492   9.008  2.4272 -0.4939 -2.5677
  101OSM   C15S10175   1.577   4.449   8.793  0.6067  0.1989 -0.0114
  101OSM   H15S10176   1.658   4.507   8.744  1.3190 -0.8021 -0.0290
  101OSM   H15T10177   1.490   4.454   8.724 -0.1779 -0.5517  0.9081
  101OSM   C16S10178   1.607   4.304   8.801 -0.2338  0.6556  0.5994
  101OSM   H16S10179   1.517   4.244   8.826  1.1076 -1.2311  1.0533
  101OSM   H16T10180   1.684   4.280   8.878  0.8814 -2.0177 -1.2628
  101OSM   C17S10181   1.661   4.240   8.674 -0.2392 -0.5358  0.2511
  101OSM   H17S10182   1.752   4.293   8.639  0.6889 -1.3991  1.2989
  101OSM   H17T10183   1.586   4.252   8.593  1.7853  0.6281 -1.4989
  101OSM   C18S10184   1.695   4.089   8.692  0.0801 -0.4157  0.1437
  101OSM   H18S10185   1.800   4.065   8.665 -0.3806 -0.3044 -1.7629
  101OSM   H18T10186   1.616   4.030   8.642 -0.3903  0.2676  0.0718
  101OSM   H18U10187   1.696   4.067   8.801  0.9134 -1.0102  0.0224
  101OSM    C1F10188   1.699   4.336   9.733  0.2743  0.2058 -0.4313
  101OSM     OF10189   1.659   4.220   9.742 -0.3263  0.7242 -0.2368
  101OSM    C2F10190   1.834   4.365   9.676  0.4229 -0.6345 -0.5309
  101OSM    H2F10191   1.912   4.298   9.718  1.0580 -0.8416 -2.0062
  101OSM    H2G10192   1.866   4.470   9.694 -2.3140 -0.1902  2.2123
  101OSM    C3F10193   1.831   4.343   9.520  0.6248 -0.5662  0.1104
  101OSM    H3F10194   1.802   4.239   9.492 -2.8665  0.0003  1.3612
  101OSM    H3G10195   1.933   4.349   9.476  0.3086  0.0485 -0.5423
  101OSM    C4F10196   1.748   4.450   9.444 -0.2817  0.3344 -0.4308
  101OSM    H4F10197   1.797   4.464   9.345 -1.3789  1.0345 -0.8786
  101OSM    H4G10198   1.757   4.542   9.506  0.4857  0.4736 -0.7371
  101OSM    C5F10199   1.599   4.418   9.411 -0.3330 -0.4149  0.0918
  101OSM    H5F10200   1.567   4.514   9.365 -0.2041 -0.0737  0.7106
  101OSM    H5G10201   1.544   4.429   9.507  1.6619 -0.1752  1.2379
  101OSM    C6F10202   1.564   4.296   9.333  0.1314  0.2689  0.5381
  101OSM    H6F10203   1.603   4.294   9.229 -0.6106 -1.7063  0.2672
  101OSM    H6G10204   1.624   4.210   9.368  0.4312  0.5178  0.6312
  101OSM    C7F10205   1.418   4.262   9.323 -0.7466  0.0868 -0.0940
  101OSM    H7F10206   1.408   4.184   9.244 -2.4304  0.8417 -0.6535
  101OSM    H7G10207   1.349   4.347   9.302 -0.4279  0.0767 -1.2009
  101OSM    C8F10208   1.364   4.200   9.457  0.2631  0.0877 -0.4213
  101OSM    H8F10209   1.254   4.207   9.451  0.0123  0.4562  3.4008
  101OSM    H8G10210   1.385   4.279   9.533 -1.1689  0.8106 -0.7602
  101OSM    C9F10211   1.425   4.077   9.509 -0.1006 -0.5831  0.0756
  101OSM    H9F10212   1.527   4.086   9.548 -0.3787 -4.0463  1.7647
  101OSM   C10F10213   1.374   3.955   9.518  0.5140 -0.1586  0.6620
  101OSM   H10F10214   1.435   3.877   9.566  0.2280 -0.8845 -0.1423
  101OSM   C11F10215   1.239   3.906   9.472  0.2090 -0.0786 -0.0783
  101OSM   H11F10216   1.180   3.999   9.458  1.7526  1.5741  3.6782
  101OSM   H11G10217   1.191   3.837   9.544 -1.4252  0.0495 -1.0445
  101OSM   C12F10218   1.231   3.826   9.335 -0.4428 -0.3492 -0.5946
  101OSM   H12F10219   1.125   3.804   9.311 -1.1619  0.0799  2.0016
  101OSM   H12G10220   1.284   3.729   9.349 -1.4830 -0.7507  0.6728
  101OSM   C13F10221   1.291   3.910   9.223  0.1963  0.5333  0.6818
  101OSM   H13F10222   1.400   3.921   9.242  0.8484  0.5644 -2.7833
  101OSM   H13G10223   1.244   4.011   9.221 -0.6206  0.1964  2.2412
  101OSM   C14F10224   1.270   3.856   9.078  0.6947  0.1152  0.2228
  101OSM   H14F10225   1.163   3.843   9.054  0.6277  2.4375 -0.8793
  101OSM   H14G10226   1.314   3.757   9.051  2.4916  0.8396  0.3962
  101OSM   C15F10227   1.323   3.947   8.962 -0.5435  0.1585  0.0092
  101OSM   H15F10228   1.421   3.995   8.985 -0.1059 -0.2378 -0.9868
  101OSM   H15G10229   1.256   4.034   8.946 -0.4767  0.3132  0.5667
  101OSM   C16F10230   1.328   3.873   8.828 -0.2850  0.4653  0.1187
  101OSM   H16F10231   1.362   3.768   8.825  1.3390  0.9845 -0.0078
  101OSM   H16G10232   1.400   3.929   8.765 -0.4308 -0.8167 -1.2050
  101OSM   C17F10233   1.190   3.867   8.758 -0.1570 -0.0438  0.5623
  101OSM   H17F10234   1.140   3.966   8.750  1.4423  0.7150 -0.2897
  101OSM   H17G10235   1.116   3.817   8.824  0.5868  1.6110  2.6894
  101OSM   C18F10236   1.181   3.795   8.619  1.0994 -0.5035  0.6850
  101OSM   H18F10237   1.224   3.853   8.534  1.2024 -1.0526  0.3624
  101OSM   H18G10238   1.073   3.778   8.600  1.3524  0.1239 -1.4714
  101OSM   H18H10239   1.228   3.695   8.622  1.0652 -0.5358  0.2536
  102OSM      N10240   3.648   5.667  10.461 -0.4088  0.7276 -0.8687
  102OSM    C1510241   3.776   5.600  10.506  0.3006  0.1830  0.2854
  102OSM   H15A10242   3.824   5.665  10.577  2.2961  0.9416 -1.7083
  102OSM   H15B10243   3.845   5.582  10.425 -1.0329 -0.4930 -0.7222
  102OSM   H15C10244   3.750   5.505  10.552 -0.5533  1.1195  1.7588
  102OSM    C1410245   3.571   5.568  10.374 -0.1816 -0.2806 -0.0676
  102OSM   H14A10246   3.477   5.612  10.347 -0.6581 -1.2231  0.0655
  102OSM   H14B10247   3.563   5.475  10.428  0.9302 -1.4737 -1.9038
  102OSM   H14C10248   3.621   5.552  10.280 -3.2475  0.1172 -1.8085
  102OSM    C1310249   3.559   5.702  10.580  0.7318 -0.8491 -0.2731
  102OSM   H13A10250   3.503   5.788  10.545 -0.1160 -1.2115  0.1791
  102OSM   H13B10251   3.612   5.724  10.671 -0.4354  1.7397 -0.1830
  102OSM   H13C10252   3.489   5.624  10.608 -0.1724  0.4100  1.0455
  102OSM    C1210253   3.687   5.801  10.390 -0.0861 -0.0442  0.0171
  102OSM   H12A10254   3.739   5.869  10.456 -0.6575  2.4058 -1.9424
  102OSM   H12B10255   3.595   5.846  10.355  0.1751 -0.6808 -1.5390
  102OSM    C1110256   3.775   5.792  10.260 -0.1264  0.3998  0.2160
  102OSM   H11A10257   3.871   5.767  10.308  0.4013  2.8813  0.5360
  102OSM   H11B10258   3.776   5.899  10.228  1.7053  0.3350  0.0329
  102OSM      P10259   3.632   5.756  10.050 -0.4153 -0.1275  0.1768
  102OSM    O1310260   3.611   5.648   9.946  0.5625 -0.5199  0.1931
  102OSM    O1410261   3.510   5.814  10.114 -0.7359 -0.0565  0.3437
  102OSM    O1110262   3.719   5.870   9.990 -0.1026 -0.5126 -0.3890
  102OSM    O1210263   3.723   5.697  10.163  0.1611 -0.4059  0.6439
  102OSM    C1S10264   3.660   5.968   9.910  0.7918  0.0102 -0.2178
  102OSM    H1S10265   3.714   6.062   9.936 -2.1969  1.6560  0.3327
  102OSM    H1T10266   3.561   6.009   9.940  0.9956  0.6889 -0.4578
  102OSM     NF10267   3.572   5.849   9.703 -0.1221 -0.4964 -0.0423
  102OSM    HNF10268   3.607   5.770   9.655  2.2132  0.1682  0.5125
  102OSM    C2S10269   3.674   5.945   9.753  0.2236 -0.6169 -0.4317
  102OSM    H2S10270   3.666   6.046   9.709  1.7643 -0.3670 -0.1823
  102OSM    C3S10271   3.820   5.897   9.717  0.2930 -0.8075 -0.5766
  102OSM    H3S10272   3.835   5.790   9.743  0.3279 -0.7468 -0.3479
  102OSM     O310273   3.915   5.969   9.790  0.0871  0.2251  0.5651
  102OSM    HO310274   3.905   5.937   9.880 -2.3690 -0.6371  0.0315
  102OSM    C4S10275   3.838   5.918   9.565 -0.3432 -0.4568  0.6007
  102OSM    H4S10276   3.836   6.026   9.541  2.0279 -0.6807 -0.8032
  102OSM    C5S10277   3.853   5.825   9.475  0.3522  0.4200  0.5818
  102OSM    H5S10278   3.859   5.720   9.506  0.0142  0.6336  1.3863
  102OSM    C6S10279   3.876   5.850   9.334  0.5301 -0.0284  0.9037
  102OSM    H6S10280   3.869   5.955   9.301 -1.0292 -0.3217  0.2551
  102OSM    H6T10281   3.787   5.808   9.283  1.1357  0.3614 -0.4777
  102OSM    C7S10282   3.998   5.799   9.279 -0.3193  0.0123 -0.2337
  102OSM    H7S10283   4.003   5.691   9.304  1.1045 -0.0439 -0.7452
  102OSM    H7T10284   4.086   5.850   9.323  0.7402 -1.3030 -0.8300
  102OSM    C8S10285   4.000   5.802   9.128  0.4150 -0.2584 -0.4875
  102OSM    H8S10286   3.981   5.901   9.081  0.4525 -0.1407 -0.2537
  102OSM    H8T10287   3.931   5.723   9.092  2.1838 -2.5715  1.0940
  102OSM    C9S10288   4.130   5.752   9.080 -0.2034  0.8838  0.8437
  102OSM    H9S10289   4.129   5.643   9.099 -1.0983  0.7503  0.0696
  102OSM    H9T10290   4.217   5.810   9.119 -0.3094  1.0795  0.7870
  102OSM   C10S10291   4.139   5.763   8.927  0.6419  0.2919  0.1119
  102OSM   H10S10292   4.172   5.859   8.881 -3.6510  1.3042 -1.0799
  102OSM   H10T10293   4.041   5.737   8.882 -0.3262  0.5986  2.0007
  102OSM   C11S10294   4.235   5.652   8.872 -0.5496  0.2906  0.5377
  102OSM   H11S10295   4.189   5.556   8.904 -2.1677  0.5162 -1.0143
  102OSM   H11T10296   4.331   5.660   8.927 -0.7061  1.7651  0.6206
  102OSM   C12S10297   4.249   5.666   8.719  0.5733  0.1459  0.8918
  102OSM   H12S10298   4.302   5.763   8.706  0.1136  0.1502 -1.2419
  102OSM   H12T10299   4.152   5.663   8.665  1.7564  2.0953 -1.4391
  102OSM   C13S10300   4.358   5.572   8.650  0.3988 -0.1271 -0.4384
  102OSM   H13S10301   4.447   5.577   8.717  1.3939  1.2007 -1.8106
  102OSM   H13T10302   4.387   5.615   8.551  0.0427 -0.6877 -0.7911
  102OSM   C14S10303   4.310   5.433   8.610  0.1372 -0.6864  0.5859
  102OSM   H14S10304   4.204   5.439   8.578  0.2503 -0.5875  0.2385
  102OSM   H14T10305   4.295   5.366   8.698  3.0585 -0.0376  1.6184
  102OSM   C15S10306   4.396   5.367   8.503  1.1711  0.2173  0.0858
  102OSM   H15S10307   4.383   5.420   8.406  0.3123 -2.6057 -1.4220
  102OSM   H15T10308   4.357   5.265   8.485  0.4245  0.7601 -1.4818
  102OSM   C16S10309   4.546   5.354   8.525 -0.0903 -0.1546 -0.4538
  102OSM   H16S10310   4.564   5.295   8.618 -2.1841 -1.1276 -0.6326
  102OSM   H16T10311   4.593   5.453   8.540 -0.2095 -0.4196  1.9782
  102OSM   C17S10312   4.616   5.285   8.409  0.1603 -0.1781 -0.1925
  102OSM   H17S10313   4.722   5.315   8.405  0.9553 -2.4133  2.2943
  102OSM   H17T10314   4.571   5.328   8.317 -1.2834 -0.7216  0.2307
  102OSM   C18S10315   4.612   5.127   8.415 -0.4269 -0.1800  0.3233
  102OSM   H18S10316   4.671   5.089   8.501  1.2256 -0.3059 -0.8542
  102OSM   H18T10317   4.651   5.080   8.323 -3.7971 -2.9291  0.1879
  102OSM   H18U10318   4.510   5.083   8.413 -0.2198 -0.6284 -0.9811
  102OSM    C1F10319   3.441   5.856   9.733  0.4032 -0.7176 -0.4315
  102OSM     OF10320   3.391   5.966   9.770 -0.2841  0.3901 -0.1705
  102OSM    C2F10321   3.372   5.731   9.706 -0.2586  1.0433 -0.4140
  102OSM    H2F10322   3.363   5.674   9.801 -0.4810 -1.1272 -1.6850
  102OSM    H2G10323   3.435   5.663   9.644 -2.3458 -0.9581 -0.4176
  102OSM    C3F10324   3.235   5.764   9.633  0.1874  0.5537 -0.1838
  102OSM    H3F10325   3.176   5.816   9.712  0.8270 -0.1821  0.7909
  102OSM    H3G10326   3.178   5.673   9.604 -0.1188  0.3472  1.0513
  102OSM    C4F10327   3.246   5.859   9.510 -0.1931  0.0600  0.3044
  102OSM    H4F10328   3.290   5.957   9.537  0.7010  0.9608 -4.1203
  102OSM    H4G10329   3.149   5.873   9.458  0.1784  1.8600  0.0944
  102OSM    C5F10330   3.335   5.784   9.403  0.1296 -0.6150 -0.2124
  102OSM    H5F10331   3.288   5.687   9.376 -1.4219 -0.5605  2.1555
  102OSM    H5G10332   3.435   5.759   9.444 -0.4879  0.8136  2.2663
  102OSM    C6F10333   3.365   5.876   9.280  0.0005  0.6048  0.1165
  102OSM    H6F10334   3.278   5.946   9.276 -0.9100 -0.5416 -0.5536
  102OSM    H6G10335   3.363   5.813   9.188  1.0153 -1.3955  1.4412
  102OSM    C7F10336   3.494   5.955   9.289  0.0978 -0.2522  0.4360
  102OSM    H7F10337   3.582   5.887   9.291  0.2732 -0.0215  2.6379
  102OSM    H7G10338   3.483   6.001   9.390 -0.0761 -2.4035  1.4236
  102OSM    C8F10339   3.518   6.060   9.173  0.3037 -0.0069 -1.1484
  102OSM    H8F10340   3.531   5.989   9.088  0.4102 -0.2492 -0.9322
  102OSM    H8G10341   3.618   6.107   9.188  0.0860  0.4327 -1.0754
  102OSM    C9F10342   3.411   6.161   9.145  0.3741 -0.5783 -0.0817
  102OSM    H9F10343   3.432   6.264   9.179  0.9257 -2.1287  4.6375
  102OSM   C10F10344   3.298   6.154   9.061  0.4846 -0.3624 -0.6119
  102OSM   H10F10345   3.237   6.246   9.061  0.3361 -0.4600 -2.1038
  102OSM   C11F10346   3.257   6.039   8.977  0.0592  0.2455  0.3414
  102OSM   H11F10347   3.150   6.015   8.997 -0.1259  1.0669  0.3711
  102OSM   H11G10348   3.314   5.949   9.007  0.7673  0.7355  0.4776
  102OSM   C12F10349   3.289   6.046   8.821 -0.0514  0.0125  0.6443
  102OSM   H12F10350   3.303   5.941   8.786 -2.0502  0.5378 -1.8547
  102OSM   H12G10351   3.386   6.095   8.795 -1.1253  1.8983  0.0906
  102OSM   C13F10352   3.175   6.105   8.735  0.6182 -0.0969 -0.3295
  102OSM   H13F10353   3.144   6.208   8.762  0.2555 -0.4293  0.5268
  102OSM   H13G10354   3.089   6.036   8.750  1.1771 -1.3034 -2.4365
  102OSM   C14F10355   3.213   6.123   8.590  0.1375  0.1956 -0.0115
  102OSM   H14F10356   3.262   6.027   8.561  0.9121  0.6821 -0.3173
  102OSM   H14G10357   3.281   6.209   8.575 -0.5809  0.6476 -0.6820
  102OSM   C15F10358   3.088   6.141   8.501 -0.4278  0.3252 -0.7221
  102OSM   H15F10359   3.050   6.245   8.514  0.5601  0.6136 -0.0366
  102OSM   H15G10360   3.000   6.078   8.524  0.4810 -0.0420  1.9069
  102OSM   C16F10361   3.128   6.119   8.358 -0.1911  0.8968  0.2202
  102OSM   H16F10362   3.156   6.013   8.339 -1.2645  0.4508  1.0619
  102OSM   H16G10363   3.222   6.174   8.339  0.4004 -0.1831 -0.0328
  102OSM   C17F10364   3.017   6.153   8.258  0.3659 -0.9977 -0.2953
  102OSM   H17F10365   3.012   6.264   8.255  0.6447 -0.9511  0.5999
  102OSM   H17G10366   2.918   6.113   8.288 -0.1257  1.4350  1.4697
  102OSM   C18F10367   3.045   6.091   8.119 -0.8377  0.4117 -0.8136
  102OSM   H18F10368   3.059   5.981   8.124 -0.4500  0.5216  0.6451
  102OSM   H18G10369   3.136   6.130   8.067  0.1295 -1.6221 -0.7018
  102OSM   H18H10370   2.955   6.103   8.055 -1.9613 -1.9866  0.2346
  103OSM      N10371   2.939   1.049  10.279  0.2170  0.2186  0.7545
  103OSM    C1510372   2.996   0.912  10.275 -0.6027  0.2397  0.7341
  103OSM   H15A10373   3.083   0.898  10.337 -1.4552 -0.1135  1.8902
  103OSM   H15B10374   3.014   0.874  10.176  0.5568 -0.0534  1.0518
  103OSM   H15C10375   2.915   0.849  10.309 -0.5424 -0.0523  0.3389
  103OSM    C1410376   2.887   1.073  10.420 -0.8488 -0.3264 -0.2443
  103OSM   H14A10377   2.853   1.175  10.425  0.8597  0.2152  1.0889
  103OSM   H14B10378   2.971   1.058  10.487 -1.7040 -0.7611  0.7420
  103OSM   H14C10379   2.803   1.014  10.454 -1.2665 -0.0277 -0.7519
  103OSM    C1310380   3.050   1.145  10.271  0.2355 -0.1023  0.5489
  103OSM   H13A10381   3.097   1.140  10.174  1.3858  0.1452  1.0924
  103OSM   H13B10382   3.126   1.136  10.347  2.2731 -0.4994 -1.4703
  103OSM   H13C10383   3.015   1.247  10.279 -1.3741 -0.6510  0.7791
  103OSM    C1210384   2.822   1.074  10.183  0.1420  0.0441 -0.3613
  103OSM   H12A10385   2.752   0.994  10.165  0.6162 -0.8796  1.7279
  103OSM   H12B10386   2.874   1.084  10.089 -0.2725 -0.5534 -0.6585
  103OSM    C1110387   2.737   1.196  10.213  0.3866 -0.0351  0.2287
  103OSM   H11A10388   2.685   1.173  10.309  0.4217 -0.3085  0.1819
  103OSM   H11B10389   2.659   1.209  10.135  1.6622  0.0355 -1.0512
  103OSM      P10390   2.865   1.410  10.119  0.1650 -0.0449 -0.0193
  103OSM    O1310391   2.759   1.509  10.096  0.4638 -1.1000  0.5851
  103OSM    O1410392   2.996   1.456  10.167 -0.0293  0.0743 -0.3017
  103OSM    O1110393   2.879   1.319   9.986  0.4770 -0.8069 -0.1710
  103OSM    O1210394   2.818   1.309  10.232 -0.7601  0.2024  0.4693
  103OSM    C1S10395   2.768   1.312   9.895 -0.0636  0.0023  0.2259
  103OSM    H1S10396   2.734   1.412   9.861  1.4949  0.4816  0.0390
  103OSM    H1T10397   2.681   1.267   9.948  1.6626 -2.1497  1.3420
  103OSM     NF10398   2.826   1.094   9.800  0.3390 -0.0910  0.6319
  103OSM    HNF10399   2.920   1.068   9.822  0.6507  0.9905  0.6298
  103OSM    C2S10400   2.817   1.231   9.769  0.4574  0.1908 -0.0685
  103OSM    H2S10401   2.739   1.257   9.693  0.1048 -1.9673 -0.4782
  103OSM    C3S10402   2.951   1.291   9.724  0.2054  0.0387 -0.6173
  103OSM    H3S10403   3.030   1.247   9.788 -1.7573 -2.7637 -0.0129
  103OSM     O310404   2.962   1.431   9.737  0.0258 -0.2499 -0.0461
  103OSM    HO310405   2.926   1.447   9.825 -1.2333  0.5936 -0.7057
  103OSM    C4S10406   2.968   1.257   9.581 -0.5108  0.3512 -0.5154
  103OSM    H4S10407   2.923   1.333   9.516  0.4008  2.4257  1.2199
  103OSM    C5S10408   3.043   1.155   9.533 -0.0622 -0.6012 -0.1917
  103OSM    H5S10409   3.111   1.094   9.595  1.5297  0.2637 -1.0377
  103OSM    C6S10410   3.061   1.126   9.387  0.0556  0.6103 -0.2390
  103OSM    H6S10411   3.145   1.190   9.353  0.4638  0.1019 -0.2057
  103OSM    H6T10412   2.977   1.168   9.329 -0.5323 -0.2638 -0.0440
  103OSM    C7S10413   3.062   0.986   9.331 -0.4497  0.3063 -0.3438
  103OSM    H7S10414   2.977   0.925   9.368 -0.7699  0.2134 -1.2127
  103OSM    H7T10415   3.156   0.934   9.361 -0.1544  0.3423 -1.2057
  103OSM    C8S10416   3.046   0.961   9.182  0.2175  0.1477  1.0630
  103OSM    H8S10417   2.940   0.985   9.160  0.3494  0.0786  0.3333
  103OSM    H8T10418   3.068   0.854   9.161  1.1443  1.0293 -2.9345
  103OSM    C9S10419   3.126   1.044   9.083  0.0687  0.2185 -0.5384
  103OSM    H9S10420   3.235   1.034   9.103  0.5261  4.4952 -0.2463
  103OSM    H9T10421   3.099   1.149   9.110  1.7662  0.7092 -0.6313
  103OSM   C10S10422   3.096   1.020   8.936  0.1299 -0.4498 -0.6346
  103OSM   H10S10423   3.144   1.108   8.889  0.3529 -0.0858  0.2775
  103OSM   H10T10424   2.987   1.026   8.913  0.2435 -0.2437 -1.1281
  103OSM   C11S10425   3.163   0.893   8.877  0.5798  0.3080 -0.3797
  103OSM   H11S10426   3.104   0.809   8.920 -0.1441  0.0348 -1.8704
  103OSM   H11T10427   3.270   0.880   8.903  0.7073 -0.2107 -1.1431
  103OSM   C12S10428   3.168   0.899   8.729 -0.0948  0.2963  0.3974
  103OSM   H12S10429   3.238   0.969   8.678  3.8266 -1.8180  2.5667
  103OSM   H12T10430   3.072   0.950   8.707  0.2858  1.5834  1.5924
  103OSM   C13S10431   3.143   0.761   8.661 -0.1354 -0.0473  0.1056
  103OSM   H13S10432   3.046   0.716   8.692 -1.1581  1.6555 -0.5182
  103OSM   H13T10433   3.223   0.691   8.694  0.1477  0.2343  0.0185
  103OSM   C14S10434   3.143   0.784   8.508  0.4317 -0.1779  0.4712
  103OSM   H14S10435   3.190   0.696   8.458 -0.0143  0.4981 -1.1549
  103OSM   H14T10436   3.217   0.865   8.490  0.1381  0.4141  1.8960
  103OSM   C15S10437   3.018   0.821   8.431  0.1926  0.0464 -0.1728
  103OSM   H15S10438   2.985   0.925   8.451  2.0274  0.2046  2.2203
  103OSM   H15T10439   2.943   0.741   8.443 -0.1264  0.4232  0.3617
  103OSM   C16S10440   3.050   0.819   8.276  0.3066  0.2602 -0.2178
  103OSM   H16S10441   3.095   0.723   8.242  1.2506  0.6132  0.0178
  103OSM   H16T10442   3.118   0.903   8.251  0.6807 -0.4979 -1.8062
  103OSM   C17S10443   2.926   0.849   8.192  0.2221 -0.0690 -0.4393
  103OSM   H17S10444   2.951   0.868   8.086  0.9432 -0.2592 -0.3013
  103OSM   H17T10445   2.879   0.941   8.233 -3.0632 -1.6526 -0.4233
  103OSM   C18S10446   2.826   0.728   8.191  0.3388  0.1113 -0.2809
  103OSM   H18S10447   2.722   0.763   8.175  0.1004  0.1887  1.2841
  103OSM   H18T10448   2.816   0.673   8.288 -0.5603  1.1505  0.2296
  103OSM   H18U10449   2.860   0.662   8.109  1.6211  1.3677 -0.7849
  103OSM    C1F10450   2.722   1.014   9.830 -0.3972  0.2657  0.3769
  103OSM     OF10451   2.611   1.052   9.855  0.3722 -0.2197 -0.0654
  103OSM    C2F10452   2.744   0.863   9.834  0.4045 -0.4932 -0.9916
  103OSM    H2F10453   2.728   0.827   9.938 -1.5057  0.6264 -0.8648
  103OSM    H2G10454   2.848   0.833   9.808  0.0082  0.3934 -3.8154
  103OSM    C3F10455   2.650   0.794   9.735 -0.4040  0.5033  0.8167
  103OSM    H3F10456   2.548   0.838   9.726 -0.4815  0.3668  1.0321
  103OSM    H3G10457   2.627   0.695   9.778  0.0027  0.1541  0.2352
  103OSM    C4F10458   2.722   0.775   9.601 -0.2241 -0.0241 -0.5307
  103OSM    H4F10459   2.680   0.689   9.543 -0.0610  0.3885 -1.2635
  103OSM    H4G10460   2.828   0.746   9.617 -0.8816 -2.4051 -0.3200
  103OSM    C5F10461   2.719   0.896   9.502 -0.3125 -1.5053 -0.7822
  103OSM    H5F10462   2.769   0.867   9.407  0.8994  1.4161 -1.0693
  103OSM    H5G10463   2.774   0.981   9.546  0.0739 -2.2438  0.1807
  103OSM    C6F10464   2.587   0.952   9.464 -0.5258 -0.1361 -0.6437
  103OSM    H6F10465   2.617   1.047   9.416  0.9714  0.4443  1.3651
  103OSM    H6G10466   2.528   0.976   9.555 -1.4288  1.8772 -1.7256
  103OSM    C7F10467   2.504   0.861   9.375  0.3461 -0.5949 -0.3871
  103OSM    H7F10468   2.418   0.925   9.348 -0.8727 -2.1573 -0.2754
  103OSM    H7G10469   2.464   0.774   9.431 -1.1943 -0.9619 -1.9885
  103OSM    C8F10470   2.558   0.811   9.243 -0.5004  0.3810  0.0577
  103OSM    H8F10471   2.642   0.741   9.260 -0.1350  1.4201  2.6793
  103OSM    H8G10472   2.607   0.895   9.190  1.8111 -0.7849  0.2883
  103OSM    C9F10473   2.443   0.744   9.162  0.6978  0.1557  0.7073
  103OSM    H9F10474   2.369   0.704   9.233 -0.7671 -0.4336 -1.1242
  103OSM   C10F10475   2.422   0.734   9.026 -0.0383  0.3987  0.4455
  103OSM   H10F10476   2.337   0.680   8.983  1.2967 -0.8353 -0.7151
  103OSM   C11F10477   2.520   0.797   8.927  0.0606  0.2857  0.9339
  103OSM   H11F10478   2.622   0.825   8.960  1.0128 -0.0945 -1.6012
  103OSM   H11G10479   2.480   0.898   8.904  0.3485  0.4374  1.0994
  103OSM   C12F10480   2.543   0.701   8.807  0.5549  0.4654  0.2038
  103OSM   H12F10481   2.454   0.706   8.741  1.8470 -1.2522 -1.7498
  103OSM   H12G10482   2.552   0.598   8.846 -1.8742  0.2328  0.2125
  103OSM   C13F10483   2.680   0.714   8.726  0.2207 -0.4471  0.3523
  103OSM   H13F10484   2.682   0.635   8.648  0.2759  0.3862 -0.4987
  103OSM   H13G10485   2.759   0.690   8.801  1.1463  2.0893  0.2130
  103OSM   C14F10486   2.706   0.852   8.680  0.4166  0.0699 -0.2378
  103OSM   H14F10487   2.809   0.844   8.639  0.4900  2.6880 -0.6913
  103OSM   H14G10488   2.711   0.928   8.761  0.5827 -1.6899  1.4263
  103OSM   C15F10489   2.598   0.888   8.574  0.6063  0.3060  0.3873
  103OSM   H15F10490   2.495   0.891   8.617 -0.7402  1.8779 -2.7843
  103OSM   H15G10491   2.598   0.806   8.499  1.8766 -0.8448  1.6275
  103OSM   C16F10492   2.641   1.014   8.495  0.1811  0.3864 -0.4638
  103OSM   H16F10493   2.729   1.002   8.429 -1.2502  2.6948 -2.9075
  103OSM   H16G10494   2.675   1.092   8.567  3.2363 -0.5674 -0.7941
  103OSM   C17F10495   2.522   1.072   8.412 -0.5251 -0.4537 -0.0527
  103OSM   H17F10496   2.540   1.175   8.375  1.4988 -0.7043  0.1950
  103OSM   H17G10497   2.434   1.074   8.480  0.0466  0.9259  0.6686
  103OSM   C18F10498   2.499   0.997   8.282 -0.0551 -0.6025  0.9387
  103OSM   H18F10499   2.598   1.000   8.232 -1.0139 -0.3404 -0.9763
  103OSM   H18G10500   2.420   1.036   8.215  0.9467  1.7447  1.0804
  103OSM   H18H10501   2.459   0.894   8.297 -1.1632 -0.4282 -0.7514
  104OSM      N10502   3.813   0.841  10.368 -0.4412  0.1909  0.0074
  104OSM    C1510503   3.670   0.801  10.402 -0.1478 -0.3411 -0.6184
  104OSM   H15A10504   3.604   0.878  10.440 -1.5569 -1.2598 -1.1546
  104OSM   H15B10505   3.681   0.735  10.487  1.0357 -0.4103 -0.8199
  104OSM   H15C10506   3.620   0.756  10.318  1.8197 -2.3450 -0.7650
  104OSM    C1410507   3.869   0.943  10.472  0.1654  0.6240  0.1091
  104OSM   H14A10508   3.975   0.957  10.459  0.2461  1.7631  1.8477
  104OSM   H14B10509   3.845   0.903  10.570  0.4920 -1.1010 -0.4966
  104OSM   H14C10510   3.822   1.039  10.461 -1.5576  0.0273  2.0349
  104OSM    C1310511   3.898   0.714  10.379 -0.2425 -0.8408 -0.1365
  104OSM   H13A10512   3.865   0.633  10.316 -1.6580  0.1542 -0.7040
  104OSM   H13B10513   3.897   0.678  10.480 -3.0358  1.3084  0.6703
  104OSM   H13C10514   4.002   0.740  10.364  0.0163 -1.6722  0.2027
  104OSM    C1210515   3.823   0.897  10.224 -0.1402 -0.4772  0.1512
  104OSM   H12A10516   3.800   0.822  10.151 -2.1708  1.3957 -1.2194
  104OSM   H12B10517   3.926   0.927  10.208 -1.0381  2.0128 -1.3469
  104OSM    C1110518   3.746   1.028  10.196 -0.0502  0.0589 -0.3570
  104OSM   H11A10519   3.638   1.004  10.186 -0.5299  2.2796 -0.9386
  104OSM   H11B10520   3.772   1.055  10.092 -1.1182 -0.1968 -0.7041
  104OSM      P10521   3.793   1.282  10.243 -0.4172 -0.0527  0.1230
  104OSM    O1310522   3.733   1.372  10.346  1.1865  0.5430  0.3981
  104OSM    O1410523   3.940   1.300  10.227  0.1594  0.1560 -0.4085
  104OSM    O1110524   3.720   1.291  10.103  0.2583 -0.2019 -0.2703
  104OSM    O1210525   3.763   1.134  10.286  0.0479  0.3111 -0.6330
  104OSM    C1S10526   3.753   1.384  10.000  0.9646  0.1173 -0.9091
  104OSM    H1S10527   3.863   1.389   9.984  1.0751  0.0438 -0.2047
  104OSM    H1T10528   3.717   1.483  10.036 -0.8963 -0.7747 -0.2467
  104OSM     NF10529   3.744   1.442   9.760 -0.4010  0.6046  0.2838
  104OSM    HNF10530   3.670   1.492   9.715  0.3159 -0.0805 -1.6746
  104OSM    C2S10531   3.707   1.337   9.856  0.2445 -0.5473 -0.4478
  104OSM    H2S10532   3.762   1.244   9.829 -1.0743 -1.2596 -0.6786
  104OSM    C3S10533   3.551   1.312   9.857 -0.0241 -0.4225  0.2969
  104OSM    H3S10534   3.515   1.417   9.864 -0.1619 -0.2983 -2.0359
  104OSM     O310535   3.504   1.229   9.964  0.1818  0.3342  0.3964
  104OSM    HO310536   3.579   1.203  10.018  0.4932 -0.6320 -0.4902
  104OSM    C4S10537   3.530   1.245   9.722 -0.3839 -0.4389  0.1183
  104OSM    H4S10538   3.548   1.137   9.717  0.0620 -0.3480 -0.2125
  104OSM    C5S10539   3.471   1.300   9.615  0.0524  0.8625  0.2520
  104OSM    H5S10540   3.446   1.407   9.611  0.8573  1.0543  0.2248
  104OSM    C6S10541   3.453   1.226   9.489 -0.9757 -0.1732  0.1112
  104OSM    H6S10542   3.469   1.302   9.410 -0.1000 -1.1543 -0.6778
  104OSM    H6T10543   3.348   1.188   9.489 -0.6664 -1.1622 -2.2764
  104OSM    C7S10544   3.547   1.108   9.449 -0.6865 -0.2760  0.7125
  104OSM    H7S10545   3.526   1.017   9.509 -0.3459 -0.7332  0.1476
  104OSM    H7T10546   3.652   1.140   9.467 -1.2582  0.9882  1.9241
  104OSM    C8S10547   3.531   1.069   9.296 -0.3645  0.0307 -0.3938
  104OSM    H8S10548   3.537   1.162   9.236 -0.6349  0.0103 -0.4493
  104OSM    H8T10549   3.424   1.039   9.293 -0.6468  0.8184  1.4815
  104OSM    C9S10550   3.627   0.959   9.254 -0.1663 -0.2495  0.2507
  104OSM    H9S10551   3.638   0.889   9.340  0.3329 -1.9133 -1.1349
  104OSM    H9T10552   3.725   1.011   9.249 -0.8786  0.9458 -1.7404
  104OSM   C10S10553   3.582   0.877   9.128 -0.0588 -0.1615 -0.0755
  104OSM   H10S10554   3.472   0.860   9.137 -0.3032  2.0041  1.4309
  104OSM   H10T10555   3.645   0.786   9.137  1.4088  0.8300 -0.1247
  104OSM   C11S10556   3.589   0.942   8.990  0.4464 -0.5338 -0.5574
  104OSM   H11S10557   3.689   0.981   8.963 -0.2552  1.0607 -0.9109
  104OSM   H11T10558   3.516   1.025   8.974 -0.2962 -1.3470 -1.4738
  104OSM   C12S10559   3.558   0.838   8.880  0.0696  0.0175 -0.1549
  104OSM   H12S10560   3.475   0.769   8.908  0.3481 -0.4129 -0.3978
  104OSM   H12T10561   3.640   0.765   8.865 -0.2266 -0.4126  0.3203
  104OSM   C13S10562   3.548   0.922   8.749 -0.2915 -0.7123 -0.0234
  104OSM   H13S10563   3.629   0.997   8.736 -1.3045  0.4826  0.5433
  104OSM   H13T10564   3.456   0.983   8.750 -0.7312 -1.3653  0.0171
  104OSM   C14S10565   3.512   0.831   8.633 -0.1027  0.2994  0.5180
  104OSM   H14S10566   3.469   0.885   8.546 -2.4722 -1.3120  0.6249
  104OSM   H14T10567   3.432   0.761   8.667 -1.1239 -0.0076 -2.3832
  104OSM   C15S10568   3.631   0.761   8.566 -0.8087  0.4883  0.4418
  104OSM   H15S10569   3.678   0.686   8.633  1.5582  1.1164 -0.4793
  104OSM   H15T10570   3.710   0.831   8.531  1.6275 -2.2764  0.2313
  104OSM   C16S10571   3.579   0.686   8.436  0.5713  0.0575  0.1707
  104OSM   H16S10572   3.497   0.741   8.385  1.5655  0.4668 -0.9847
  104OSM   H16T10573   3.523   0.603   8.483 -0.7066  0.9877  0.3377
  104OSM   C17S10574   3.692   0.645   8.337  0.8103  0.3317  0.4133
  104OSM   H17S10575   3.760   0.573   8.388 -0.0776  0.3736  1.6781
  104OSM   H17T10576   3.747   0.738   8.312 -0.8857  1.2660  0.0756
  104OSM   C18S10577   3.645   0.585   8.202  0.3287 -0.2063  0.4167
  104OSM   H18S10578   3.597   0.485   8.215 -0.3394  0.4917  3.6606
  104OSM   H18T10579   3.733   0.572   8.135 -1.1116 -1.2490 -1.3319
  104OSM   H18U10580   3.581   0.657   8.146  0.8251  2.7107  3.4423
  104OSM    C1F10581   3.870   1.463   9.731  0.1669 -0.1594  0.3562
  104OSM     OF10582   3.968   1.388   9.764 -0.3123  0.1465 -0.0877
  104OSM    C2F10583   3.896   1.582   9.643  0.8522 -0.1951  0.3939
  104OSM    H2F10584   3.974   1.646   9.691  2.0575  1.6082 -3.7479
  104OSM    H2G10585   3.807   1.649   9.643  1.7883  1.0784  0.4663
  104OSM    C3F10586   3.933   1.546   9.500 -0.1710  0.3811 -0.1416
  104OSM    H3F10587   4.004   1.461   9.508 -1.0168 -0.4495 -1.1829
  104OSM    H3G10588   3.987   1.628   9.449 -1.4411  0.4935 -1.3526
  104OSM    C4F10589   3.815   1.500   9.408  0.5190 -0.1774 -0.3280
  104OSM    H4F10590   3.761   1.589   9.369  1.4491  0.5037 -0.0910
  104OSM    H4G10591   3.745   1.435   9.464 -0.5644 -1.0590 -2.6305
  104OSM    C5F10592   3.878   1.416   9.292  0.4429  0.1678  0.5788
  104OSM    H5F10593   3.936   1.333   9.339  1.2524  0.0147 -0.6560
  104OSM    H5G10594   3.950   1.489   9.248  0.0384  0.6039  0.6344
  104OSM    C6F10595   3.768   1.358   9.195 -0.1641 -0.4999 -1.0816
  104OSM    H6F10596   3.725   1.431   9.123 -0.4055 -1.7597 -2.2306
  104OSM    H6G10597   3.686   1.316   9.255  0.2722  0.6675  0.3638
  104OSM    C7F10598   3.804   1.233   9.107 -0.2620 -0.2292  0.0725
  104OSM    H7F10599   3.716   1.165   9.115  0.3747 -1.0124  0.4123
  104OSM    H7G10600   3.891   1.182   9.152 -0.2428 -1.9280 -1.7917
  104OSM    C8F10601   3.823   1.256   8.957  0.1991  0.3179 -0.2248
  104OSM    H8F10602   3.730   1.303   8.918 -1.4761 -0.1409  3.0559
  104OSM    H8G10603   3.836   1.156   8.912 -2.7633  0.0678 -0.5924
  104OSM    C9F10604   3.942   1.344   8.933  0.2727  0.0555 -0.6749
  104OSM    H9F10605   4.003   1.387   9.014  0.4338  1.7502 -1.6631
  104OSM   C10F10606   3.980   1.383   8.809  0.5630 -0.2729 -0.4513
  104OSM   H10F10607   4.063   1.454   8.798 -0.7650  1.4787  0.6538
  104OSM   C11F10608   3.906   1.343   8.685 -0.0596 -0.4200  0.1962
  104OSM   H11F10609   3.918   1.423   8.609  1.2843 -0.7018  0.0981
  104OSM   H11G10610   3.798   1.336   8.712 -0.1319 -0.4752 -0.1063
  104OSM   C12F10611   3.959   1.207   8.626 -0.1631  0.0976  0.4976
  104OSM   H12F10612   3.920   1.133   8.698  2.5283 -0.0350  1.8942
  104OSM   H12G10613   4.069   1.208   8.646 -0.1578  1.6999  0.4400
  104OSM   C13F10614   3.943   1.182   8.480  0.4393 -0.5115  0.5437
  104OSM   H13F10615   4.002   1.091   8.456 -0.5200 -1.6137  2.2942
  104OSM   H13G10616   3.980   1.262   8.413  0.3994  0.4892  1.7087
  104OSM   C14F10617   3.801   1.136   8.450 -0.1777  0.9291  0.1221
  104OSM   H14F10618   3.723   1.214   8.466 -1.6942 -0.4556 -0.3927
  104OSM   H14G10619   3.775   1.050   8.515  0.4910 -0.8499 -1.9017
  104OSM   C15F10620   3.794   1.103   8.300 -0.2975 -0.4016  0.0206
  104OSM   H15F10621   3.706   1.040   8.273 -1.7151  2.8270 -3.2914
  104OSM   H15G10622   3.888   1.053   8.267  1.3864  2.8916 -0.3711
  104OSM   C16F10623   3.780   1.223   8.207  0.3273 -0.4823 -0.0171
  104OSM   H16F10624   3.844   1.307   8.240 -1.1289  2.1152 -3.4912
  104OSM   H16G10625   3.677   1.263   8.222  0.2341 -0.4299 -0.7640
  104OSM   C17F10626   3.802   1.193   8.061  0.6970 -0.3440  0.1980
  104OSM   H17F10627   3.715   1.132   8.028 -0.8879  2.2685 -0.6299
  104OSM   H17G10628   3.896   1.135   8.046  0.5160 -0.3647 -0.9737
  104OSM   C18F10629   3.821   1.314   7.970 -0.9481  0.7357 -0.1299
  104OSM   H18F10630   3.838   1.294   7.863  2.1607  3.5606 -0.2538
  104OSM   H18G10631   3.903   1.374   8.015  0.4755 -2.6438  1.9492
  104OSM   H18H10632   3.723   1.366   7.979 -1.7289 -0.8942  1.0463
  105OSM      N10633   0.865   5.006  10.525  0.8394 -0.0536 -0.0222
  105OSM    C1510634   0.801   5.007  10.657 -0.6965 -0.6821  0.8846
  105OSM   H15A10635   0.874   5.000  10.737  0.3574  0.8196  0.0595
  105OSM   H15B10636   0.734   4.924  10.677  0.5181 -1.9330 -0.1655
  105OSM   H15C10637   0.749   5.102  10.662  0.3013 -0.1277  0.8024
  105OSM    C1410638   0.956   5.126  10.502 -0.4929 -0.0621  0.2689
  105OSM   H14A10639   1.022   5.137  10.587 -1.8311  1.6047  1.1342
  105OSM   H14B10640   0.893   5.214  10.497  0.9014  1.0166  1.3845
  105OSM   H14C10641   1.004   5.121  10.405  1.0675 -3.4303  1.1498
  105OSM    C1310642   0.958   4.887  10.505 -0.0969  0.4870 -0.4912
  105OSM   H13A10643   1.035   4.877  10.580  0.1516  1.5622 -0.5991
  105OSM   H13B10644   1.011   4.896  10.412 -0.2345  2.1408 -0.4101
  105OSM   H13C10645   0.901   4.795  10.507 -0.4219  0.6937  2.4300
  105OSM    C1210646   0.752   5.015  10.430 -0.0699 -0.8807 -0.2014
  105OSM   H12A10647   0.692   5.099  10.462  2.8308  0.9419  0.6417
  105OSM   H12B10648   0.689   4.928  10.430 -2.4986  0.7913 -2.7413
  105OSM    C1110649   0.789   5.036  10.284  0.8050 -0.2308  0.3246
  105OSM   H11A10650   0.855   4.957  10.243 -0.4946 -1.3551  0.3671
  105OSM   H11B10651   0.844   5.130  10.261 -0.6603  0.0094 -2.3258
  105OSM      P10652   0.637   5.030  10.065 -0.1346  0.0153 -0.6690
  105OSM    O1310653   0.716   4.916  10.012  0.1443  0.0689  0.6343
  105OSM    O1410654   0.492   5.018  10.049 -0.0807 -0.2494 -0.1768
  105OSM    O1110655   0.689   5.165  10.008  0.0128  0.2150  0.5687
  105OSM    O1210656   0.662   5.048  10.228  0.8410  0.8096  0.0752
  105OSM    C1S10657   0.825   5.187   9.966  0.8258 -0.3574  0.7745
  105OSM    H1S10658   0.889   5.098   9.984 -0.8000 -1.7829 -0.2774
  105OSM    H1T10659   0.858   5.275  10.025 -0.9296  0.2790  0.8465
  105OSM     NF10660   0.982   5.201   9.772 -0.4321 -0.0651  0.4767
  105OSM    HNF10661   1.035   5.284   9.760  0.2132 -0.3463  1.3426
  105OSM    C2S10662   0.839   5.222   9.814 -0.0300  0.5743  0.1239
  105OSM    H2S10663   0.782   5.140   9.765  1.2260 -0.8902  1.0690
  105OSM    C3S10664   0.780   5.357   9.779 -0.2779 -0.5795  0.6055
  105OSM    H3S10665   0.842   5.441   9.817 -1.4049 -0.1278  1.4816
  105OSM     O310666   0.653   5.394   9.828 -0.1067 -0.0687  0.3698
  105OSM    HO310667   0.639   5.333   9.901 -1.5931  0.3587  0.4568
  105OSM    C4S10668   0.782   5.386   9.626  0.5973 -0.0196 -0.8516
  105OSM    H4S10669   0.881   5.420   9.591  0.7835 -0.8210 -1.1166
  105OSM    C5S10670   0.681   5.383   9.541  0.1578  0.0770  0.1389
  105OSM    H5S10671   0.584   5.343   9.575 -1.7119  2.3404 -2.2993
  105OSM    C6S10672   0.679   5.411   9.391  0.0848 -0.3461  0.9934
  105OSM    H6S10673   0.629   5.508   9.367  1.9206  0.7821  1.5867
  105OSM    H6T10674   0.616   5.331   9.348 -0.6192  0.0254  1.3220
  105OSM    C7S10675   0.820   5.403   9.334 -0.0806  0.1552 -0.0414
  105OSM    H7S10676   0.868   5.308   9.367 -1.7959 -0.3368  1.0641
  105OSM    H7T10677   0.877   5.489   9.376 -1.3087  0.9619 -0.0307
  105OSM    C8S10678   0.821   5.431   9.178  0.4298 -0.8963  0.4695
  105OSM    H8S10679   0.792   5.535   9.152  0.6625 -0.5638  1.5028
  105OSM    H8T10680   0.746   5.367   9.127 -1.0738  1.0524  0.2030
  105OSM    C9S10681   0.964   5.404   9.129 -0.1020  0.2971  0.1773
  105OSM    H9S10682   0.981   5.294   9.129 -2.5000 -0.0916 -0.7793
  105OSM    H9T10683   1.038   5.451   9.197 -0.5816  0.5938  0.4920
  105OSM   C10S10684   0.983   5.460   8.984  0.1465  0.8135 -0.3680
  105OSM   H10S10685   1.090   5.433   8.969 -0.2750 -0.6421 -0.8448
  105OSM   H10T10686   0.963   5.569   8.983 -1.1252  0.5962 -0.5410
  105OSM   C11S10687   0.889   5.402   8.872  0.1015  0.4960  0.0724
  105OSM   H11S10688   0.787   5.398   8.914  0.0536  0.7947 -0.0191
  105OSM   H11T10689   0.920   5.300   8.840 -0.7024  1.4661 -4.1033
  105OSM   C12S10690   0.878   5.491   8.748 -0.6003 -0.0327 -0.0480
  105OSM   H12S10691   0.977   5.472   8.703 -0.4449  0.2179  0.1814
  105OSM   H12T10692   0.887   5.597   8.780  1.9806  0.7254 -3.1192
  105OSM   C13S10693   0.758   5.478   8.654 -0.7738 -0.4269 -0.4070
  105OSM   H13S10694   0.673   5.499   8.723  1.2088 -1.4025  2.3942
  105OSM   H13T10695   0.750   5.371   8.625 -1.8665 -0.0611 -1.5076
  105OSM   C14S10696   0.764   5.559   8.525 -0.2336 -0.0013  0.3714
  105OSM   H14S10697   0.802   5.661   8.551  0.5299  0.3050 -1.8194
  105OSM   H14T10698   0.666   5.572   8.475  0.3027 -1.5967 -1.1424
  105OSM   C15S10699   0.847   5.490   8.420  0.2380  0.0577  0.7944
  105OSM   H15S10700   0.832   5.381   8.432 -1.7564  0.1351 -0.8069
  105OSM   H15T10701   0.957   5.506   8.429  0.6469 -1.4914 -1.1123
  105OSM   C16S10702   0.809   5.520   8.273  0.1844  0.2041  1.0381
  105OSM   H16S10703   0.799   5.630   8.264  1.1548  0.1038 -2.0174
  105OSM   H16T10704   0.713   5.481   8.233  0.2360  2.2527 -1.2586
  105OSM   C17S10705   0.922   5.475   8.180 -0.0446 -0.3860  0.5098
  105OSM   H17S10706   0.925   5.364   8.186  2.3262 -0.3974 -0.2356
  105OSM   H17T10707   1.019   5.519   8.212 -0.0907 -0.1622  0.3428
  105OSM   C18S10708   0.897   5.508   8.032  0.8772  0.2449 -0.2266
  105OSM   H18S10709   0.876   5.617   8.024  0.9917  0.3143  0.3690
  105OSM   H18T10710   0.810   5.452   7.993  0.6605 -0.3503  1.0617
  105OSM   H18U10711   0.984   5.472   7.973  1.0655  2.5288 -1.4375
  105OSM    C1F10712   1.038   5.083   9.750 -0.0905 -0.3358  0.2242
  105OSM     OF10713   0.967   4.983   9.748  0.0491  0.3537 -0.1888
  105OSM    C2F10714   1.183   5.085   9.705 -0.3375 -0.0258 -0.8241
  105OSM    H2F10715   1.203   4.985   9.661  0.4300  0.4359 -1.5479
  105OSM    H2G10716   1.239   5.093   9.800  0.0294 -3.3835 -0.7245
  105OSM    C3F10717   1.220   5.187   9.591 -0.0504 -0.2364 -0.3881
  105OSM    H3F10718   1.330   5.197   9.602  0.1782 -2.1745 -0.7751
  105OSM    H3G10719   1.184   5.289   9.613  1.0719  0.0075  0.3956
  105OSM    C4F10720   1.182   5.137   9.456  0.2703 -0.1224  0.0107
  105OSM    H4F10721   1.075   5.114   9.440  0.2759 -0.8150  0.9402
  105OSM    H4G10722   1.229   5.036   9.456 -3.1610 -1.7799  1.7190
  105OSM    C5F10723   1.258   5.207   9.344  0.5818 -0.1825  0.1774
  105OSM    H5F10724   1.367   5.197   9.362  0.9894  0.3360 -1.8445
  105OSM    H5G10725   1.233   5.315   9.339 -0.7230 -0.2564  3.7185
  105OSM    C6F10726   1.232   5.144   9.205  0.0209 -0.0593 -0.1090
  105OSM    H6F10727   1.125   5.140   9.175 -0.1064 -0.2064  0.3604
  105OSM    H6G10728   1.266   5.038   9.214 -1.2981 -0.5640 -0.8929
  105OSM    C7F10729   1.310   5.219   9.105  0.4138  0.3343 -0.6476
  105OSM    H7F10730   1.410   5.245   9.146  0.2158  2.5440 -1.5235
  105OSM    H7G10731   1.262   5.318   9.090  0.3131  0.7853  2.4354
  105OSM    C8F10732   1.320   5.152   8.976  0.3966  0.1203  0.7181
  105OSM    H8F10733   1.398   5.073   8.981 -0.8032 -0.9889  2.4418
  105OSM    H8G10734   1.369   5.226   8.909 -0.8390 -0.3037 -0.6714
  105OSM    C9F10735   1.203   5.088   8.913  0.0225  0.5141  0.3916
  105OSM    H9F10736   1.132   5.065   8.995  0.6279 -0.4219  0.6643
  105OSM   C10F10737   1.172   5.044   8.791  0.4480  0.6452  1.0627
  105OSM   H10F10738   1.074   4.998   8.769  1.0661  0.5874 -1.8283
  105OSM   C11F10739   1.260   5.057   8.669 -0.4463  0.3363  0.1974
  105OSM   H11F10740   1.369   5.059   8.693 -0.5034 -1.7331  0.7486
  105OSM   H11G10741   1.231   5.157   8.632 -2.0731  0.9787  3.0673
  105OSM   C12F10742   1.238   4.955   8.551 -0.4473 -0.6424  0.0333
  105OSM   H12F10743   1.308   4.998   8.477 -0.7138 -1.9231 -0.9611
  105OSM   H12G10744   1.134   4.950   8.513 -0.0872  1.4922 -1.3231
  105OSM   C13F10745   1.298   4.816   8.580 -0.1961  0.4424  0.2460
  105OSM   H13F10746   1.220   4.752   8.625  0.3078  0.7725  1.6047
  105OSM   H13G10747   1.368   4.820   8.666  0.4657 -2.1215 -0.1534
  105OSM   C14F10748   1.368   4.736   8.461 -0.5390 -0.1159 -0.1953
  105OSM   H14F10749   1.409   4.640   8.498 -1.9761 -0.6351  0.0932
  105OSM   H14G10750   1.454   4.786   8.413  0.2779 -0.8090  0.5340
  105OSM   C15F10751   1.270   4.698   8.338  0.0732 -0.1262 -0.7040
  105OSM   H15F10752   1.258   4.793   8.282  1.6482  0.2846 -0.3662
  105OSM   H15G10753   1.174   4.672   8.388  0.1336  2.8965  1.0443
  105OSM   C16F10754   1.329   4.587   8.244 -0.6181  0.2064  0.8634
  105OSM   H16F10755   1.363   4.520   8.326  0.2873  0.4810  0.7165
  105OSM   H16G10756   1.421   4.624   8.193  0.3308  0.9972  3.0817
  105OSM   C17F10757   1.225   4.521   8.147 -0.8153  0.1705  0.0881
  105OSM   H17F10758   1.190   4.605   8.083 -0.3427  0.4494  0.1991
  105OSM   H17G10759   1.134   4.485   8.199 -0.3650 -2.0931 -0.6309
  105OSM   C18F10760   1.291   4.413   8.056  0.3533 -0.1576  0.3665
  105OSM   H18F10761   1.384   4.451   8.009  0.2574 -0.5123 -0.1130
  105OSM   H18G10762   1.230   4.383   7.967  0.7648 -0.8823  0.3240
  105OSM   H18H10763   1.316   4.330   8.125  3.9833  0.0039 -0.6796
  106OSM      N10764   0.538   2.611  10.000  0.6267 -0.2718  0.1350
  106OSM    C1510765   0.565   2.692  10.122 -0.4120 -0.3032 -0.2396
  106OSM   H15A10766   0.520   2.789  10.115  0.8707  0.3753  0.7965
  106OSM   H15B10767   0.671   2.705  10.137 -0.4272  1.5422 -1.5365
  106OSM   H15C10768   0.531   2.645  10.213  1.6829 -1.2616  0.0750
  106OSM    C1410769   0.626   2.675   9.889  0.2226  0.2076  0.6124
  106OSM   H14A10770   0.590   2.776   9.882  1.5083  0.6483  0.1770
  106OSM   H14B10771   0.594   2.632   9.795  0.6480  0.3565  0.4002
  106OSM   H14C10772   0.733   2.665   9.900  0.3580  1.2166  0.2809
  106OSM    C1310773   0.578   2.468  10.024 -0.1335  0.0438  0.0503
  106OSM   H13A10774   0.544   2.406   9.942 -1.2115  3.0068 -1.8415
  106OSM   H13B10775   0.550   2.423  10.118 -1.9298 -2.1540 -1.4854
  106OSM   H13C10776   0.685   2.462  10.018  0.0690  2.2408  1.1175
  106OSM    C1210777   0.392   2.631   9.964 -0.0817  0.2706 -0.6429
  106OSM   H12A10778   0.334   2.593  10.046  1.8366  1.6540  1.4074
  106OSM   H12B10779   0.377   2.575   9.872  1.5475 -1.0137 -0.1572
  106OSM    C1110780   0.336   2.772   9.932  0.5426 -0.0768  0.4086
  106OSM   H11A10781   0.231   2.741   9.910 -0.0230  1.1606  1.3187
  106OSM   H11B10782   0.382   2.812   9.839 -0.0225 -0.9688 -0.2705
  106OSM      P10783   0.337   3.020  10.008  0.2073  0.3255 -0.1219
  106OSM    O1310784   0.261   3.055   9.889  0.4898  0.1177 -0.1907
  106OSM    O1410785   0.293   3.096  10.129  0.0621 -0.1951  0.1539
  106OSM    O1110786   0.485   3.063   9.978  0.5887  0.5892 -0.2686
  106OSM    O1210787   0.352   2.860  10.048 -0.7551  0.0588 -0.0603
  106OSM    C1S10788   0.560   3.039   9.857  0.1264 -0.1730  0.2619
  106OSM    H1S10789   0.499   2.989   9.779 -0.8323  0.9978  0.2487
  106OSM    H1T10790   0.658   2.994   9.888  0.6910  0.6135 -0.3821
  106OSM     NF10791   0.646   3.151   9.651  0.4389  0.0066 -0.0521
  106OSM    HNF10792   0.745   3.144   9.642  0.3217 -1.3809 -0.3513
  106OSM    C2S10793   0.596   3.174   9.786  0.1488 -0.5755  0.0013
  106OSM    H2S10794   0.504   3.236   9.782 -0.6674 -1.7284  0.3983
  106OSM    C3S10795   0.689   3.250   9.876 -0.2083  0.2254 -0.1010
  106OSM    H3S10796   0.791   3.208   9.864 -0.0640  0.2637  0.9440
  106OSM     O310797   0.643   3.251  10.017 -0.0850  0.0702 -0.1771
  106OSM    HO310798   0.572   3.186  10.019  0.7258 -0.8102  0.6135
  106OSM    C4S10799   0.704   3.392   9.833  0.7972  0.5972  0.6137
  106OSM    H4S10800   0.777   3.403   9.752 -1.0570 -0.7346 -1.2967
  106OSM    C5S10801   0.642   3.503   9.884  0.0684 -0.1852  0.5409
  106OSM    H5S10802   0.565   3.491   9.963  2.3386  0.4273  2.9123
  106OSM    C6S10803   0.666   3.645   9.825 -0.3249 -0.6705  0.3306
  106OSM    H6S10804   0.768   3.656   9.784 -0.6619  0.4644 -0.2313
  106OSM    H6T10805   0.664   3.727   9.899  0.7183 -1.1120  0.8454
  106OSM    C7S10806   0.559   3.683   9.716  0.4789 -0.0216 -0.4528
  106OSM    H7S10807   0.569   3.792   9.700  1.1843  0.2296  1.5957
  106OSM    H7T10808   0.452   3.681   9.748  0.7887 -1.3932  0.5697
  106OSM    C8S10809   0.585   3.607   9.583  0.3754  0.1370 -0.0457
  106OSM    H8S10810   0.569   3.499   9.603 -0.0195  0.3946  1.0340
  106OSM    H8T10811   0.692   3.610   9.552  0.1906  0.0760 -0.7106
  106OSM    C9S10812   0.514   3.662   9.457  0.5784  0.3218  0.5177
  106OSM    H9S10813   0.537   3.771   9.451 -0.0455  0.5505  1.9288
  106OSM    H9T10814   0.406   3.659   9.481  0.3856  0.0740 -0.3681
  106OSM   C10S10815   0.548   3.595   9.321  0.5912 -0.4515 -0.0958
  106OSM   H10S10816   0.526   3.486   9.327 -0.4651 -0.3506 -2.0734
  106OSM   H10T10817   0.657   3.607   9.304  0.6844  0.1638  0.8739
  106OSM   C11S10818   0.479   3.644   9.184  0.5415  0.7518  0.1648
  106OSM   H11S10819   0.511   3.750   9.179  0.0312  0.8861 -0.3171
  106OSM   H11T10820   0.368   3.639   9.186  0.4897  1.9295  0.2972
  106OSM   C12S10821   0.530   3.574   9.059  0.7416 -0.2140  0.1007
  106OSM   H12S10822   0.518   3.468   9.088  0.5898  0.7166  3.7331
  106OSM   H12T10823   0.637   3.585   9.028  0.9551 -0.7744  0.6213
  106OSM   C13S10824   0.453   3.619   8.935 -0.5373  0.3418  0.6196
  106OSM   H13S10825   0.502   3.712   8.900  1.8554 -1.4298 -0.9097
  106OSM   H13T10826   0.347   3.639   8.963 -0.0513  3.9797 -0.0235
  106OSM   C14S10827   0.460   3.510   8.823 -0.8087  0.0436  0.9649
  106OSM   H14S10828   0.372   3.442   8.823 -0.5063 -0.3893 -0.9441
  106OSM   H14T10829   0.545   3.439   8.831 -0.0804  0.8038  0.0941
  106OSM   C15S10830   0.487   3.571   8.681  0.1021  0.3793 -0.5893
  106OSM   H15S10831   0.589   3.613   8.699 -0.2064  1.2552 -0.8623
  106OSM   H15T10832   0.418   3.653   8.652 -0.3477  0.7983  1.5360
  106OSM   C16S10833   0.504   3.454   8.585  0.0729 -0.3221  0.6703
  106OSM   H16S10834   0.396   3.427   8.582 -0.2114  0.9992 -2.2437
  106OSM   H16T10835   0.569   3.381   8.638  1.1048 -0.7384 -1.1207
  106OSM   C17S10836   0.556   3.491   8.449  0.7259 -0.2851 -0.0622
  106OSM   H17S10837   0.567   3.396   8.392  1.8485 -0.8688  1.0760
  106OSM   H17T10838   0.656   3.539   8.463  1.3969 -1.6502 -0.0674
  106OSM   C18S10839   0.467   3.598   8.378  0.4713 -0.2660  0.0307
  106OSM   H18S10840   0.478   3.609   8.268  0.9527 -1.0621 -0.0033
  106OSM   H18T10841   0.472   3.693   8.436  3.4050  0.9540 -2.0852
  106OSM   H18U10842   0.360   3.570   8.391  0.7829 -1.4362  0.0846
  106OSM    C1F10843   0.574   3.115   9.542 -0.0862 -0.2301  0.1106
  106OSM     OF10844   0.463   3.065   9.553  0.7330 -0.6404  0.2063
  106OSM    C2F10845   0.641   3.122   9.405  0.1835  0.9585  0.1602
  106OSM    H2F10846   0.689   3.022   9.401  0.0015  0.6734  3.5737
  106OSM    H2G10847   0.726   3.193   9.411  0.3097  0.6908  2.0033
  106OSM    C3F10848   0.557   3.143   9.279 -0.1463 -0.6046  0.5729
  106OSM    H3F10849   0.533   3.251   9.280  1.8606 -0.1201 -0.9855
  106OSM    H3G10850   0.460   3.097   9.308 -0.9563  1.6477  1.5359
  106OSM    C4F10851   0.617   3.092   9.147 -0.1534  0.1700  0.5386
  106OSM    H4F10852   0.639   2.985   9.165 -0.6107  0.1816  1.2007
  106OSM    H4G10853   0.713   3.146   9.130  0.4156 -0.8873  0.3938
  106OSM    C5F10854   0.517   3.101   9.035  0.2896 -0.1592  0.1366
  106OSM    H5F10855   0.505   3.209   9.009  0.2221 -0.0821  0.4788
  106OSM    H5G10856   0.416   3.057   9.049  0.4508 -0.1795  1.2490
  106OSM    C6F10857   0.568   3.038   8.901 -0.2237  0.1999 -0.0533
  106OSM    H6F10858   0.587   2.929   8.912  0.0664  0.4187  1.8618
  106OSM    H6G10859   0.669   3.081   8.889  0.1152 -0.6689 -0.3026
  106OSM    C7F10860   0.492   3.071   8.773 -0.2180 -0.1250 -0.6233
  106OSM    H7F10861   0.457   3.175   8.789  0.2968 -0.1618  0.7504
  106OSM    H7G10862   0.405   3.002   8.767 -0.1147 -0.4399  1.1476
  106OSM    C8F10863   0.581   3.070   8.642  0.0093  0.2677  0.3128
  106OSM    H8F10864   0.669   3.138   8.642  0.1144  0.1313  0.4402
  106OSM    H8G10865   0.516   3.100   8.557  0.0063  0.5541  0.4156
  106OSM    C9F10866   0.643   2.937   8.599  0.5947  0.4955  0.6075
  106OSM    H9F10867   0.621   2.860   8.674  2.3686  1.1292  1.8195
  106OSM   C10F10868   0.728   2.917   8.493  0.3277 -0.5029 -0.0174
  106OSM   H10F10869   0.773   2.821   8.464 -1.3675 -1.3819  0.2643
  106OSM   C11F10870   0.757   3.035   8.403  0.3040  0.0863  0.0746
  106OSM   H11F10871   0.680   3.115   8.411  0.3502  0.1613 -0.2320
  106OSM   H11G10872   0.764   3.004   8.296 -0.7822  1.3867 -0.3821
  106OSM   C12F10873   0.891   3.108   8.431  0.1928  0.6794 -0.6352
  106OSM   H12F10874   0.985   3.051   8.449  0.6875  2.0990  1.5418
  106OSM   H12G10875   0.882   3.157   8.531 -1.1361  0.7517 -0.7817
  106OSM   C13F10876   0.915   3.209   8.316  0.0946  0.1906 -0.2352
  106OSM   H13F10877   0.830   3.278   8.300  0.4802  0.5703 -0.6473
  106OSM   H13G10878   0.920   3.151   8.222 -1.9169 -1.6171  0.7290
  106OSM   C14F10879   1.031   3.304   8.352  0.4586  0.0709  0.5059
  106OSM   H14F10880   1.120   3.242   8.370 -0.3729 -0.6098  2.3159
  106OSM   H14G10881   1.016   3.371   8.439 -1.5767 -1.0277  1.0212
  106OSM   C15F10882   1.076   3.380   8.219  0.1450 -0.1301 -1.5733
  106OSM   H15F10883   0.999   3.460   8.224  0.7965  0.5571 -2.5020
  106OSM   H15G10884   1.058   3.318   8.129  1.1117 -1.8773 -0.6098
  106OSM   C16F10885   1.217   3.440   8.214  0.0413 -0.5528 -0.6128
  106OSM   H16F10886   1.288   3.356   8.228 -0.8856 -1.7981 -3.0585
  106OSM   H16G10887   1.240   3.520   8.288  2.8982 -0.4847 -1.5277
  106OSM   C17F10888   1.238   3.483   8.067  0.9792 -0.1055  0.5414
  106OSM   H17F10889   1.207   3.394   8.009 -0.0129  0.1439  0.6775
  106OSM   H17G10890   1.347   3.503   8.056  0.8584  0.1675 -0.1750
  106OSM   C18F10891   1.167   3.612   8.013 -0.0984  0.1620  0.2899
  106OSM   H18F10892   1.218   3.695   8.065  0.3851 -0.6195  1.0873
  106OSM   H18G10893   1.057   3.610   8.027 -0.3638  1.6744 -1.4875
  106OSM   H18H10894   1.185   3.625   7.904 -2.6822  1.1309 -0.0539
  107OSM      N10895   2.033   0.908  10.041  0.2244 -0.0655 -0.3625
  107OSM    C1510896   2.156   0.903  10.112  0.4206  0.4313 -0.8929
  107OSM   H15A10897   2.167   0.982  10.185 -0.2940  0.1030 -0.4304
  107OSM   H15B10898   2.238   0.914  10.042  0.7901 -2.6205 -0.9698
  107OSM   H15C10899   2.181   0.811  10.161 -2.5947 -0.9370 -1.8748
  107OSM    C1410900   1.921   0.900  10.137 -0.2239  0.1481 -0.1594
  107OSM   H14A10901   1.837   0.889  10.071  1.4961 -1.1508 -2.2216
  107OSM   H14B10902   1.917   0.993  10.191 -1.3677 -0.1529  0.2908
  107OSM   H14C10903   1.933   0.812  10.200 -1.1799  0.7431  0.8639
  107OSM    C1310904   2.018   1.032   9.959  0.2768  0.5888  0.6778
  107OSM   H13A10905   2.011   1.123  10.017 -1.9763  0.4912  0.6055
  107OSM   H13B10906   1.935   1.025   9.889  2.6826  0.9592 -2.3174
  107OSM   H13C10907   2.100   1.042   9.889  0.7978  0.1935  1.2321
  107OSM    C1210908   2.030   0.783   9.947 -0.5468 -0.5122 -0.7127
  107OSM   H12A10909   1.934   0.783   9.899 -2.6879  3.0958  3.2055
  107OSM   H12B10910   2.036   0.694  10.008  0.7680 -0.8113 -1.2564
  107OSM    C1110911   2.139   0.778   9.839 -0.1246  0.6314  0.0997
  107OSM   H11A10912   2.128   0.864   9.769 -0.4935  0.2990 -0.2519
  107OSM   H11B10913   2.128   0.696   9.765 -1.3447  1.4775 -0.6619
  107OSM      P10914   2.321   0.631   9.951  0.0517 -0.3803  0.0953
  107OSM    O1310915   2.464   0.652   9.979 -0.8594 -0.0318 -0.0021
  107OSM    O1410916   2.234   0.584  10.067 -0.2215  0.1303  0.3546
  107OSM    O1110917   2.305   0.531   9.827  0.0321 -0.1627  0.9369
  107OSM    O1210918   2.273   0.769   9.897  0.1519  0.4449  0.2657
  107OSM    C1S10919   2.386   0.555   9.706 -0.2073 -0.0578 -0.2620
  107OSM    H1S10920   2.489   0.525   9.737 -0.7241 -0.1418  1.4593
  107OSM    H1T10921   2.377   0.657   9.663 -1.6207  0.5893  1.4826
  107OSM     NF10922   2.436   0.431   9.485  0.2527 -0.0450  0.0467
  107OSM    HNF10923   2.418   0.488   9.405 -1.9255 -1.1855 -0.3245
  107OSM    C2S10924   2.339   0.451   9.594 -0.6161  0.4780 -0.4379
  107OSM    H2S10925   2.331   0.350   9.639  2.1375  0.2397 -0.3483
  107OSM    C3S10926   2.207   0.498   9.535 -0.1989  0.4139  0.0701
  107OSM    H3S10927   2.208   0.602   9.496  0.3113  0.2892 -0.2552
  107OSM     O310928   2.101   0.504   9.633  0.1707  0.1242 -0.5679
  107OSM    HO310929   2.152   0.502   9.714 -0.1081 -1.1980 -0.4218
  107OSM    C4S10930   2.155   0.414   9.432 -0.1489 -0.0918  0.2769
  107OSM    H4S10931   2.126   0.316   9.473 -0.9252  0.0838  0.1498
  107OSM    C5S10932   2.144   0.441   9.300 -0.1053 -0.6557 -0.4819
  107OSM    H5S10933   2.177   0.541   9.266  1.7662 -1.1846 -0.2628
  107OSM    C6S10934   2.088   0.343   9.194 -1.1357  0.0197  0.4281
  107OSM    H6S10935   1.985   0.372   9.163 -1.5671 -0.8945  0.9974
  107OSM    H6T10936   2.107   0.234   9.204  0.7779  0.1612 -1.1806
  107OSM    C7S10937   2.174   0.380   9.066 -0.3266 -0.2546  0.2959
  107OSM    H7S10938   2.282   0.358   9.084 -0.4061  0.1313  1.3071
  107OSM    H7T10939   2.173   0.488   9.039  0.4954 -0.3967 -0.3022
  107OSM    C8S10940   2.126   0.303   8.938  0.1297 -0.0206  0.1331
  107OSM    H8S10941   2.033   0.359   8.915 -0.1324  0.0680  1.4041
  107OSM    H8T10942   2.113   0.200   8.978  1.2543  0.9078  3.0126
  107OSM    C9S10943   2.228   0.295   8.829  0.4957 -0.4156 -0.5009
  107OSM    H9S10944   2.309   0.226   8.860  1.8559  0.4429 -2.0303
  107OSM    H9T10945   2.280   0.392   8.815  1.1873  0.0441  4.3245
  107OSM   C10S10946   2.166   0.250   8.700 -0.0852  0.2304  0.1769
  107OSM   H10S10947   2.099   0.322   8.648  0.5824  2.4731  2.3424
  107OSM   H10T10948   2.096   0.172   8.737 -0.8071 -0.0976 -1.8122
  107OSM   C11S10949   2.266   0.180   8.611 -0.6879  0.5050 -0.7494
  107OSM   H11S10950   2.332   0.116   8.673 -1.7933 -0.9359 -1.0236
  107OSM   H11T10951   2.334   0.256   8.568  1.9964 -0.7290  1.1449
  107OSM   C12S10952   2.193   0.099   8.503  0.1161  0.4043 -0.5177
  107OSM   H12S10953   2.098   0.144   8.468  0.4358  0.7832 -0.8936
  107OSM   H12T10954   2.166  -0.001   8.544 -1.4983  0.9594 -0.1747
  107OSM   C13S10955   2.273   0.065   8.378 -0.4747  0.0761  0.1207
  107OSM   H13S10956   2.295   0.153   8.313  2.2908 -0.0932  0.7474
  107OSM   H13T10957   2.216  -0.006   8.314 -0.2139  0.7239 -0.8470
  107OSM   C14S10958   2.411   0.007   8.418 -0.7776 -0.4074  0.3376
  107OSM   H14S10959   2.398  -0.082   8.483 -0.2245  0.6332  1.9111
  107OSM   H14T10960   2.465   0.083   8.479 -1.0869 -1.0337  1.4069
  107OSM   C15S10961   2.499  -0.023   8.299  0.6946 -0.5883  0.1154
  107OSM   H15S10962   2.607  -0.029   8.324  0.6291 -1.8709  0.1251
  107OSM   H15T10963   2.491   0.062   8.228 -0.1618  0.6481  1.6745
  107OSM   C16S10964   2.459  -0.150   8.233 -1.0085  0.0540  0.1285
  107OSM   H16S10965   2.350  -0.157   8.213 -0.7061 -2.7278 -0.7063
  107OSM   H16T10966   2.500  -0.230   8.297 -3.2362 -0.1898  1.2828
  107OSM   C17S10967   2.527  -0.161   8.096  0.6301  0.0552 -0.6065
  107OSM   H17S10968   2.637  -0.146   8.095  0.8675 -1.3817  1.0164
  107OSM   H17T10969   2.481  -0.083   8.031 -0.3141 -0.1664 -0.2222
  107OSM   C18S10970   2.505  -0.297   8.028  0.0830 -0.9206  0.1034
  107OSM   H18S10971   2.550  -0.379   8.089 -1.4413 -1.0221  1.1364
  107OSM   H18T10972   2.540  -0.308   7.923  1.5894 -4.2885  0.8782
  107OSM   H18U10973   2.396  -0.312   8.010  0.1492  0.0815 -1.1705
  107OSM    C1F10974   2.559   0.375   9.491 -0.5253  0.5901  0.3362
  107OSM     OF10975   2.595   0.312   9.592 -0.4560  0.0899  0.3113
  107OSM    C2F10976   2.642   0.393   9.369 -0.3421  0.5483 -0.1918
  107OSM    H2F10977   2.749   0.374   9.390 -0.3054 -0.2677 -1.1160
  107OSM    H2G10978   2.639   0.497   9.332 -0.8786 -0.4445 -3.0299
  107OSM    C3F10979   2.600   0.286   9.266  0.6587 -0.1227  0.0830
  107OSM    H3F10980   2.496   0.308   9.235  0.6878 -1.5346 -1.0709
  107OSM    H3G10981   2.602   0.187   9.317 -0.1113 -0.3528 -0.3278
  107OSM    C4F10982   2.688   0.303   9.144  0.6786 -0.4507 -0.6342
  107OSM    H4F10983   2.697   0.203   9.096 -1.0975 -1.2440  0.6381
  107OSM    H4G10984   2.793   0.317   9.178 -0.0401 -1.2138  2.0143
  107OSM    C5F10985   2.643   0.405   9.044 -0.1059 -0.0513 -0.0957
  107OSM    H5F10986   2.671   0.505   9.083 -1.4103  1.2965 -2.4702
  107OSM    H5G10987   2.533   0.388   9.042 -0.0645 -0.4756  1.0743
  107OSM    C6F10988   2.696   0.371   8.903  0.6858 -0.0423 -0.6186
  107OSM    H6F10989   2.803   0.348   8.922  1.0229  2.9775  1.4925
  107OSM    H6G10990   2.688   0.465   8.844  0.8750  0.3031 -0.0975
  107OSM    C7F10991   2.629   0.259   8.827 -0.2292 -0.2893 -0.3232
  107OSM    H7F10992   2.521   0.285   8.833 -0.2714 -0.6460  0.5291
  107OSM    H7G10993   2.642   0.157   8.869 -2.4380 -1.1180 -1.5950
  107OSM    C8F10994   2.663   0.277   8.679 -0.6095 -0.0562  0.2199
  107OSM    H8F10995   2.641   0.379   8.641  0.6629 -0.5793 -2.0254
  107OSM    H8G10996   2.581   0.224   8.627  1.4948 -3.5734  0.3373
  107OSM    C9F10997   2.799   0.222   8.633 -0.2314 -0.6836 -0.3209
  107OSM    H9F10998   2.817   0.124   8.678 -2.5370 -0.2074  1.7254
  107OSM   C10F10999   2.886   0.267   8.544  0.4549 -0.6080  0.6104
  107OSM   H10F11000   2.970   0.201   8.518 -0.3443 -1.2730 -0.3426
  107OSM   C11F11001   2.875   0.394   8.459 -0.1263  0.4648 -0.1593
  107OSM   H11F11002   2.925   0.475   8.518  1.0232 -0.6181  0.3717
  107OSM   H11G11003   2.771   0.420   8.431 -0.4650 -1.5649 -0.8205
  107OSM   C12F11004   2.956   0.399   8.327 -0.2591 -0.4367 -1.2905
  107OSM   H12F11005   3.065   0.391   8.346 -0.0285 -0.9427 -2.7729
  107OSM   H12G11006   2.949   0.503   8.288 -0.3586  0.1940  0.3695
  107OSM   C13F11007   2.919   0.295   8.220 -0.0789  0.3311  0.3029
  107OSM   H13F11008   2.811   0.289   8.193  0.3021 -2.3945 -0.7598
  107OSM   H13G11009   2.949   0.195   8.257  1.3330  0.1688 -1.2362
  107OSM   C14F11010   3.003   0.332   8.090 -0.1118 -0.1197  0.8664
  107OSM   H14F11011   3.106   0.366   8.114  0.2973 -2.7405  3.0611
  107OSM   H14G11012   2.952   0.421   8.048  0.9121 -0.3388 -0.8981
  107OSM   C15F11013   3.015   0.224   7.986 -0.5856  0.1175  0.0651
  107OSM   H15F11014   3.080   0.137   8.011  0.2980  0.1169 -2.1228
  107OSM   H15G11015   3.063   0.264   7.895  0.4466 -0.3969  0.3660
  107OSM   C16F11016   2.885   0.164   7.943 -0.1391  0.0329 -0.1884
  107OSM   H16F11017   2.820   0.135   8.029 -0.7990  1.3052 -0.2429
  107OSM   H16G11018   2.899   0.075   7.879 -1.3454  1.5204 -2.6075
  107OSM   C17F11019   2.795   0.254   7.840 -0.0574  1.3206 -0.4297
  107OSM   H17F11020   2.830   0.282   7.739  1.4420 -0.0085 -0.3102
  107OSM   H17G11021   2.771   0.353   7.883  2.1721  1.4024  0.7418
  107OSM   C18F11022   2.659   0.198   7.843  0.7046  0.5565  0.2115
  107OSM   H18F11023   2.585   0.258   7.787 -1.0199 -2.2042 -0.5603
  107OSM   H18G11024   2.621   0.194   7.947  0.0710  1.6200  0.0261
  107OSM   H18H11025   2.666   0.100   7.790 -0.4416  2.4512 -3.5657
  108OSM      N11026   0.960   1.678   9.921  0.8034 -0.0827  0.2442
  108OSM    C1511027   1.095   1.633   9.886  0.5611  0.1211  0.6632
  108OSM   H15A11028   1.155   1.576   9.955  0.5043  0.2129  0.7892
  108OSM   H15B11029   1.151   1.723   9.861  1.2466 -0.6790 -0.7708
  108OSM   H15C11030   1.101   1.577   9.794  0.3872 -0.1597  0.8225
  108OSM    C1411031   0.908   1.779   9.823  0.4873  0.7650 -0.5421
  108OSM   H14A11032   0.943   1.878   9.848 -2.5075  0.9128  3.5337
  108OSM   H14B11033   0.801   1.791   9.832  0.7556  1.8629  1.5346
  108OSM   H14C11034   0.934   1.753   9.721  3.8182  2.6624 -0.2449
  108OSM    C1311035   0.870   1.557   9.899 -0.0173  0.4060  0.3127
  108OSM   H13A11036   0.885   1.498   9.988 -0.6613  0.5050  0.4899
  108OSM   H13B11037   0.889   1.500   9.809 -0.7826  0.8251 -0.1149
  108OSM   H13C11038   0.767   1.588   9.895 -0.0348  0.1683 -1.2622
  108OSM    C1211039   0.959   1.733  10.064  0.3949 -0.1961 -0.9544
  108OSM   H12A11040   1.007   1.830  10.070 -0.6718  0.2902 -0.3364
  108OSM   H12B11041   1.021   1.665  10.120 -2.0623 -0.6227  1.3298
  108OSM    C1111042   0.814   1.747  10.112 -0.0593  0.2692  0.0199
  108OSM   H11A11043   0.772   1.645  10.129 -1.5929  0.8785  0.0003
  108OSM   H11B11044   0.767   1.790  10.021  4.5874  0.6834 -2.2955
  108OSM      P11045   0.657   1.872  10.297 -0.2128  0.0804 -0.2213
  108OSM    O1311046   0.616   1.744  10.358 -0.0278  0.0059 -0.0119
  108OSM    O1411047   0.669   1.991  10.386 -0.1149 -0.3418  0.0121
  108OSM    O1111048   0.565   1.910  10.177  0.5968 -0.0678  0.3741
  108OSM    O1211049   0.795   1.833  10.224  0.0609 -0.0243  0.0980
  108OSM    C1S11050   0.577   2.027  10.102 -0.2568 -0.8104  0.0904
  108OSM    H1S11051   0.679   2.071  10.103 -1.8099  3.1815 -3.3274
  108OSM    H1T11052   0.509   2.107  10.139  0.5870  0.1896 -0.5010
  108OSM     NF11053   0.575   2.119   9.876 -0.5066  0.0657 -0.1232
  108OSM    HNF11054   0.509   2.189   9.850  2.7147  2.5835 -1.9340
  108OSM    C2S11055   0.531   2.001   9.959 -0.4356  0.0696 -1.3069
  108OSM    H2S11056   0.591   1.918   9.917  0.7623 -0.2725  0.9948
  108OSM    C3S11057   0.378   1.967   9.950 -0.7675 -0.2329 -0.7343
  108OSM    H3S11058   0.328   2.048  10.007  0.6639 -1.0306  1.7635
  108OSM     O311059   0.351   1.835   9.999  0.2367 -0.4743  0.5173
  108OSM    HO311060   0.430   1.806  10.045  1.4022  0.3595 -0.9106
  108OSM    C4S11061   0.333   1.972   9.809  0.5528 -0.2618  0.6095
  108OSM    H4S11062   0.391   1.912   9.738 -1.0285 -1.9604  0.7247
  108OSM    C5S11063   0.217   2.028   9.774 -0.3475 -0.0036 -0.7168
  108OSM    H5S11064   0.155   2.063   9.857 -1.7886 -1.0286 -1.3468
  108OSM    C6S11065   0.158   2.028   9.637  0.0412 -1.2220  0.4625
  108OSM    H6S11066   0.050   2.043   9.656  0.4564 -0.9748  2.8036
  108OSM    H6T11067   0.177   1.929   9.590  0.5455 -0.8521 -0.1213
  108OSM    C7S11068   0.213   2.127   9.537  0.2292 -0.8539 -0.5205
  108OSM    H7S11069   0.321   2.112   9.519 -0.0378 -2.6575 -0.7788
  108OSM    H7T11070   0.182   2.226   9.576  1.7305 -0.1388 -1.1111
  108OSM    C8S11071   0.126   2.127   9.401  0.7403 -0.6817  0.3481
  108OSM    H8S11072   0.024   2.100   9.436  0.1226  1.2971  0.1661
  108OSM    H8T11073   0.173   2.057   9.329 -1.3072  0.4353 -2.1638
  108OSM    C9S11074   0.113   2.264   9.344 -0.3846 -0.8833  0.0690
  108OSM    H9S11075   0.061   2.331   9.417 -0.6961 -1.0124 -0.0310
  108OSM    H9T11076   0.054   2.255   9.250  0.6329 -1.2922 -0.5333
  108OSM   C10S11077   0.248   2.325   9.298  0.3835  0.7898 -0.6003
  108OSM   H10S11078   0.313   2.252   9.246 -1.0739  0.9516 -2.7130
  108OSM   H10T11079   0.301   2.354   9.391  0.0699 -0.9140  0.1275
  108OSM   C11S11080   0.233   2.462   9.225 -0.2631  0.5952 -0.3556
  108OSM   H11S11081   0.177   2.527   9.295  0.7150 -0.0986  1.0952
  108OSM   H11T11082   0.171   2.451   9.133  0.4861 -1.6780 -0.6099
  108OSM   C12S11083   0.372   2.510   9.197  0.4821  0.2069  0.0898
  108OSM   H12S11084   0.428   2.435   9.138  1.9500  0.7870  0.7102
  108OSM   H12T11085   0.414   2.537   9.296 -0.7351  1.1011  0.3833
  108OSM   C13S11086   0.366   2.630   9.107  0.4611 -0.5476  0.2639
  108OSM   H13S11087   0.457   2.688   9.133  0.0349  0.3140 -0.1201
  108OSM   H13T11088   0.289   2.708   9.128  0.9325 -0.1228  0.4266
  108OSM   C14S11089   0.346   2.595   8.954  0.0768 -0.2483 -0.0841
  108OSM   H14S11090   0.242   2.558   8.939 -1.6702  2.9095  3.2898
  108OSM   H14T11091   0.423   2.519   8.931  1.5495  1.4083 -0.7391
  108OSM   C15S11092   0.374   2.722   8.869  0.3980 -0.5613  0.1331
  108OSM   H15S11093   0.483   2.743   8.869  0.0909  1.1200  1.0221
  108OSM   H15T11094   0.311   2.805   8.908 -0.3546 -0.8389 -0.4710
  108OSM   C16S11095   0.332   2.701   8.724 -0.1632 -0.2969  0.5806
  108OSM   H16S11096   0.349   2.797   8.671 -2.8204  0.3485  0.8543
  108OSM   H16T11097   0.231   2.659   8.710  0.9233 -3.4365  1.6415
  108OSM   C17S11098   0.436   2.606   8.668 -0.1512  1.4626 -0.1311
  108OSM   H17S11099   0.423   2.504   8.710 -1.5552  1.1225 -1.3382
  108OSM   H17T11100   0.538   2.635   8.700  0.7522  0.7322 -2.2086
  108OSM   C18S11101   0.436   2.592   8.514  0.1820  0.5156  0.7370
  108OSM   H18S11102   0.358   2.537   8.457 -0.3817 -2.0301  3.8564
  108OSM   H18T11103   0.527   2.535   8.484 -0.6710 -0.7308  0.4553
  108OSM   H18U11104   0.456   2.690   8.466  1.8861 -0.3750 -0.4232
  108OSM    C1F11105   0.704   2.127   9.835  0.2081  0.1566  0.1619
  108OSM     OF11106   0.781   2.044   9.879 -0.4256  0.2396 -0.1021
  108OSM    C2F11107   0.745   2.224   9.729 -0.3131 -0.1895  0.2012
  108OSM    H2F11108   0.800   2.306   9.779  0.3118 -1.0946  1.0059
  108OSM    H2G11109   0.649   2.267   9.691 -0.3079 -2.2682 -2.3554
  108OSM    C3F11110   0.841   2.170   9.616  0.0038  0.0694 -0.1401
  108OSM    H3F11111   0.927   2.122   9.668 -1.3212 -1.1875  0.9001
  108OSM    H3G11112   0.877   2.250   9.548 -2.1440  1.0574 -0.1571
  108OSM    C4F11113   0.773   2.074   9.523  0.4660 -0.3737  0.2597
  108OSM    H4F11114   0.755   1.983   9.585  0.6461 -1.3612 -1.1145
  108OSM    H4G11115   0.839   2.036   9.442 -1.5220  0.3010 -1.7079
  108OSM    C5F11116   0.638   2.126   9.471  0.3680 -0.1344  0.5610
  108OSM    H5F11117   0.641   2.236   9.456 -0.5261 -0.3288 -1.1798
  108OSM    H5G11118   0.559   2.108   9.547  0.4742  0.9963  0.9438
  108OSM    C6F11119   0.590   2.053   9.340  0.0911 -0.2809 -0.4390
  108OSM    H6F11120   0.482   2.066   9.317  0.0850 -1.7137 -1.2555
  108OSM    H6G11121   0.610   1.945   9.361 -2.5626 -0.9565 -1.2186
  108OSM    C7F11122   0.659   2.106   9.211  0.8368 -0.0780 -0.1015
  108OSM    H7F11123   0.767   2.085   9.224  0.9363  0.5156  0.0127
  108OSM    H7G11124   0.649   2.216   9.198  2.2328  0.4189  2.7096
  108OSM    C8F11125   0.606   2.034   9.084  0.0588  0.2689  0.4299
  108OSM    H8F11126   0.597   1.923   9.087 -0.7583  0.3420  0.7319
  108OSM    H8G11127   0.687   2.065   9.014 -0.2381  0.7119  0.2788
  108OSM    C9F11128   0.468   2.073   9.034  0.6502  0.3221  0.6223
  108OSM    H9F11129   0.385   2.053   9.104 -1.4767  0.4043 -1.8104
  108OSM   C10F11130   0.429   2.124   8.911  0.6862 -0.4494  0.7056
  108OSM   H10F11131   0.326   2.160   8.894  0.5710 -0.6765  0.9191
  108OSM   C11F11132   0.525   2.160   8.802  0.2315  0.7772 -0.7035
  108OSM   H11F11133   0.628   2.162   8.843  0.5834 -3.0835 -1.1982
  108OSM   H11G11134   0.506   2.263   8.764 -1.0496  0.1771 -1.7197
  108OSM   C12F11135   0.531   2.058   8.685  0.2547  0.3999 -0.3696
  108OSM   H12F11136   0.531   1.956   8.728  0.1402  0.3801 -0.4159
  108OSM   H12G11137   0.615   2.080   8.616  1.0616 -0.1695  0.4291
  108OSM   C13F11138   0.395   2.072   8.601  0.4714 -0.4507 -0.4483
  108OSM   H13F11139   0.376   2.181   8.605 -0.2019 -0.5359 -1.0162
  108OSM   H13G11140   0.306   2.013   8.633  1.3438 -2.1638 -1.1296
  108OSM   C14F11141   0.410   2.047   8.444 -0.0408  0.2803 -0.1269
  108OSM   H14F11142   0.303   2.057   8.414 -0.1090  0.2577  0.1050
  108OSM   H14G11143   0.433   1.941   8.421 -0.3352 -0.0391  1.0111
  108OSM   C15F11144   0.505   2.147   8.373  0.4694 -0.0053  0.0412
  108OSM   H15F11145   0.608   2.143   8.415 -0.1792 -1.2695  1.5296
  108OSM   H15G11146   0.475   2.253   8.392  1.5378  0.4184 -0.5622
  108OSM   C16F11147   0.502   2.119   8.223 -0.0689  0.1710  0.1156
  108OSM   H16F11148   0.411   2.173   8.189 -1.5121 -1.9947  0.4188
  108OSM   H16G11149   0.494   2.010   8.206  1.7320  0.0469  0.0060
  108OSM   C17F11150   0.627   2.186   8.164 -0.2423  0.6965  0.0703
  108OSM   H17F11151   0.632   2.291   8.200 -0.1015  0.6615  0.1542
  108OSM   H17G11152   0.613   2.188   8.054  0.3215 -1.3696 -0.0627
  108OSM   C18F11153   0.758   2.113   8.193  0.5208 -0.4742 -0.8528
  108OSM   H18F11154   0.834   2.151   8.121 -1.2086  1.2658 -1.7992
  108OSM   H18G11155   0.746   2.005   8.171  0.9324 -0.7305  0.1678
  108OSM   H18H11156   0.778   2.125   8.302  3.4569 -0.4800 -1.3336
  109OSM      N11157   5.985   1.466  10.198 -0.9107 -0.1695 -0.4207
  109OSM    C1511158   6.046   1.460  10.336 -0.1545  0.4915 -0.4151
  109OSM   H15A11159   5.988   1.417  10.416  0.5338 -2.9295 -1.6374
  109OSM   H15B11160   6.075   1.558  10.370  0.6979 -0.3544  1.3881
  109OSM   H15C11161   6.145   1.417  10.332 -0.7855 -1.0118 -0.0212
  109OSM    C1411162   5.853   1.534  10.210  0.0302  0.8180  0.1132
  109OSM   H14A11163   5.869   1.634  10.247  1.4244  0.9795 -0.8790
  109OSM   H14B11164   5.798   1.484  10.289 -2.0391  1.6356 -0.7868
  109OSM   H14C11165   5.799   1.546  10.117 -0.7081 -0.2711  0.3995
  109OSM    C1311166   6.066   1.549  10.106  0.3486  0.4997  0.2233
  109OSM   H13A11167   6.089   1.640  10.160 -0.6691  0.9781 -0.1455
  109OSM   H13B11168   6.017   1.557  10.010 -2.5467  1.6164  1.7332
  109OSM   H13C11169   6.165   1.509  10.094  1.2742  2.6816  0.3849
  109OSM    C1211170   5.965   1.332  10.141 -0.3488  0.4057  0.1152
  109OSM   H12A11171   5.924   1.344  10.041  0.0833  0.7853 -0.0171
  109OSM   H12B11172   5.892   1.272  10.194  0.0990  0.9203  1.3125
  109OSM    C1111173   6.091   1.238  10.135  0.6965  0.4088  0.0249
  109OSM   H11A11174   6.052   1.149  10.082  0.5698 -0.2940  1.2780
  109OSM   H11B11175   6.118   1.201  10.237  1.9109 -0.5758 -0.6361
  109OSM      P11176   6.309   1.193  10.006  0.2319  0.1365 -0.0813
  109OSM    O1311177   6.438   1.217  10.080  0.0867 -0.0134  0.1765
  109OSM    O1411178   6.260   1.053   9.995  0.1315  0.0328  0.4775
  109OSM    O1111179   6.327   1.241   9.856 -0.5332 -0.6121  0.0332
  109OSM    O1211180   6.207   1.294  10.065 -0.2254 -0.0614 -0.4972
  109OSM    C1S11181   6.241   1.219   9.753  0.0880  0.8022 -0.5779
  109OSM    H1S11182   6.209   1.113   9.745 -0.8094  0.9602  0.7507
  109OSM    H1T11183   6.288   1.251   9.657  1.2904  0.0195 -0.2540
  109OSM     NF11184   6.027   1.283   9.656  0.0566 -0.1434 -0.5098
  109OSM    HNF11185   6.014   1.364   9.600  0.7799  0.2631 -0.0990
  109OSM    C2S11186   6.114   1.308   9.770 -0.4825  0.1055 -1.2412
  109OSM    H2S11187   6.051   1.291   9.860  1.0025 -0.7228 -0.3547
  109OSM    C3S11188   6.140   1.462   9.790 -0.5738 -0.2070 -0.4028
  109OSM    H3S11189   6.184   1.477   9.891  0.3947  1.5823 -1.0542
  109OSM     O311190   6.025   1.548   9.771 -0.6384  0.3272  0.1024
  109OSM    HO311191   5.952   1.492   9.742 -1.7262  1.5672  0.3769
  109OSM    C4S11192   6.256   1.505   9.701  0.0584 -0.6672 -0.3966
  109OSM    H4S11193   6.355   1.503   9.749  0.0533 -1.2394 -0.4101
  109OSM    C5S11194   6.246   1.549   9.574 -0.0954 -0.4875  0.1652
  109OSM    H5S11195   6.154   1.541   9.514 -0.4013  1.6021  0.3336
  109OSM    C6S11196   6.357   1.593   9.489  0.2232 -1.3501 -0.1900
  109OSM    H6S11197   6.429   1.518   9.449  1.9770  0.4681 -0.4905
  109OSM    H6T11198   6.418   1.667   9.545 -3.8984  1.5201  0.7053
  109OSM    C7S11199   6.301   1.663   9.361  0.0604 -0.1410 -0.4488
  109OSM    H7S11200   6.263   1.766   9.381  1.8018  0.4965 -0.2374
  109OSM    H7T11201   6.229   1.598   9.308  1.1180 -2.2677  0.6999
  109OSM    C8S11202   6.412   1.684   9.253  0.0799 -0.3691  0.2513
  109OSM    H8S11203   6.458   1.583   9.254  0.8906 -0.0007  0.5235
  109OSM    H8T11204   6.492   1.754   9.288 -1.0627  0.8815  0.4054
  109OSM    C9S11205   6.356   1.724   9.122  0.5659  0.5137  0.2029
  109OSM    H9S11206   6.296   1.817   9.134  1.2513  0.9183  0.4887
  109OSM    H9T11207   6.277   1.660   9.077  0.2811 -1.2050  3.0335
  109OSM   C10S11208   6.473   1.741   9.017  0.0663 -0.7008 -0.2405
  109OSM   H10S11209   6.491   1.639   8.977 -0.3938 -0.5065 -0.9547
  109OSM   H10T11210   6.562   1.774   9.075 -0.6999  1.3073 -0.1624
  109OSM   C11S11211   6.435   1.834   8.896 -0.2675  0.1287 -0.7793
  109OSM   H11S11212   6.519   1.830   8.823 -0.3830  0.8820 -0.9513
  109OSM   H11T11213   6.422   1.940   8.924 -0.0865  0.4939 -2.0231
  109OSM   C12S11214   6.310   1.771   8.824  0.3516 -0.0773 -0.2208
  109OSM   H12S11215   6.221   1.797   8.886  0.5430  2.8211 -1.0858
  109OSM   H12T11216   6.317   1.662   8.802  2.0922  0.6983 -3.8500
  109OSM   C13S11217   6.305   1.838   8.688  0.7067  0.4312  0.4995
  109OSM   H13S11218   6.400   1.838   8.631 -0.6236  0.2943 -1.7412
  109OSM   H13T11219   6.308   1.945   8.718 -0.3999  0.8377 -0.8242
  109OSM   C14S11220   6.181   1.810   8.600 -0.0924 -0.0214 -0.0726
  109OSM   H14S11221   6.080   1.827   8.645 -0.2263 -0.5333 -0.1740
  109OSM   H14T11222   6.171   1.704   8.568 -1.2433 -0.3765  1.4006
  109OSM   C15S11223   6.193   1.894   8.470 -0.2129  0.1000  0.0349
  109OSM   H15S11224   6.300   1.885   8.441 -0.5047  0.3937 -1.1815
  109OSM   H15T11225   6.184   2.001   8.498  3.4405  1.2403 -2.6599
  109OSM   C16S11226   6.096   1.866   8.355  0.3933 -0.6662  0.1688
  109OSM   H16S11227   5.997   1.870   8.406  0.5736 -1.0714  0.5492
  109OSM   H16T11228   6.101   1.762   8.315 -0.5221 -0.7421  0.2477
  109OSM   C17S11229   6.096   1.969   8.247 -0.5900 -0.6618 -0.1531
  109OSM   H17S11230   6.204   1.976   8.221 -0.3661 -1.2254  0.6267
  109OSM   H17T11231   6.058   2.070   8.271 -0.4455 -0.4175 -0.9085
  109OSM   C18S11232   6.031   1.928   8.113 -0.0623 -0.2101  0.2175
  109OSM   H18S11233   6.077   1.837   8.067  1.4236 -0.5435  2.2509
  109OSM   H18T11234   6.068   2.006   8.043  0.1039 -0.3804  0.1144
  109OSM   H18U11235   5.921   1.924   8.126 -0.0545 -0.7003  0.1575
  109OSM    C1F11236   5.983   1.161   9.618  0.1484  0.4899  0.1366
  109OSM     OF11237   5.972   1.071   9.704 -0.2892  0.0181  0.5491
  109OSM    C2F11238   5.952   1.141   9.473 -0.5901  0.5034  0.4176
  109OSM    H2F11239   5.844   1.164   9.462 -0.5686  1.3335  1.8478
  109OSM    H2G11240   5.982   1.036   9.454 -1.4377  0.6719 -2.0406
  109OSM    C3F11241   6.029   1.236   9.377 -0.1797  0.5993 -0.5262
  109OSM    H3F11242   6.137   1.226   9.401 -0.4737  0.1884  0.6567
  109OSM    H3G11243   6.000   1.343   9.370  0.2283  0.8874  1.8507
  109OSM    C4F11244   6.010   1.192   9.233 -0.0777  0.8703 -0.8321
  109OSM    H4F11245   5.904   1.172   9.208 -0.0741  0.1466 -0.3002
  109OSM    H4G11246   6.061   1.098   9.203  1.0340  1.4083 -0.6637
  109OSM    C5F11247   6.057   1.298   9.135  0.6645  0.1504 -0.2317
  109OSM    H5F11248   6.057   1.235   9.043  1.5510 -1.5446  0.9086
  109OSM    H5G11249   6.156   1.342   9.161  0.9327 -0.0737 -0.8596
  109OSM    C6F11250   5.957   1.405   9.102 -0.2676  0.5616 -0.5353
  109OSM    H6F11251   5.953   1.465   9.195  1.6848  2.1415 -1.4050
  109OSM    H6G11252   5.856   1.367   9.078  0.5986 -1.0021 -1.7871
  109OSM    C7F11253   6.014   1.494   8.989 -0.6038  0.6457 -0.0532
  109OSM    H7F11254   6.066   1.417   8.926 -1.0530  0.3243 -0.0332
  109OSM    H7G11255   6.085   1.565   9.035  2.1196 -0.5927 -2.1586
  109OSM    C8F11256   5.898   1.557   8.909 -0.2785 -0.3277  0.1133
  109OSM    H8F11257   5.842   1.469   8.868  1.2328 -0.7758 -1.0357
  109OSM    H8G11258   5.934   1.612   8.819  3.7223  0.9752  2.4115
  109OSM    C9F11259   5.815   1.647   8.995 -0.1231  0.4379  0.9101
  109OSM    H9F11260   5.836   1.644   9.103 -0.6363 -1.5547  0.9781
  109OSM   C10F11261   5.717   1.733   8.953 -0.2093 -0.1300  0.5163
  109OSM   H10F11262   5.652   1.783   9.027 -1.2199 -0.5919 -0.0385
  109OSM   C11F11263   5.678   1.752   8.809  0.3524  0.4826 -0.4933
  109OSM   H11F11264   5.567   1.754   8.808  0.3425  1.7549  0.7382
  109OSM   H11G11265   5.715   1.665   8.751  1.0720 -0.4516  1.3046
  109OSM   C12F11266   5.743   1.876   8.755 -0.1277 -0.0568 -0.2604
  109OSM   H12F11267   5.851   1.865   8.780  0.3622 -0.5834 -2.5378
  109OSM   H12G11268   5.714   1.973   8.802 -0.9567  0.9235 -2.7616
  109OSM   C13F11269   5.706   1.875   8.612 -0.2250  0.3093  0.3026
  109OSM   H13F11270   5.596   1.862   8.604 -0.1090  0.6439 -2.4746
  109OSM   H13G11271   5.748   1.784   8.565  0.5014  1.2474 -0.8971
  109OSM   C14F11272   5.755   2.001   8.534 -0.3477  0.0002  1.0057
  109OSM   H14F11273   5.864   1.981   8.532 -0.0973  1.3928  0.1902
  109OSM   H14G11274   5.741   2.089   8.600 -0.6648  0.8505 -0.1953
  109OSM   C15F11275   5.698   2.021   8.390 -0.3668 -0.1592 -0.5250
  109OSM   H15F11276   5.719   1.926   8.337  1.4203  0.6924 -1.3896
  109OSM   H15G11277   5.752   2.109   8.349 -2.7926  0.6488 -2.0883
  109OSM   C16F11278   5.552   2.062   8.386  0.0961  0.4095  0.7027
  109OSM   H16F11279   5.531   2.137   8.465 -1.6314  1.0445 -0.3273
  109OSM   H16G11280   5.500   1.968   8.415  2.0767 -0.6870  0.7263
  109OSM   C17F11281   5.523   2.126   8.248 -0.5166  0.0829 -0.7365
  109OSM   H17F11282   5.550   2.234   8.250 -0.2948  0.0151  0.0507
  109OSM   H17G11283   5.412   2.130   8.243 -0.6651  0.7871  2.2384
  109OSM   C18F11284   5.584   2.050   8.128  0.0329 -0.1446 -0.1819
  109OSM   H18F11285   5.693   2.072   8.121  0.4693 -2.6665 -1.8806
  109OSM   H18G11286   5.529   2.081   8.036 -0.7937 -0.5246  0.1730
  109OSM   H18H11287   5.564   1.942   8.144  0.5348 -0.1058  0.7315
  110OSM      N11288   5.916   6.688  10.200  0.2366  0.6269  0.2073
  110OSM    C1511289   5.790   6.622  10.236 -0.0700 -0.3536  0.4659
  110OSM   H15A11290   5.800   6.538  10.303  0.0272  0.2176  1.1861
  110OSM   H15B11291   5.739   6.601  10.144 -2.6480  2.0660  1.2702
  110OSM   H15C11292   5.723   6.690  10.288 -0.0501 -0.0139  0.0488
  110OSM    C1411293   6.004   6.721  10.322  0.2029  0.3411  0.3362
  110OSM   H14A11294   6.076   6.799  10.303 -1.8383  2.3806  0.7796
  110OSM   H14B11295   6.056   6.634  10.361 -0.4304 -1.7100 -3.1689
  110OSM   H14C11296   5.942   6.748  10.406  1.2837 -1.9284  1.9315
  110OSM    C1311297   5.996   6.600  10.119 -0.5071  0.4846  0.6959
  110OSM   H13A11298   6.012   6.504  10.166  2.7062 -0.2879 -1.7874
  110OSM   H13B11299   6.088   6.651  10.095 -0.7747  0.7538  0.2290
  110OSM   H13C11300   5.945   6.574  10.027 -0.3306  3.1745 -0.2018
  110OSM    C1211301   5.887   6.812  10.118 -0.1663  0.3623 -0.2759
  110OSM   H12A11302   5.972   6.867  10.081 -1.3041 -0.6893 -4.8256
  110OSM   H12B11303   5.837   6.886  10.178 -2.3849 -0.6269 -0.8398
  110OSM    C1111304   5.800   6.792   9.990 -0.8949 -0.7478  0.3092
  110OSM   H11A11305   5.833   6.704   9.931 -1.9001 -1.1175  0.2975
  110OSM   H11B11306   5.813   6.879   9.922  1.0897  0.0631  1.6831
  110OSM      P11307   5.577   6.917  10.040 -0.1664 -0.4065 -0.0596
  110OSM    O1311308   5.464   6.909  10.141  0.3822  0.0058 -0.0223
  110OSM    O1411309   5.668   7.035  10.061 -0.0095 -0.2650 -0.1766
  110OSM    O1111310   5.517   6.931   9.900  0.9665 -0.0813 -0.1831
  110OSM    O1211311   5.660   6.782  10.030  0.2315 -0.6383  1.1215
  110OSM    C1S11312   5.435   6.828   9.835  0.7153  0.1850  0.0904
  110OSM    H1S11313   5.340   6.809   9.890  1.2663 -0.8497  0.6944
  110OSM    H1T11314   5.485   6.729   9.840  1.9690  0.8673  1.3360
  110OSM     NF11315   5.294   6.781   9.646 -0.4015 -0.2199 -0.0197
  110OSM    HNF11316   5.323   6.700   9.596 -0.7587 -1.0898  1.1463
  110OSM    C2S11317   5.402   6.871   9.692 -0.1608 -0.2687  0.4039
  110OSM    H2S11318   5.365   6.976   9.699 -0.6074 -0.4965  1.5980
  110OSM    C3S11319   5.523   6.868   9.594  0.1485  0.1266  0.6346
  110OSM    H3S11320   5.547   6.764   9.563  0.8552  1.3734 -3.3551
  110OSM     O311321   5.651   6.920   9.636  0.1822 -0.0101 -0.8792
  110OSM    HO311322   5.638   6.933   9.730 -3.2363  1.0238 -1.3888
  110OSM    C4S11323   5.476   6.936   9.466  0.2318  0.2904 -0.3215
  110OSM    H4S11324   5.413   6.874   9.400  2.8981 -2.0662 -0.7357
  110OSM    C5S11325   5.503   7.062   9.427 -0.5058 -0.1590  0.3247
  110OSM    H5S11326   5.560   7.133   9.489 -0.3652 -0.7447  0.8787
  110OSM    C6S11327   5.459   7.130   9.295  0.1156  0.1928  0.0717
  110OSM    H6S11328   5.444   7.240   9.303  0.5003  0.2237  0.4247
  110OSM    H6T11329   5.366   7.087   9.252  1.7458 -2.3646 -1.0196
  110OSM    C7S11330   5.570   7.102   9.183  0.6772  0.0675 -0.1147
  110OSM    H7S11331   5.609   6.998   9.178 -2.0836 -1.0186  0.0367
  110OSM    H7T11332   5.651   7.163   9.230 -1.4166  3.8083 -1.2130
  110OSM    C8S11333   5.536   7.145   9.037 -0.6303 -0.4717  0.2688
  110OSM    H8S11334   5.506   7.251   9.042  1.3287  0.1466 -0.6583
  110OSM    H8T11335   5.442   7.092   9.011 -0.4549 -0.4290 -0.4883
  110OSM    C9S11336   5.649   7.111   8.929  0.2145  0.1857 -0.2256
  110OSM    H9S11337   5.668   7.003   8.944  1.1608  0.2969 -0.5973
  110OSM    H9T11338   5.742   7.154   8.972  0.1405 -1.9921  2.2483
  110OSM   C10S11339   5.608   7.151   8.783  0.1098 -0.3193  0.1578
  110OSM   H10S11340   5.697   7.129   8.719  0.5843  0.6459  0.4730
  110OSM   H10T11341   5.599   7.262   8.781  0.8885 -0.2408  0.7325
  110OSM   C11S11342   5.488   7.068   8.731  0.0828 -0.2462  0.3827
  110OSM   H11S11343   5.409   7.083   8.807  0.9317  0.1607  1.1908
  110OSM   H11T11344   5.506   6.959   8.735 -0.4640 -0.3146  0.9871
  110OSM   C12S11345   5.441   7.121   8.596  0.2334 -0.1758 -0.3026
  110OSM   H12S11346   5.404   7.226   8.604 -0.4602 -0.4493  0.1342
  110OSM   H12T11347   5.362   7.058   8.549  0.5552 -0.2829 -0.7078
  110OSM   C13S11348   5.539   7.117   8.480 -0.0464  0.1686 -0.4724
  110OSM   H13S11349   5.565   7.009   8.486  0.5227  0.3151 -0.3241
  110OSM   H13T11350   5.635   7.167   8.506 -0.6168  0.5504  0.8912
  110OSM   C14S11351   5.476   7.169   8.351  0.1662  0.2130  0.5969
  110OSM   H14S11352   5.478   7.280   8.361 -1.2239  0.3641 -0.6645
  110OSM   H14T11353   5.370   7.138   8.339 -0.0304  1.2937 -0.5793
  110OSM   C15S11354   5.551   7.130   8.221 -0.4584 -0.7114  0.4178
  110OSM   H15S11355   5.650   7.179   8.224 -1.2828  1.1542 -1.6535
  110OSM   H15T11356   5.495   7.176   8.137  0.1000  0.4317  0.6770
  110OSM   C16S11357   5.553   6.972   8.198  0.4602 -0.2775 -0.0955
  110OSM   H16S11358   5.447   6.938   8.204  1.1159 -1.9986  2.1918
  110OSM   H16T11359   5.613   6.922   8.276  0.4164 -1.8999 -1.0986
  110OSM   C17S11360   5.590   6.928   8.058 -0.1257  0.4450  1.0685
  110OSM   H17S11361   5.680   6.972   8.010 -0.8157  1.4426  0.6636
  110OSM   H17T11362   5.511   6.953   7.984  1.0482  0.0428 -0.3362
  110OSM   C18S11363   5.592   6.770   8.059 -0.1825 -0.3088  0.3215
  110OSM   H18S11364   5.592   6.736   7.953  1.5017  0.9080 -0.1055
  110OSM   H18T11365   5.499   6.743   8.113  0.8406 -0.0365  2.2675
  110OSM   H18U11366   5.679   6.730   8.115 -0.1044  0.0832  0.4846
  110OSM    C1F11367   5.169   6.786   9.679  0.2694  0.0753 -0.2475
  110OSM     OF11368   5.117   6.871   9.743 -0.3219  0.2658 -0.4463
  110OSM    C2F11369   5.072   6.668   9.643  0.1442 -0.2442  0.8505
  110OSM    H2F11370   5.001   6.663   9.728  0.9288  1.7974  1.6624
  110OSM    H2G11371   5.143   6.585   9.623  0.2488  0.2905 -1.1579
  110OSM    C3F11372   5.000   6.708   9.512  0.6636  0.0327  0.3268
  110OSM    H3F11373   4.937   6.796   9.541 -0.1696 -0.9591  1.5607
  110OSM    H3G11374   4.941   6.616   9.493 -1.5160  1.5080 -0.2718
  110OSM    C4F11375   5.092   6.737   9.393 -0.0936  0.3521  0.1164
  110OSM    H4F11376   5.170   6.658   9.385 -1.9728 -1.3388 -2.5294
  110OSM    H4G11377   5.142   6.836   9.401 -0.4572  0.6344 -1.0375
  110OSM    C5F11378   5.014   6.743   9.258 -0.2747  0.6137 -0.8620
  110OSM    H5F11379   4.922   6.804   9.265 -0.7257 -0.1344 -0.2120
  110OSM    H5G11380   4.979   6.638   9.245 -1.1100  0.6693  0.8587
  110OSM    C6F11381   5.095   6.797   9.141 -0.0876 -0.3058 -0.3079
  110OSM    H6F11382   5.197   6.754   9.134 -0.4336 -1.0342 -0.9681
  110OSM    H6G11383   5.106   6.907   9.153  0.6216 -0.3532 -0.4863
  110OSM    C7F11384   5.043   6.777   8.999  0.1697 -0.5542  0.3324
  110OSM    H7F11385   4.937   6.812   8.997  0.8165  1.4294  0.4652
  110OSM    H7G11386   5.036   6.673   8.960  3.1010 -0.4870 -0.4974
  110OSM    C8F11387   5.134   6.854   8.898 -0.3299  0.2127  0.3636
  110OSM    H8F11388   5.239   6.832   8.925 -0.5157  0.6396  1.4576
  110OSM    H8G11389   5.127   6.962   8.923 -1.7786  0.4701 -1.0865
  110OSM    C9F11390   5.088   6.818   8.755  0.2462 -0.1857  0.5525
  110OSM    H9F11391   5.117   6.718   8.721  1.6278  0.3640  0.0622
  110OSM   C10F11392   5.001   6.901   8.681 -0.9804 -0.1469  0.4230
  110OSM   H10F11393   4.950   6.856   8.594 -0.8284 -1.1590  0.8504
  110OSM   C11F11394   4.951   7.036   8.732  0.2680 -0.3092  0.4998
  110OSM   H11F11395   5.035   7.101   8.765  0.4606 -1.5845  2.6932
  110OSM   H11G11396   4.903   7.027   8.832  0.3747  1.9214  0.7633
  110OSM   C12F11397   4.856   7.108   8.638 -0.2011 -0.6416 -0.3540
  110OSM   H12F11398   4.834   7.206   8.685 -0.0824 -1.3780  1.2765
  110OSM   H12G11399   4.764   7.047   8.621 -1.3880  0.7439  0.8982
  110OSM   C13F11400   4.923   7.139   8.499  0.2171  0.6170  0.1235
  110OSM   H13F11401   4.841   7.134   8.424  0.5329 -1.7974 -0.0941
  110OSM   H13G11402   4.992   7.058   8.466 -0.7239  0.2038 -0.8714
  110OSM   C14F11403   4.978   7.284   8.477  0.1354  0.1512 -0.4327
  110OSM   H14F11404   4.912   7.337   8.548 -0.7983  1.1421 -2.0269
  110OSM   H14G11405   4.963   7.311   8.370  0.8526 -0.5944 -0.7305
  110OSM   C15F11406   5.128   7.291   8.506 -0.2369 -1.1425 -0.0957
  110OSM   H15F11407   5.186   7.202   8.476 -0.5405 -1.4291  0.1706
  110OSM   H15G11408   5.135   7.287   8.617 -1.9523 -0.3488  0.0577
  110OSM   C16F11409   5.182   7.427   8.458  0.0183  0.6245  0.2240
  110OSM   H16F11410   5.185   7.441   8.348  0.1559 -1.3252 -0.0393
  110OSM   H16G11411   5.286   7.446   8.492 -0.2446  1.1808  0.7253
  110OSM   C17F11412   5.097   7.539   8.519 -0.3110 -0.0094  0.2158
  110OSM   H17F11413   5.092   7.514   8.627  3.4666 -2.4686 -0.0736
  110OSM   H17G11414   4.997   7.548   8.472  1.0146  1.8363 -2.4164
  110OSM   C18F11415   5.160   7.675   8.503 -0.8041 -0.9885 -0.7708
  110OSM   H18F11416   5.139   7.737   8.413  0.7164 -0.4158 -0.7555
  110OSM   H18G11417   5.269   7.658   8.500 -0.5298 -0.0358  1.8568
  110OSM   H18H11418   5.125   7.735   8.590  0.9300 -1.0761  0.0013
  111OSM      N11419   7.193   5.706  10.047 -0.2309  0.2776  0.3294
  111OSM    C1511420   7.146   5.713   9.901 -0.1772  0.0391  0.2179
  111OSM   H15A11421   7.044   5.749   9.891 -0.7848 -1.6165  0.1819
  111OSM   H15B11422   7.145   5.616   9.854  0.4542  0.0031  0.2831
  111OSM   H15C11423   7.213   5.772   9.841  0.3510  2.3396  2.9855
  111OSM    C1411424   7.179   5.843  10.119 -0.0346  0.3293  0.0001
  111OSM   H14A11425   7.075   5.868  10.126 -0.5069 -1.0055 -1.8569
  111OSM   H14B11426   7.244   5.914  10.070 -0.5639  0.0902 -1.0551
  111OSM   H14C11427   7.222   5.832  10.218  0.4224  0.9218 -0.1281
  111OSM    C1311428   7.109   5.617  10.128  0.4392 -0.1600  0.1155
  111OSM   H13A11429   7.100   5.514  10.096 -1.6933 -0.0970  0.4441
  111OSM   H13B11430   7.014   5.663  10.150  1.3983  2.3475 -0.8508
  111OSM   H13C11431   7.151   5.613  10.227 -0.2025  0.5477  0.4212
  111OSM    C1211432   7.336   5.647  10.046  0.1349  0.0588 -0.1048
  111OSM   H12A11433   7.404   5.705   9.986  0.8949 -1.5093 -0.7759
  111OSM   H12B11434   7.340   5.551   9.997  0.3263 -1.1718  2.2520
  111OSM    C1111435   7.400   5.625  10.183  0.6593  0.0358 -0.6161
  111OSM   H11A11436   7.488   5.562  10.159 -0.9028 -2.7853  0.7639
  111OSM   H11B11437   7.331   5.568  10.250  0.4163 -0.2255 -1.0826
  111OSM      P11438   7.572   5.818  10.204 -0.0401 -0.5742 -0.2651
  111OSM    O1311439   7.564   5.963  10.244  0.1682  0.5647 -0.6465
  111OSM    O1411440   7.685   5.739  10.269  0.0656  0.1018  0.6049
  111OSM    O1111441   7.573   5.800  10.045  0.3131  0.1652  0.9254
  111OSM    O1211442   7.440   5.743  10.243  0.3390  0.1001  0.0498
  111OSM    C1S11443   7.663   5.708   9.985  0.0030 -0.0001  0.0421
  111OSM    H1S11444   7.643   5.605  10.021 -0.5135 -0.5854 -1.8745
  111OSM    H1T11445   7.769   5.718  10.015  0.2849 -1.3724 -0.4900
  111OSM     NF11446   7.691   5.555   9.787 -0.0368 -0.0408 -0.1304
  111OSM    HNF11447   7.785   5.538   9.761 -0.0345  0.2260 -0.3069
  111OSM    C2S11448   7.648   5.692   9.827 -1.2129 -0.4571 -0.7858
  111OSM    H2S11449   7.542   5.707   9.796 -1.6021 -0.0699  0.6938
  111OSM    C3S11450   7.730   5.808   9.759 -0.5149  0.1040 -0.8680
  111OSM    H3S11451   7.840   5.797   9.771 -0.4518  0.7127 -0.9177
  111OSM     O311452   7.691   5.934   9.811 -0.9817  0.3057 -0.6016
  111OSM    HO311453   7.628   5.919   9.882  2.6967  0.1623  2.7737
  111OSM    C4S11454   7.696   5.819   9.614  0.0450  0.3115  0.0389
  111OSM    H4S11455   7.601   5.862   9.580  1.3527  2.1784 -1.3518
  111OSM    C5S11456   7.787   5.786   9.516  0.6411 -0.9031 -0.1799
  111OSM    H5S11457   7.885   5.740   9.535  1.2248  0.5106  0.2733
  111OSM    C6S11458   7.747   5.799   9.368  0.2709 -0.0010 -0.0938
  111OSM    H6S11459   7.831   5.853   9.319  3.3347 -3.1370  1.4741
  111OSM    H6T11460   7.657   5.863   9.353  1.1772  0.9859 -1.4772
  111OSM    C7S11461   7.724   5.667   9.297  0.1896  0.2622  0.4600
  111OSM    H7S11462   7.624   5.642   9.338 -0.4595 -1.0999 -1.8580
  111OSM    H7T11463   7.793   5.581   9.310 -0.9354 -0.5533  1.1413
  111OSM    C8S11464   7.718   5.690   9.136  0.1271  0.1186 -0.2967
  111OSM    H8S11465   7.650   5.772   9.105  2.8010  1.6742 -2.2537
  111OSM    H8T11466   7.676   5.594   9.099  0.8422 -0.3906  0.1961
  111OSM    C9S11467   7.852   5.714   9.072 -0.4689  0.0898 -0.1306
  111OSM    H9S11468   7.904   5.624   9.034 -1.1598  0.3735 -1.7822
  111OSM    H9T11469   7.922   5.749   9.152  0.7166 -0.9125 -0.7134
  111OSM   C10S11470   7.857   5.818   8.957  0.1201 -0.1089  0.0408
  111OSM   H10S11471   7.823   5.917   8.994  1.2066  0.5845 -0.7659
  111OSM   H10T11472   7.775   5.786   8.889  2.6498 -1.6825 -2.3872
  111OSM   C11S11473   7.997   5.805   8.892  0.1875  0.0034 -0.2164
  111OSM   H11S11474   7.999   5.698   8.860 -0.3213  0.2121 -0.9778
  111OSM   H11T11475   8.065   5.810   8.979  0.5808  3.2036 -0.6606
  111OSM   C12S11476   8.033   5.908   8.787  0.1171  0.0400  0.2576
  111OSM   H12S11477   8.129   5.888   8.735 -0.0494 -0.9008  0.3075
  111OSM   H12T11478   8.060   6.001   8.842  0.4642  0.2830 -0.3257
  111OSM   C13S11479   7.929   5.906   8.678  0.1710 -0.3918  0.7647
  111OSM   H13S11480   7.828   5.937   8.712 -0.2643 -0.5489 -0.3646
  111OSM   H13T11481   7.918   5.799   8.650  0.0554 -0.0318 -0.6321
  111OSM   C14S11482   7.970   5.985   8.551  0.0648 -0.1675  0.6129
  111OSM   H14S11483   8.073   5.956   8.522  0.1312  1.5360 -1.0002
  111OSM   H14T11484   7.957   6.095   8.560 -0.5483 -0.2878  1.1751
  111OSM   C15S11485   7.874   5.938   8.438 -0.9256  0.2111 -0.3691
  111OSM   H15S11486   7.777   5.985   8.467 -1.3637 -0.4215 -0.7884
  111OSM   H15T11487   7.860   5.828   8.445  0.5189 -0.0842 -1.8185
  111OSM   C16S11488   7.930   5.972   8.294 -0.2045 -0.4135 -0.1619
  111OSM   H16S11489   7.999   5.887   8.273  1.3657  0.8370 -0.1189
  111OSM   H16T11490   7.990   6.065   8.294 -0.2547 -0.3791  1.0316
  111OSM   C17S11491   7.824   5.981   8.186  0.1023  0.1399  0.7522
  111OSM   H17S11492   7.866   6.047   8.107  0.9227  1.4056  2.1904
  111OSM   H17T11493   7.747   6.053   8.220  0.4125  0.5946  0.5074
  111OSM   C18S11494   7.760   5.860   8.125  0.1381  0.5873  0.6086
  111OSM   H18S11495   7.695   5.813   8.202 -0.8493  0.3622 -0.3564
  111OSM   H18T11496   7.841   5.784   8.119 -1.9793 -1.7109  0.2046
  111OSM   H18U11497   7.717   5.868   8.023 -0.7708  1.4221  1.0535
  111OSM    C1F11498   7.612   5.457   9.815  0.3905  0.8749 -0.0351
  111OSM     OF11499   7.497   5.483   9.855  0.1080  0.3202 -0.1780
  111OSM    C2F11500   7.662   5.312   9.793  0.1771 -0.6640 -0.1143
  111OSM    H2F11501   7.658   5.249   9.885  1.0418 -1.6151 -0.7169
  111OSM    H2G11502   7.772   5.307   9.774  0.0462  1.3360 -1.4985
  111OSM    C3F11503   7.581   5.236   9.679 -0.1060 -0.4284 -0.1084
  111OSM    H3F11504   7.475   5.207   9.694 -0.2082  0.3612  0.6917
  111OSM    H3G11505   7.638   5.143   9.660  1.2380  0.5997 -1.2644
  111OSM    C4F11506   7.576   5.320   9.543  0.2491  0.2497  0.0344
  111OSM    H4F11507   7.660   5.381   9.504 -0.7729  1.2988 -0.5792
  111OSM    H4G11508   7.487   5.385   9.559  1.7888  2.3025  0.4508
  111OSM    C5F11509   7.534   5.230   9.424  0.0120  0.4067 -0.4496
  111OSM    H5F11510   7.479   5.280   9.342 -0.0453  0.1557 -0.5626
  111OSM    H5G11511   7.474   5.146   9.465  2.0178 -0.0896  1.6079
  111OSM    C6F11512   7.671   5.169   9.373  0.2460 -0.1521 -0.4432
  111OSM    H6F11513   7.705   5.093   9.446  0.0123  0.1948  0.0248
  111OSM    H6G11514   7.747   5.249   9.386  0.5505 -0.7571  1.6868
  111OSM    C7F11515   7.661   5.115   9.231  0.2237  0.1695  0.0089
  111OSM    H7F11516   7.575   5.044   9.230  0.5007 -0.1801  0.8217
  111OSM    H7G11517   7.752   5.054   9.212  1.4339  1.1427  2.5176
  111OSM    C8F11518   7.643   5.218   9.119  0.5351  0.4046 -0.8582
  111OSM    H8F11519   7.557   5.280   9.153  2.8421  2.4878  1.4554
  111OSM    H8G11520   7.606   5.163   9.030  0.6481  1.3346 -1.4741
  111OSM    C9F11521   7.767   5.301   9.105 -0.6793 -0.4214 -0.2142
  111OSM    H9F11522   7.802   5.364   9.188 -1.4069 -2.1973  1.4763
  111OSM   C10F11523   7.841   5.294   8.999 -0.0683 -0.1484 -0.1562
  111OSM   H10F11524   7.903   5.381   8.974 -0.4545  0.3840  0.7128
  111OSM   C11F11525   7.810   5.200   8.881 -0.4925  0.0450  0.7346
  111OSM   H11F11526   7.716   5.219   8.825  0.4004  0.0248 -0.7802
  111OSM   H11G11527   7.801   5.093   8.910 -2.9059  0.7947  2.9476
  111OSM   C12F11528   7.916   5.207   8.766  0.3337  0.3244  0.0899
  111OSM   H12F11529   8.015   5.223   8.812 -0.3218  0.7569  1.3709
  111OSM   H12G11530   7.893   5.293   8.698 -2.2184 -2.6197 -2.9765
  111OSM   C13F11531   7.902   5.088   8.663 -0.0999 -0.6336  0.3820
  111OSM   H13F11532   7.808   5.093   8.604  0.5276 -2.6664 -0.8292
  111OSM   H13G11533   7.892   4.992   8.717 -0.6642 -0.5981  0.3499
  111OSM   C14F11534   8.017   5.091   8.564 -0.9220  0.6711 -0.2216
  111OSM   H14F11535   8.114   5.069   8.613 -0.4252 -0.8324 -1.8073
  111OSM   H14G11536   8.037   5.193   8.527 -0.3249  1.1738  1.4600
  111OSM   C15F11537   8.007   4.991   8.444  0.4208  1.0011  0.1898
  111OSM   H15F11538   7.934   4.912   8.474  1.1570  0.1623 -0.2082
  111OSM   H15G11539   8.099   4.933   8.423 -0.2153 -0.1541  0.5655
  111OSM   C16F11540   7.965   5.062   8.318  0.3443 -0.4744  0.1156
  111OSM   H16F11541   8.040   5.135   8.282 -0.1757 -0.8827 -1.8232
  111OSM   H16G11542   7.872   5.120   8.341  1.0901  1.3373 -1.2931
  111OSM   C17F11543   7.940   4.956   8.200 -1.1274 -0.1988  0.5115
  111OSM   H17F11544   7.927   4.862   8.258  1.9258 -1.4655 -0.7279
  111OSM   H17G11545   8.035   4.933   8.147 -1.0812 -0.8861  0.8889
  111OSM   C18F11546   7.832   4.987   8.093  0.4740 -0.4489  0.1571
  111OSM   H18F11547   7.764   5.067   8.129  2.8931  1.8105 -0.1220
  111OSM   H18G11548   7.770   4.899   8.066 -0.3705  0.8841 -2.3789
  111OSM   H18H11549   7.880   5.041   8.009 -1.7886  0.6053 -0.4984
  112OSM      N11550   0.118   2.641  10.334 -1.1389 -0.0323  0.3925
  112OSM    C1511551   0.247   2.580  10.302 -0.3603 -0.4025  0.3170
  112OSM   H15A11552   0.268   2.493  10.361 -0.4128 -0.1356  0.7343
  112OSM   H15B11553   0.324   2.644  10.343  1.3326 -2.5990  0.6034
  112OSM   H15C11554   0.263   2.572  10.196  2.2742 -0.5090  0.6849
  112OSM    C1411555   0.072   2.591  10.468 -0.8769 -0.1328 -0.3038
  112OSM   H14A11556  -0.010   2.657  10.492 -0.0367  0.3989  1.1728
  112OSM   H14B11557   0.145   2.598  10.547 -0.1617 -1.1682 -0.8499
  112OSM   H14C11558   0.037   2.489  10.477 -1.2904  0.2088  2.5146
  112OSM    C1311559   0.127   2.792  10.336 -0.5499 -0.0384 -0.1222
  112OSM   H13A11560   0.169   2.832  10.245 -2.8288 -0.8543 -1.5811
  112OSM   H13B11561   0.199   2.820  10.412  1.1868 -1.9717 -0.9871
  112OSM   H13C11562   0.042   2.852  10.365 -0.1596  1.4317 -1.9507
  112OSM    C1211563   0.012   2.610  10.235 -0.4299  0.5672  0.2111
  112OSM   H12A11564  -0.077   2.666  10.260 -1.1345 -0.7990  0.8575
  112OSM   H12B11565  -0.010   2.504  10.234  1.9886  0.0247  0.2481
  112OSM    C1111566   0.053   2.623  10.082  0.1713 -0.2220  0.1036
  112OSM   H11A11567   0.101   2.723  10.077  0.3167 -0.2611  0.6589
  112OSM   H11B11568  -0.041   2.615  10.023 -0.0574 -0.1415  0.4527
  112OSM      P11569   0.094   2.367  10.038 -0.0812  0.1188  0.4514
  112OSM    O1311570   0.222   2.290  10.051  0.4957  0.1205 -0.1507
  112OSM    O1411571  -0.004   2.329  10.146  0.4017 -0.3374  0.5193
  112OSM    O1111572   0.025   2.347   9.903 -0.0070 -0.4690 -0.1586
  112OSM    O1211573   0.137   2.516  10.037 -0.2133  0.1076  0.2115
  112OSM    C1S11574  -0.006   2.452   9.809  0.2900 -0.2233 -0.4239
  112OSM    H1S11575   0.078   2.512   9.769  0.0704  0.2522 -0.1743
  112OSM    H1T11576  -0.081   2.522   9.851 -1.1451 -1.8433 -0.2318
  112OSM     NF11577  -0.119   2.513   9.606  1.0337  0.2885 -0.3304
  112OSM    HNF11578  -0.213   2.546   9.603  0.3911 -1.1651  2.3587
  112OSM    C2S11579  -0.086   2.396   9.688  0.6040  0.1020 -0.3612
  112OSM    H2S11580  -0.029   2.322   9.629 -0.2918 -0.5943 -0.3525
  112OSM    C3S11581  -0.205   2.317   9.754  0.1479  0.6062  0.6618
  112OSM    H3S11582  -0.240   2.380   9.838  0.4957 -0.1390  1.3736
  112OSM     O311583  -0.164   2.193   9.825  0.2984  0.4155  0.2135
  112OSM    HO311584  -0.069   2.202   9.840  0.4400 -0.3626 -0.1637
  112OSM    C4S11585  -0.310   2.283   9.642 -0.4155 -0.3746 -0.4104
  112OSM    H4S11586  -0.407   2.333   9.656 -0.4066 -0.5746  0.3896
  112OSM    C5S11587  -0.286   2.199   9.542 -0.4803  0.4813 -0.3232
  112OSM    H5S11588  -0.188   2.152   9.524  0.3970  1.6465  1.2751
  112OSM    C6S11589  -0.387   2.183   9.432  0.1791  0.2049  0.5964
  112OSM    H6S11590  -0.476   2.250   9.438  0.4402  0.5966  0.1839
  112OSM    H6T11591  -0.426   2.081   9.451  1.5932 -0.1572  1.6679
  112OSM    C7S11592  -0.329   2.193   9.293  0.3539 -1.0799 -0.8593
  112OSM    H7S11593  -0.398   2.162   9.211 -0.6245 -0.2382 -0.3650
  112OSM    H7T11594  -0.250   2.119   9.269  1.0773  0.5878 -3.8153
  112OSM    C8S11595  -0.271   2.330   9.258 -0.2346  0.3268  0.0244
  112OSM    H8S11596  -0.183   2.343   9.323  0.0798  0.3179 -0.3961
  112OSM    H8T11597  -0.340   2.416   9.272  1.0498  0.9665  2.7443
  112OSM    C9S11598  -0.219   2.338   9.110 -0.2694 -1.2809 -0.3474
  112OSM    H9S11599  -0.300   2.326   9.034  0.5271 -2.3132 -1.0343
  112OSM    H9T11600  -0.164   2.245   9.084 -0.9359 -1.4828 -1.0553
  112OSM   C10S11601  -0.139   2.468   9.088 -0.8062 -0.5800 -0.1668
  112OSM   H10S11602  -0.063   2.491   9.166 -0.7448 -0.2442 -0.3246
  112OSM   H10T11603  -0.204   2.557   9.103  1.5581  1.2216 -0.3065
  112OSM   C11S11604  -0.072   2.461   8.948  0.5797  0.1887 -0.1967
  112OSM   H11S11605  -0.003   2.546   8.930  0.2694  0.4685 -0.0788
  112OSM   H11T11606  -0.155   2.486   8.878  0.5077 -1.8722 -0.8835
  112OSM   C12S11607  -0.005   2.322   8.917 -0.8062 -0.3043  0.4267
  112OSM   H12S11608  -0.079   2.241   8.898  1.6741 -2.2379 -1.4404
  112OSM   H12T11609   0.050   2.286   9.006  2.2081  2.0598 -0.4063
  112OSM   C13S11610   0.097   2.333   8.796 -0.2514  0.4677  0.4118
  112OSM   H13S11611   0.125   2.226   8.782  2.6340  1.4109 -1.2950
  112OSM   H13T11612   0.181   2.400   8.821  0.1247  0.4349 -0.7206
  112OSM   C14S11613   0.033   2.389   8.666  0.5289 -0.2863 -0.5760
  112OSM   H14S11614   0.031   2.499   8.660  0.8872 -0.2594 -0.2239
  112OSM   H14T11615  -0.071   2.347   8.669  0.0690  0.8399 -0.6856
  112OSM   C15S11616   0.112   2.348   8.546  0.1605  0.2991  0.0888
  112OSM   H15S11617   0.092   2.240   8.528 -1.1586  0.9703 -2.7786
  112OSM   H15T11618   0.219   2.370   8.565  0.4460 -1.0659  0.1152
  112OSM   C16S11619   0.062   2.411   8.419  0.1699 -0.1585  0.1699
  112OSM   H16S11620   0.087   2.519   8.432 -0.9222  0.1325 -0.1011
  112OSM   H16T11621  -0.049   2.411   8.432 -0.0518 -0.4525 -1.6750
  112OSM   C17S11622   0.115   2.350   8.286 -0.1827  0.4634 -0.4600
  112OSM   H17S11623   0.226   2.355   8.289 -0.2305  0.8713  1.2550
  112OSM   H17T11624   0.084   2.418   8.203  0.6340 -0.6481 -1.6892
  112OSM   C18S11625   0.082   2.210   8.228  0.4657 -0.9808  0.0989
  112OSM   H18S11626   0.110   2.125   8.295 -0.6888 -2.6196 -1.4600
  112OSM   H18T11627   0.136   2.195   8.132  2.1890 -0.2020  0.9174
  112OSM   H18U11628  -0.024   2.211   8.196  0.5076  0.9888  0.0145
  112OSM    C1F11629  -0.026   2.584   9.544 -1.0324  0.1616 -0.3104
  112OSM     OF11630   0.089   2.545   9.528 -0.3972  0.0013 -0.3638
  112OSM    C2F11631  -0.074   2.711   9.482 -0.6694 -0.1372  0.4312
  112OSM    H2F11632  -0.108   2.776   9.565 -1.5665 -0.5230  0.3749
  112OSM    H2G11633  -0.161   2.690   9.416 -0.8329 -0.0582  0.6201
  112OSM    C3F11634   0.035   2.785   9.399  0.3370 -0.2204 -0.5594
  112OSM    H3F11635   0.051   2.717   9.313  4.6961 -2.9153  2.1442
  112OSM    H3G11636   0.131   2.782   9.456  0.0131  0.8359  0.0514
  112OSM    C4F11637   0.005   2.928   9.354  0.1653  0.1180  0.3133
  112OSM    H4F11638   0.094   2.978   9.310  2.0561 -1.8039  1.8183
  112OSM    H4G11639  -0.008   2.992   9.444 -1.4328 -1.4039  1.1998
  112OSM    C5F11640  -0.122   2.941   9.266 -0.2754  0.3077 -0.6011
  112OSM    H5F11641  -0.135   3.048   9.242  0.6639  0.3800 -0.8100
  112OSM    H5G11642  -0.212   2.912   9.324 -0.0710 -0.6954 -0.7695
  112OSM    C6F11643  -0.103   2.865   9.131 -0.8956 -0.0954 -0.6867
  112OSM    H6F11644  -0.126   2.759   9.151 -0.6882  0.6312  3.8476
  112OSM    H6G11645   0.003   2.889   9.105 -0.4807 -0.8445  0.2899
  112OSM    C7F11646  -0.196   2.902   9.016 -0.9293 -0.5151  0.4253
  112OSM    H7F11647  -0.192   3.012   9.002 -1.1182 -0.7531 -1.5698
  112OSM    H7G11648  -0.300   2.884   9.053 -1.1591 -3.5554 -1.5420
  112OSM    C8F11649  -0.172   2.823   8.886  0.3350  0.3141  0.6412
  112OSM    H8F11650  -0.262   2.831   8.821 -0.8813  1.8943  2.4330
  112OSM    H8G11651  -0.157   2.715   8.909 -1.7162 -0.4446 -1.4254
  112OSM    C9F11652  -0.053   2.877   8.820 -1.0766 -0.1875  0.4416
  112OSM    H9F11653   0.044   2.877   8.872 -1.0481 -1.0382  0.4012
  112OSM   C10F11654  -0.048   2.924   8.695 -0.0037  0.2621 -0.7620
  112OSM   H10F11655   0.047   2.971   8.664 -0.0490  0.4333 -0.6409
  112OSM   C11F11656  -0.160   2.934   8.591 -0.6813 -0.1971 -0.5251
  112OSM   H11F11657  -0.161   3.040   8.558 -1.4714 -0.3075 -0.8706
  112OSM   H11G11658  -0.257   2.897   8.632  0.2485 -2.6125 -0.4504
  112OSM   C12F11659  -0.136   2.850   8.470 -0.1132  0.5261  0.2488
  112OSM   H12F11660  -0.225   2.848   8.403  1.5261 -2.1461 -1.9811
  112OSM   H12G11661  -0.133   2.744   8.504  0.5939  0.6853  0.6957
  112OSM   C13F11662  -0.005   2.881   8.396  0.1878  0.7029 -0.1621
  112OSM   H13F11663   0.087   2.854   8.452  0.2242  0.5400 -0.2974
  112OSM   H13G11664   0.001   2.991   8.380  0.7415  0.3154 -2.8339
  112OSM   C14F11665  -0.007   2.823   8.248 -0.0646 -0.2842 -0.8669
  112OSM   H14F11666  -0.110   2.837   8.208 -0.5792  0.5468  0.7370
  112OSM   H14G11667   0.001   2.712   8.247  2.3240 -0.1469 -0.6945
  112OSM   C15F11668   0.084   2.892   8.140 -0.5810 -0.1020 -0.6655
  112OSM   H15F11669   0.037   2.993   8.134  0.9777  0.7215  0.7783
  112OSM   H15G11670   0.076   2.834   8.046  1.9847 -0.0088 -0.9559
  112OSM   C16F11671   0.227   2.907   8.190  0.2611  0.5984  0.2806
  112OSM   H16F11672   0.242   2.957   8.288  4.2876 -2.5484  1.4077
  112OSM   H16G11673   0.285   2.974   8.122 -1.1485  1.3463 -0.2159
  112OSM   C17F11674   0.299   2.773   8.193 -0.0115 -0.5446 -0.4133
  112OSM   H17F11675   0.253   2.701   8.122 -0.3453 -1.6010  0.8527
  112OSM   H17G11676   0.282   2.740   8.297 -2.8598  0.4929 -0.5053
  112OSM   C18F11677   0.450   2.788   8.187  0.0747  0.5787  0.3868
  112OSM   H18F11678   0.482   2.685   8.161 -3.4457  0.0521 -2.3297
  112OSM   H18G11679   0.495   2.834   8.278  0.3970  0.9996  0.0164
  112OSM   H18H11680   0.472   2.856   8.102  1.7932 -0.1928  0.2068
  113OSM      N11681   0.001   1.919  10.142  0.0537 -0.5896  0.6082
  113OSM    C1511682  -0.078   2.023  10.077 -0.4237  0.2532 -0.6917
  113OSM   H15A11683  -0.012   2.084  10.017  0.4402  1.2261  1.2081
  113OSM   H15B11684  -0.121   2.081  10.157 -0.5496 -0.3988 -0.2901
  113OSM   H15C11685  -0.161   1.983  10.020 -1.1485 -0.3547  0.7918
  113OSM    C1411686   0.122   1.986  10.198 -0.1713  0.4267  0.5855
  113OSM   H14A11687   0.170   1.914  10.264 -0.4213 -0.9215 -0.6693
  113OSM   H14B11688   0.095   2.065  10.267 -1.9041 -0.2710  0.7430
  113OSM   H14C11689   0.187   2.021  10.119 -1.1449  2.1311  0.5305
  113OSM    C1311690  -0.078   1.849  10.248  0.6827  0.1890 -1.0930
  113OSM   H13A11691  -0.140   1.917  10.304  0.9042 -1.0608  0.7188
  113OSM   H13B11692  -0.018   1.792  10.317 -0.2998  0.3021 -0.1399
  113OSM   H13C11693  -0.149   1.787  10.194 -1.8120  1.9310  0.0660
  113OSM    C1211694   0.032   1.825  10.031 -0.4133 -0.0674  0.2664
  113OSM   H12A11695   0.092   1.747  10.075  0.1055  1.2107  1.8747
  113OSM   H12B11696   0.100   1.877   9.965 -0.4026 -0.6790 -0.2054
  113OSM    C1111697  -0.086   1.775   9.932  0.3741 -0.5697 -0.3482
  113OSM   H11A11698  -0.045   1.703   9.857 -1.3103 -0.1637 -1.6772
  113OSM   H11B11699  -0.120   1.863   9.873 -3.0855 -3.4633 -2.8167
  113OSM      P11700  -0.339   1.709   9.947  0.2251 -0.2162 -0.0037
  113OSM    O1311701  -0.413   1.588   9.990  0.2933  0.0671  0.1348
  113OSM    O1411702  -0.406   1.838   9.985 -0.1334 -0.0011 -0.2318
  113OSM    O1111703  -0.328   1.708   9.789  0.5822  0.6511 -0.0586
  113OSM    O1211704  -0.188   1.698   9.996  0.2229  0.1495  0.9680
  113OSM    C1S11705  -0.279   1.595   9.724  0.1757 -0.1259  0.3953
  113OSM    H1S11706  -0.342   1.505   9.740 -0.9013  0.7314  1.1194
  113OSM    H1T11707  -0.179   1.563   9.761 -0.0346  2.2612  3.1878
  113OSM     NF11708  -0.169   1.506   9.521 -0.3058 -0.3472  0.3327
  113OSM    HNF11709  -0.071   1.520   9.517 -0.0672 -2.2624 -1.2000
  113OSM    C2S11710  -0.242   1.617   9.576  0.7065  0.0302 -0.6131
  113OSM    H2S11711  -0.334   1.625   9.514  1.4358  0.4102 -1.6585
  113OSM    C3S11712  -0.162   1.751   9.562  0.0784 -0.1717  0.1376
  113OSM    H3S11713  -0.068   1.742   9.620  0.8886  1.5779 -0.8628
  113OSM     O311714  -0.221   1.866   9.613  0.4273 -0.5134 -0.1645
  113OSM    HO311715  -0.288   1.835   9.674  1.5942  0.1230  1.4927
  113OSM    C4S11716  -0.125   1.783   9.422 -0.6383 -0.4263 -0.0826
  113OSM    H4S11717  -0.018   1.792   9.398 -0.3029 -0.7010  1.2539
  113OSM    C5S11718  -0.213   1.822   9.326 -0.1490 -0.6078 -0.8242
  113OSM    H5S11719  -0.321   1.824   9.344 -0.4121 -2.0107 -2.1753
  113OSM    C6S11720  -0.174   1.851   9.184 -0.4477  0.1824  0.0076
  113OSM    H6S11721  -0.106   1.939   9.188  0.4484 -0.4914 -0.0880
  113OSM    H6T11722  -0.270   1.857   9.130 -1.5655  1.0017  2.0241
  113OSM    C7S11723  -0.103   1.739   9.118 -0.2892  0.9214  0.1866
  113OSM    H7S11724  -0.165   1.647   9.117  0.6940  0.2404 -2.2713
  113OSM    H7T11725  -0.006   1.719   9.167  0.4244  0.9203 -1.2086
  113OSM    C8S11726  -0.065   1.777   8.969 -0.1421 -0.6509  0.4436
  113OSM    H8S11727   0.020   1.709   8.947 -1.2325 -1.9144  0.0455
  113OSM    H8T11728  -0.040   1.885   8.969  1.9314 -1.1066 -1.3004
  113OSM    C9S11729  -0.156   1.723   8.853  0.8276  0.7633  0.0406
  113OSM    H9S11730  -0.249   1.783   8.856  0.1870 -0.1423 -1.2145
  113OSM    H9T11731  -0.185   1.621   8.884 -1.8385  1.5212  0.1215
  113OSM   C10S11732  -0.093   1.725   8.715 -0.0520 -0.6833 -0.0366
  113OSM   H10S11733  -0.140   1.665   8.634  0.7300  0.1487 -1.1197
  113OSM   H10T11734   0.012   1.690   8.725  0.0099 -1.0056 -1.6008
  113OSM   C11S11735  -0.075   1.867   8.659  0.5035  0.8252 -0.3211
  113OSM   H11S11736   0.014   1.878   8.594  0.4251  1.7256 -0.2767
  113OSM   H11T11737  -0.048   1.936   8.742 -1.7491  0.7927  0.4733
  113OSM   C12S11738  -0.198   1.909   8.580 -0.8561  0.1897 -0.7428
  113OSM   H12S11739  -0.271   1.944   8.657 -0.2385 -0.0855 -0.0226
  113OSM   H12T11740  -0.247   1.823   8.530  1.2524 -1.1747 -0.5237
  113OSM   C13S11741  -0.172   2.028   8.478 -0.7866  0.4181  0.2564
  113OSM   H13S11742  -0.111   2.001   8.389 -1.0377  1.2366 -0.1622
  113OSM   H13T11743  -0.139   2.118   8.534  0.0598 -0.3982  1.1057
  113OSM   C14S11744  -0.301   2.072   8.413 -0.5520 -0.5749  0.0685
  113OSM   H14S11745  -0.370   2.114   8.489  1.1263  0.9012  0.8269
  113OSM   H14T11746  -0.351   1.979   8.378 -2.7274  0.5464  0.1064
  113OSM   C15S11747  -0.283   2.161   8.294  0.9494  0.8906  0.2830
  113OSM   H15S11748  -0.214   2.111   8.223  0.6246 -1.6158  1.7084
  113OSM   H15T11749  -0.237   2.260   8.316  1.4750  0.3106  1.8700
  113OSM   C16S11750  -0.420   2.162   8.223  0.3021 -0.4564 -0.5222
  113OSM   H16S11751  -0.498   2.184   8.300  0.0924  0.6573 -1.0436
  113OSM   H16T11752  -0.454   2.064   8.184 -0.2477 -0.0703 -1.0226
  113OSM   C17S11753  -0.428   2.258   8.105 -0.1272  0.2619 -0.1838
  113OSM   H17S11754  -0.361   2.220   8.025  3.7778  0.5987  2.7856
  113OSM   H17T11755  -0.394   2.358   8.140 -2.2578  1.6815 -2.0256
  113OSM   C18S11756  -0.569   2.275   8.044  0.1028  0.7776  0.4407
  113OSM   H18S11757  -0.558   2.369   7.986  1.1462  0.8146  0.6780
  113OSM   H18T11758  -0.641   2.291   8.127  0.6980 -0.3802  1.1948
  113OSM   H18U11759  -0.594   2.187   7.981 -0.5300  2.3799 -1.6193
  113OSM    C1F11760  -0.225   1.390   9.486 -0.3758 -0.2176 -0.1810
  113OSM     OF11761  -0.346   1.380   9.477 -0.1764  0.2344  0.2651
  113OSM    C2F11762  -0.129   1.272   9.474 -0.1969 -0.2073 -0.4248
  113OSM    H2F11763  -0.189   1.181   9.498 -3.1401  1.8267  0.2319
  113OSM    H2G11764  -0.046   1.295   9.544 -1.5646  0.3714  1.0342
  113OSM    C3F11765  -0.085   1.266   9.325 -0.4926 -0.2789 -0.3765
  113OSM    H3F11766  -0.170   1.241   9.257  1.3934 -1.2278 -2.4521
  113OSM    H3G11767  -0.020   1.176   9.317 -0.4735 -0.4805  1.8774
  113OSM    C4F11768  -0.008   1.390   9.274  0.1770 -0.2950  0.5024
  113OSM    H4F11769   0.077   1.421   9.338 -0.4211  0.9747  0.6877
  113OSM    H4G11770  -0.088   1.466   9.263  0.1244 -0.4117  0.0726
  113OSM    C5F11771   0.054   1.371   9.131 -0.0949 -0.1640 -0.2554
  113OSM    H5F11772   0.121   1.283   9.137 -0.1215 -0.1101  1.0383
  113OSM    H5G11773   0.120   1.457   9.105  0.3654 -0.9334 -1.6756
  113OSM    C6F11774  -0.057   1.350   9.028  0.4296  0.0941 -0.0363
  113OSM    H6F11775  -0.109   1.445   9.004  0.1714  0.5130  2.0226
  113OSM    H6G11776  -0.137   1.278   9.053 -0.6440  0.6194 -1.8888
  113OSM    C7F11777   0.004   1.292   8.897 -0.3697 -0.0852 -0.0074
  113OSM    H7F11778   0.050   1.193   8.916  0.5551  0.4841  0.8050
  113OSM    H7G11779   0.093   1.354   8.872  0.0080 -0.1521  1.1214
  113OSM    C8F11780  -0.095   1.286   8.774  0.9193 -0.6474 -0.2853
  113OSM    H8F11781  -0.115   1.391   8.743 -2.5504 -0.4815  2.2792
  113OSM    H8G11782  -0.187   1.243   8.820 -0.0735 -1.2440 -2.7184
  113OSM    C9F11783  -0.058   1.200   8.657 -0.4841 -0.0296  0.2049
  113OSM    H9F11784  -0.064   1.092   8.672 -1.2616  0.0860  0.7662
  113OSM   C10F11785  -0.012   1.239   8.535 -0.1572 -0.1527  0.2760
  113OSM   H10F11786   0.024   1.172   8.455  0.3868  1.1213 -0.5553
  113OSM   C11F11787   0.009   1.380   8.489 -0.2668 -0.2291  0.1692
  113OSM   H11F11788   0.110   1.389   8.443 -0.4980 -0.6599 -0.4218
  113OSM   H11G11789   0.010   1.458   8.569  2.9562 -0.4359  0.3877
  113OSM   C12F11790  -0.090   1.416   8.367 -0.1749 -0.0802 -0.1065
  113OSM   H12F11791  -0.195   1.407   8.401 -0.2077  1.1191  0.1151
  113OSM   H12G11792  -0.076   1.347   8.280 -0.3492 -1.0784  0.6486
  113OSM   C13F11793  -0.074   1.561   8.308 -0.0041 -0.4784 -0.3151
  113OSM   H13F11794   0.035   1.583   8.306 -0.1670  0.4348  0.3932
  113OSM   H13G11795  -0.133   1.632   8.371  2.0486 -0.2001  1.3531
  113OSM   C14F11796  -0.120   1.563   8.167  0.0061 -0.5542  0.2537
  113OSM   H14F11797  -0.076   1.472   8.121  0.3466  0.0829 -0.7017
  113OSM   H14G11798  -0.078   1.647   8.107 -1.7845 -1.0472 -1.7617
  113OSM   C15F11799  -0.277   1.541   8.144 -0.4245  0.3598  0.2573
  113OSM   H15F11800  -0.328   1.593   8.228 -1.3182  1.2434 -0.8155
  113OSM   H15G11801  -0.298   1.433   8.158 -0.8478  0.4362  0.2189
  113OSM   C16F11802  -0.339   1.576   8.012  0.1417  0.6224  0.6698
  113OSM   H16F11803  -0.321   1.497   7.936 -2.4028 -0.7569  1.4432
  113OSM   H16G11804  -0.277   1.663   7.978  2.3098 -1.2250 -0.2714
  113OSM   C17F11805  -0.482   1.629   8.014  0.2518  0.0811 -0.4188
  113OSM   H17F11806  -0.501   1.672   7.913  0.8896 -0.3988 -0.7476
  113OSM   H17G11807  -0.480   1.717   8.082  0.4321 -0.8350  0.7701
  113OSM   C18F11808  -0.591   1.524   8.058 -0.1104  0.3360 -0.8941
  113OSM   H18F11809  -0.692   1.568   8.060  0.0542  0.6867  0.1146
  113OSM   H18G11810  -0.568   1.481   8.158 -0.3577  2.5981  0.1565
  113OSM   H18H11811  -0.608   1.446   7.981 -0.1971  1.0120 -1.5626
  114OSM      N11812   6.895   0.638  10.252  0.0126  0.0308 -0.6166
  114OSM    C1511813   6.769   0.583  10.297  0.7958 -0.2252  0.2614
  114OSM   H15A11814   6.718   0.645  10.369 -2.3058  0.7953 -2.6967
  114OSM   H15B11815   6.770   0.485  10.343  0.4945 -0.5422 -0.3958
  114OSM   H15C11816   6.695   0.580  10.219 -2.0040 -0.2151  2.8209
  114OSM    C1411817   6.879   0.786  10.235  0.3580 -1.0021  1.2021
  114OSM   H14A11818   6.956   0.840  10.182 -0.0465 -1.7967 -0.2318
  114OSM   H14B11819   6.868   0.834  10.331  2.0836 -1.8653  1.8401
  114OSM   H14C11820   6.796   0.805  10.169 -0.3737 -3.3962  1.3802
  114OSM    C1311821   6.993   0.605  10.357  0.1281 -0.5331  1.1513
  114OSM   H13A11822   6.990   0.499  10.377 -3.1578 -0.3540  1.9581
  114OSM   H13B11823   6.990   0.662  10.449 -0.7326 -2.1374  2.1394
  114OSM   H13C11824   7.090   0.623  10.312 -0.8609 -0.8096 -1.2053
  114OSM    C1211825   6.937   0.571  10.118 -0.3570 -0.2759 -0.3149
  114OSM   H12A11826   6.860   0.589  10.044  0.0512 -0.2911 -0.7518
  114OSM   H12B11827   6.948   0.465  10.134 -0.8037 -0.1905  0.5419
  114OSM    C1111828   7.052   0.618  10.040 -0.0032  0.2086 -0.6042
  114OSM   H11A11829   7.053   0.729  10.031 -3.3191  0.4962  1.9566
  114OSM   H11B11830   7.040   0.574   9.938  0.2122 -0.7308 -0.2291
  114OSM      P11831   7.307   0.648  10.086 -0.0860  0.1117 -0.1132
  114OSM    O1311832   7.286   0.789  10.123  0.0268  0.1315  0.2777
  114OSM    O1411833   7.409   0.578  10.171  0.4561  0.7905  0.2731
  114OSM    O1111834   7.345   0.634   9.936  0.0261 -0.0179  0.8922
  114OSM    O1211835   7.170   0.568  10.097  0.2122 -0.2449 -0.1345
  114OSM    C1S11836   7.360   0.505   9.880  0.1590  0.4205  0.7927
  114OSM    H1S11837   7.281   0.435   9.915  0.2049 -0.1663 -0.2753
  114OSM    H1T11838   7.444   0.451   9.929 -0.9894 -2.3322 -0.1733
  114OSM     NF11839   7.391   0.384   9.668 -0.3352 -0.1463  0.2361
  114OSM    HNF11840   7.485   0.351   9.661 -0.2873 -1.1445  4.4443
  114OSM    C2S11841   7.380   0.512   9.728  0.0671 -0.2923  0.2131
  114OSM    H2S11842   7.297   0.564   9.676 -2.2517 -1.4707  2.5960
  114OSM    C3S11843   7.510   0.601   9.697  0.0588  0.3882  0.2203
  114OSM    H3S11844   7.600   0.539   9.715 -1.3755 -1.1901  2.1640
  114OSM     O311845   7.521   0.727   9.764 -0.4237  0.6887 -1.2716
  114OSM    HO311846   7.458   0.732   9.836  1.0252  2.8582 -0.0837
  114OSM    C4S11847   7.516   0.642   9.554  0.1473 -0.2005  0.3744
  114OSM    H4S11848   7.616   0.645   9.508 -1.2322  1.3150 -2.7103
  114OSM    C5S11849   7.422   0.696   9.476  0.1136 -0.3472  0.2093
  114OSM    H5S11850   7.315   0.698   9.502 -0.1094 -1.4108 -0.6007
  114OSM    C6S11851   7.450   0.743   9.336 -0.6154  0.1400  0.0733
  114OSM    H6S11852   7.414   0.663   9.268  2.7548 -0.1093 -1.5010
  114OSM    H6T11853   7.560   0.755   9.326 -0.8668  0.7210 -2.3507
  114OSM    C7S11854   7.397   0.882   9.297 -0.2826  0.7264  0.0569
  114OSM    H7S11855   7.426   0.964   9.366  0.7199 -0.7602  1.4447
  114OSM    H7T11856   7.287   0.879   9.312 -0.1019  0.5656  1.3593
  114OSM    C8S11857   7.418   0.936   9.156  0.8029  0.8247 -0.5250
  114OSM    H8S11858   7.525   0.942   9.127  1.0179 -2.0953 -0.5211
  114OSM    H8T11859   7.367   1.033   9.140 -2.7083 -0.6021  1.3898
  114OSM    C9S11860   7.351   0.838   9.056  0.1728  0.3013  0.2244
  114OSM    H9S11861   7.252   0.799   9.085  0.2477  0.6282  0.9461
  114OSM    H9T11862   7.421   0.752   9.062  0.9243  0.7613 -1.6070
  114OSM   C10S11863   7.349   0.897   8.916  0.0591  0.0955  0.8207
  114OSM   H10S11864   7.454   0.929   8.898  1.5740 -3.7931  2.2035
  114OSM   H10T11865   7.285   0.987   8.908  0.7180  0.3081 -3.1226
  114OSM   C11S11866   7.311   0.804   8.803 -0.0621  0.3985  0.3678
  114OSM   H11S11867   7.203   0.819   8.784 -0.0778  1.3011  1.1550
  114OSM   H11T11868   7.330   0.698   8.833  1.2549 -0.1307 -2.1960
  114OSM   C12S11869   7.389   0.812   8.667  0.4306 -0.0232 -0.0757
  114OSM   H12S11870   7.486   0.762   8.690  0.8184  0.7378 -0.0222
  114OSM   H12T11871   7.402   0.920   8.644  0.5686  0.1043  0.5899
  114OSM   C13S11872   7.320   0.735   8.550  0.0294  0.1975  0.3812
  114OSM   H13S11873   7.221   0.774   8.519 -1.4568 -3.1213  0.7358
  114OSM   H13T11874   7.305   0.627   8.574  0.0465  0.1769  0.2973
  114OSM   C14S11875   7.415   0.738   8.429 -0.3635 -0.0708 -0.0305
  114OSM   H14S11876   7.421   0.640   8.377 -0.6182  0.4862 -1.1335
  114OSM   H14T11877   7.518   0.760   8.463 -0.3554  0.0387 -0.1231
  114OSM   C15S11878   7.379   0.844   8.321  0.4038  0.5415  0.0544
  114OSM   H15S11879   7.399   0.949   8.354  2.0426  0.4086 -0.5039
  114OSM   H15T11880   7.271   0.829   8.297  0.2665  2.6253 -0.7605
  114OSM   C16S11881   7.452   0.836   8.188  0.1405 -0.3498  0.3642
  114OSM   H16S11882   7.474   0.734   8.150  2.2601 -0.1770  1.0820
  114OSM   H16T11883   7.548   0.890   8.199  0.6289 -0.4556 -2.7870
  114OSM   C17S11884   7.373   0.920   8.083  0.5205  0.0540 -0.2798
  114OSM   H17S11885   7.324   1.008   8.129  0.0223 -0.1435 -0.4356
  114OSM   H17T11886   7.297   0.851   8.041 -0.2052  2.2675 -2.7205
  114OSM   C18S11887   7.462   0.964   7.963  0.4536  0.5006 -0.6191
  114OSM   H18S11888   7.402   0.997   7.875  3.3947 -1.0504 -3.2888
  114OSM   H18T11889   7.528   0.880   7.934 -1.0799 -0.8129 -0.3680
  114OSM   H18U11890   7.520   1.048   8.006 -0.0223  0.6068 -0.1699
  114OSM    C1F11891   7.294   0.294   9.677  0.5016 -0.0394 -0.3582
  114OSM     OF11892   7.181   0.331   9.720 -0.2520 -0.3878  0.2642
  114OSM    C2F11893   7.327   0.150   9.650  0.0994 -0.9101  0.3759
  114OSM    H2F11894   7.318   0.094   9.746  2.5335 -1.5853  0.2331
  114OSM    H2G11895   7.427   0.128   9.607  0.4004  0.9447  0.0795
  114OSM    C3F11896   7.221   0.090   9.556  0.3448  0.2098  0.0070
  114OSM    H3F11897   7.126   0.087   9.613 -0.1807 -2.3482 -0.9472
  114OSM    H3G11898   7.250  -0.014   9.530  1.3803  0.7034 -0.8589
  114OSM    C4F11899   7.200   0.164   9.422  0.5461 -0.2666  0.3308
  114OSM    H4F11900   7.159   0.262   9.455  0.4136 -0.9662  2.3171
  114OSM    H4G11901   7.126   0.104   9.365  0.7500  1.1566 -1.4816
  114OSM    C5F11902   7.326   0.191   9.336 -0.1875  0.8296  0.2839
  114OSM    H5F11903   7.383   0.097   9.324  1.9574  2.0499  0.6343
  114OSM    H5G11904   7.384   0.264   9.398 -2.5359  1.1731  2.1366
  114OSM    C6F11905   7.300   0.245   9.192  0.4884 -0.0474 -0.1909
  114OSM    H6F11906   7.252   0.163   9.134  1.2777 -1.0406  0.5486
  114OSM    H6G11907   7.396   0.265   9.140 -1.4702 -0.7605 -4.3373
  114OSM    C7F11908   7.199   0.361   9.190  0.3252 -0.1419  0.0315
  114OSM    H7F11909   7.232   0.453   9.242 -0.7681 -0.0632  0.5783
  114OSM    H7G11910   7.106   0.312   9.225 -0.6682  2.0105  0.4633
  114OSM    C8F11911   7.174   0.413   9.047 -0.0622  0.1365  0.5963
  114OSM    H8F11912   7.125   0.328   8.995  3.2633 -1.1609 -0.5500
  114OSM    H8G11913   7.273   0.423   8.996 -0.1499  1.6875  0.6991
  114OSM    C9F11914   7.088   0.541   9.029 -0.6019 -0.1859 -0.2050
  114OSM    H9F11915   7.059   0.598   9.119  2.6059 -0.8798  1.3232
  114OSM   C10F11916   7.051   0.588   8.908 -0.0306 -0.2664 -0.6983
  114OSM   H10F11917   6.980   0.672   8.897  1.0726  0.5038 -2.1221
  114OSM   C11F11918   7.076   0.524   8.776  0.3883  0.6273  0.5068
  114OSM   H11F11919   7.106   0.418   8.791  0.1317  0.3748 -0.7442
  114OSM   H11G11920   7.160   0.569   8.720  0.3256  1.1431  0.8231
  114OSM   C12F11921   6.952   0.517   8.691  0.1057  0.4676  0.6114
  114OSM   H12F11922   6.903   0.616   8.680 -0.9746 -0.2488 -1.1835
  114OSM   H12G11923   6.876   0.447   8.731 -0.2968 -0.8190 -2.2391
  114OSM   C13F11924   6.976   0.467   8.544 -0.1092 -0.2012 -0.1318
  114OSM   H13F11925   7.038   0.375   8.544 -1.8296 -1.3779 -1.7388
  114OSM   H13G11926   7.034   0.540   8.484 -0.3173  0.3535  0.3369
  114OSM   C14F11927   6.847   0.421   8.477  0.4497  0.5440 -0.3079
  114OSM   H14F11928   6.767   0.491   8.509  0.6061  0.2009  0.8549
  114OSM   H14G11929   6.813   0.321   8.512  0.8695  0.8495  1.0123
  114OSM   C15F11930   6.860   0.412   8.323 -0.2747  0.3622  0.1183
  114OSM   H15F11931   6.946   0.351   8.290 -0.3183  0.0159  0.6522
  114OSM   H15G11932   6.882   0.510   8.276 -0.8006  0.1119 -0.6609
  114OSM   C16F11933   6.732   0.355   8.250 -0.4596  0.0712 -0.3638
  114OSM   H16F11934   6.694   0.263   8.300 -1.1424 -0.9446 -2.6408
  114OSM   H16G11935   6.752   0.342   8.141  2.1149 -1.9872  0.3154
  114OSM   C17F11936   6.616   0.459   8.243 -0.4398 -0.1802  0.5635
  114OSM   H17F11937   6.671   0.552   8.216 -0.1226 -0.3041  0.7876
  114OSM   H17G11938   6.576   0.484   8.344  0.5743  0.9741  0.6862
  114OSM   C18F11939   6.508   0.419   8.145  0.3160 -1.1591  0.0373
  114OSM   H18F11940   6.485   0.310   8.154  1.9673 -1.6336 -1.1722
  114OSM   H18G11941   6.531   0.441   8.038 -1.7679  0.2563 -0.1456
  114OSM   H18H11942   6.418   0.478   8.172  1.4955  0.5213  0.3362
  115OSM      N11943   3.158   4.537   5.843  0.5254  0.0067 -0.0739
  115OSM    C1511944   3.182   4.388   5.809  0.1422  0.6363  0.7618
  115OSM   H15A11945   3.262   4.342   5.865 -0.1805 -1.2401 -0.2871
  115OSM   H15B11946   3.203   4.375   5.704 -3.2650  2.4403 -0.2237
  115OSM   H15C11947   3.090   4.336   5.833 -0.2807  0.9051 -0.2533
  115OSM    C1411948   3.280   4.617   5.819  0.6999 -0.0759  0.5203
  115OSM   H14A11949   3.304   4.620   5.714  1.4325 -1.4407  0.6468
  115OSM   H14B11950   3.355   4.567   5.879  1.4122 -0.1478 -0.4119
  115OSM   H14C11951   3.250   4.720   5.836 -1.1573 -0.6826  1.0652
  115OSM    C1311952   3.050   4.584   5.751  0.1762 -0.4794 -0.4748
  115OSM   H13A11953   3.035   4.690   5.765 -2.7285 -0.8448 -0.5689
  115OSM   H13B11954   2.950   4.553   5.778  0.8201 -2.6163 -0.4153
  115OSM   H13C11955   3.071   4.571   5.646  0.9429  0.9320 -0.5124
  115OSM    C1211956   3.122   4.541   5.988  0.3195 -0.1574  0.1026
  115OSM   H12A11957   3.017   4.516   6.001  0.0140  1.1509  0.2654
  115OSM   H12B11958   3.122   4.645   6.020 -0.6742 -0.5196  1.3315
  115OSM    C1111959   3.203   4.458   6.091 -0.5981  0.0428  0.3343
  115OSM   H11A11960   3.189   4.350   6.069 -0.1747  0.3660 -1.6713
  115OSM   H11B11961   3.155   4.479   6.189  0.9690  1.3328  0.8368
  115OSM      P11962   3.464   4.408   6.062 -0.1825  0.1079 -0.0408
  115OSM    O1311963   3.424   4.312   5.958  0.3393  0.0344  0.8808
  115OSM    O1411964   3.593   4.476   6.046 -0.1790 -0.3721 -1.0426
  115OSM    O1111965   3.463   4.326   6.196 -0.3912 -0.3278 -0.2971
  115OSM    O1211966   3.346   4.508   6.096  0.1171  0.4347 -0.5968
  115OSM    C1S11967   3.499   4.366   6.329 -0.3089 -0.2754 -0.3621
  115OSM    H1S11968   3.562   4.457   6.322  0.1001 -0.6585 -2.0231
  115OSM    H1T11969   3.557   4.284   6.378 -2.5269 -1.3759  0.5132
  115OSM     NF11970   3.420   4.432   6.544 -0.2610  0.1251 -0.1232
  115OSM    HNF11971   3.431   4.371   6.623  4.0483  2.3974  1.1435
  115OSM    C2S11972   3.370   4.396   6.412  0.0831  0.2540  0.3132
  115OSM    H2S11973   3.316   4.486   6.374 -0.8177  0.2972  1.6361
  115OSM    C3S11974   3.289   4.268   6.408  0.5386  0.4627 -0.4851
  115OSM    H3S11975   3.358   4.199   6.461  1.4847  2.4721  0.9529
  115OSM     O311976   3.262   4.205   6.286  0.5537 -0.5392 -0.0707
  115OSM    HO311977   3.333   4.245   6.235  1.6034 -2.3803 -0.1191
  115OSM    C4S11978   3.159   4.294   6.483  0.0825 -0.3445  0.1560
  115OSM    H4S11979   3.086   4.352   6.424  2.1676  2.1112 -0.1239
  115OSM    C5S11980   3.133   4.255   6.604  0.0327 -0.0500 -0.3464
  115OSM    H5S11981   3.216   4.205   6.656  0.0427  0.3989  0.0745
  115OSM    C6S11982   3.006   4.282   6.683  0.2762  0.1371  0.4893
  115OSM    H6S11983   2.955   4.199   6.735 -0.1552  1.1401  1.7108
  115OSM    H6T11984   2.927   4.327   6.618  0.9852  0.9093  0.1424
  115OSM    C7S11985   3.014   4.389   6.799 -0.5506 -0.1794 -0.3754
  115OSM    H7S11986   2.907   4.395   6.828 -0.7387 -1.1452 -0.8568
  115OSM    H7T11987   3.031   4.492   6.760  1.2002 -0.3993 -0.2312
  115OSM    C8S11988   3.106   4.360   6.922  0.2593  0.1087 -0.1708
  115OSM    H8S11989   3.215   4.359   6.901  0.2171  2.0976 -0.6238
  115OSM    H8T11990   3.070   4.257   6.944 -2.0566  1.0411  0.5834
  115OSM    C9S11991   3.090   4.441   7.044 -0.0620 -0.2259 -0.7125
  115OSM    H9S11992   2.987   4.439   7.086 -0.2069  0.2237 -1.0392
  115OSM    H9T11993   3.089   4.551   7.023 -1.9248 -0.2153 -0.6954
  115OSM   C10S11994   3.193   4.418   7.155 -0.4909 -0.4779 -0.5165
  115OSM   H10S11995   3.294   4.437   7.114 -1.1039  2.7365 -0.5988
  115OSM   H10T11996   3.178   4.314   7.191 -0.4004 -0.0234  0.8518
  115OSM   C11S11997   3.183   4.510   7.278  0.3667 -0.2011  0.3366
  115OSM   H11S11998   3.085   4.508   7.331  0.6750 -0.4347  0.8925
  115OSM   H11T11999   3.176   4.614   7.240  1.4452  0.0737  0.8874
  115OSM   C12S12000   3.297   4.497   7.383  0.5534 -0.3759 -0.5961
  115OSM   H12S12001   3.392   4.527   7.335 -1.2092  2.4646 -2.4639
  115OSM   H12T12002   3.317   4.391   7.409  0.5560 -0.3038 -0.3029
  115OSM   C13S12003   3.285   4.593   7.510 -0.5350 -0.0826  0.4810
  115OSM   H13S12004   3.193   4.584   7.572 -0.6522 -0.3165  0.2728
  115OSM   H13T12005   3.280   4.699   7.478  1.0062 -0.1744 -0.1072
  115OSM   C14S12006   3.412   4.595   7.591 -0.1152  0.5668  0.5595
  115OSM   H14S12007   3.410   4.684   7.658 -2.2691  1.4907 -0.6844
  115OSM   H14T12008   3.498   4.613   7.523 -0.5800  2.9623  0.5589
  115OSM   C15S12009   3.425   4.470   7.675 -0.2552  0.6825 -0.5400
  115OSM   H15S12010   3.455   4.386   7.608  0.5691 -0.8954  1.7770
  115OSM   H15T12011   3.325   4.441   7.713 -0.8149  0.5569 -2.0595
  115OSM   C16S12012   3.517   4.479   7.796  0.7033 -0.0431  0.0566
  115OSM   H16S12013   3.485   4.553   7.873 -1.0494 -1.4619  0.7402
  115OSM   H16T12014   3.616   4.504   7.753  0.3840 -0.7968 -1.1252
  115OSM   C17S12015   3.535   4.338   7.860  0.2789 -0.4201  0.6885
  115OSM   H17S12016   3.636   4.331   7.905  0.2321 -1.7697  0.5989
  115OSM   H17T12017   3.533   4.256   7.785  1.8008 -0.6369  0.8818
  115OSM   C18S12018   3.431   4.309   7.972  0.4638 -0.1520 -0.3843
  115OSM   H18S12019   3.468   4.216   8.019  0.3101 -1.3285 -2.4972
  115OSM   H18T12020   3.330   4.275   7.940 -0.6923 -0.0166  2.9317
  115OSM   H18U12021   3.412   4.394   8.041  1.3282  1.2550 -1.8470
  115OSM    C1F12022   3.466   4.556   6.551  0.7023 -0.4190  0.3761
  115OSM     OF12023   3.465   4.636   6.456 -0.1661 -0.1942  0.7209
  115OSM    C2F12024   3.530   4.590   6.676  1.0582 -0.6309 -0.6837
  115OSM    H2F12025   3.611   4.660   6.647  0.0253  0.8681 -0.0496
  115OSM    H2G12026   3.560   4.500   6.733 -2.1885 -0.9487  0.6458
  115OSM    C3F12027   3.427   4.664   6.766 -0.0499  0.5764 -0.1099
  115OSM    H3F12028   3.343   4.594   6.785  1.8463 -1.5841  0.5071
  115OSM    H3G12029   3.401   4.758   6.713  1.0778  0.8947 -0.1240
  115OSM    C4F12030   3.490   4.695   6.904 -0.2518  0.4925 -0.6765
  115OSM    H4F12031   3.585   4.747   6.878  0.5682 -0.7686 -0.2221
  115OSM    H4G12032   3.521   4.607   6.964 -3.1519  0.3265  0.6681
  115OSM    C5F12033   3.401   4.788   6.986 -0.8333  0.2204  0.2251
  115OSM    H5F12034   3.294   4.760   6.983 -1.1155  1.0745  1.5819
  115OSM    H5G12035   3.391   4.882   6.927  0.7000  0.0014 -0.3996
  115OSM    C6F12036   3.457   4.825   7.124  0.0693  0.2343  0.4298
  115OSM    H6F12037   3.564   4.857   7.128 -0.4764  2.0123  1.4155
  115OSM    H6G12038   3.455   4.727   7.176  3.1614 -0.3555 -0.4301
  115OSM    C7F12039   3.360   4.927   7.187 -1.1043  0.1585 -0.1496
  115OSM    H7F12040   3.255   4.890   7.188 -0.8009 -0.6939  1.5618
  115OSM    H7G12041   3.362   5.023   7.131 -1.3219 -0.1388 -0.6702
  115OSM    C8F12042   3.402   4.955   7.331 -0.0392  1.4385  0.2086
  115OSM    H8F12043   3.502   5.000   7.318  0.2384  1.2239  1.5526
  115OSM    H8G12044   3.423   4.862   7.387  3.8503  1.2463 -1.4262
  115OSM    C9F12045   3.316   5.062   7.390  0.2741 -0.1912 -0.3812
  115OSM    H9F12046   3.289   5.154   7.336 -0.4714  0.8947  1.7666
  115OSM   C10F12047   3.251   5.055   7.508 -0.2576 -0.0243  0.5603
  115OSM   H10F12048   3.214   5.150   7.549 -1.2838  0.2733 -1.0177
  115OSM   C11F12049   3.245   4.936   7.596 -0.2300 -0.3703  0.0096
  115OSM   H11F12050   3.346   4.892   7.610  0.6458  1.8310  0.8257
  115OSM   H11G12051   3.178   4.867   7.539 -1.0181  0.5200 -0.1489
  115OSM   C12F12052   3.195   4.968   7.736 -0.3583  0.5717 -0.3133
  115OSM   H12F12053   3.087   4.987   7.752 -0.4530 -0.1405 -0.1018
  115OSM   H12G12054   3.238   5.066   7.767  0.9192  0.3505 -1.3812
  115OSM   C13F12055   3.233   4.864   7.845  0.3876  0.3317  0.1296
  115OSM   H13F12056   3.337   4.827   7.834  0.6859  0.5592  1.9367
  115OSM   H13G12057   3.169   4.774   7.838  1.8175 -0.5430 -2.1690
  115OSM   C14F12058   3.222   4.927   7.983  0.3062  0.8493  0.5037
  115OSM   H14F12059   3.129   4.986   7.998  1.7826  3.7861 -1.4936
  115OSM   H14G12060   3.294   5.012   7.981  1.1349  0.1429  0.0657
  115OSM   C15F12061   3.256   4.826   8.091 -0.1215 -0.0670  0.3833
  115OSM   H15F12062   3.198   4.732   8.098  0.2723 -0.2854  0.7316
  115OSM   H15G12063   3.223   4.878   8.184 -1.7915 -1.7234  0.7424
  115OSM   C16F12064   3.401   4.783   8.091 -0.8623  0.3620  0.2852
  115OSM   H16F12065   3.463   4.875   8.090  0.8993 -0.8092 -1.6262
  115OSM   H16G12066   3.417   4.715   8.005  0.2662  0.9756 -0.0023
  115OSM   C17F12067   3.451   4.703   8.211 -0.2689  0.1882  0.0650
  115OSM   H17F12068   3.556   4.669   8.202 -0.6217 -0.8926 -0.0541
  115OSM   H17G12069   3.387   4.613   8.220 -0.4187  0.4819  2.5319
  115OSM   C18F12070   3.445   4.782   8.345  0.2983 -0.0187 -0.3357
  115OSM   H18F12071   3.341   4.764   8.378  0.1895 -0.9825 -1.1735
  115OSM   H18G12072   3.471   4.890   8.339  0.0472  0.1192  0.8965
  115OSM   H18H12073   3.501   4.734   8.428 -1.3253 -0.3426  0.5894
  116OSM      N12074   2.425   2.577   6.030  0.0760 -0.9747  0.0812
  116OSM    C1512075   2.523   2.515   6.121 -0.2185 -0.3524 -0.2742
  116OSM   H15A12076   2.607   2.583   6.131 -0.1230 -0.0871 -2.6738
  116OSM   H15B12077   2.543   2.415   6.087 -0.8829 -0.2562 -0.9478
  116OSM   H15C12078   2.468   2.510   6.214  0.3416 -2.2265 -0.0272
  116OSM    C1412079   2.316   2.476   5.999 -0.1848 -1.2177 -0.1905
  116OSM   H14A12080   2.271   2.440   6.090  0.7589  3.9767  2.4947
  116OSM   H14B12081   2.351   2.392   5.941 -0.5868 -2.4350  1.2837
  116OSM   H14C12082   2.233   2.511   5.939 -1.1493  1.4592  2.5875
  116OSM    C1312083   2.356   2.690   6.097 -0.2712  0.7480  0.0225
  116OSM   H13A12084   2.426   2.772   6.109  0.5939  0.0500 -0.2419
  116OSM   H13B12085   2.322   2.653   6.193 -0.9557  1.4522  0.0618
  116OSM   H13C12086   2.275   2.722   6.033 -1.7984 -1.4018  0.8349
  116OSM    C1212087   2.496   2.625   5.910  0.4329  0.3745  0.9465
  116OSM   H12A12088   2.569   2.697   5.944  4.0936 -1.8919 -1.6689
  116OSM   H12B12089   2.437   2.674   5.834 -1.4177 -1.8575  0.8622
  116OSM    C1112090   2.588   2.524   5.829  0.1271 -0.0490 -1.3043
  116OSM   H11A12091   2.673   2.498   5.896 -0.7252  2.2271  0.7056
  116OSM   H11B12092   2.623   2.577   5.737  0.6526 -1.1332 -1.7457
  116OSM      P12093   2.585   2.260   5.784 -0.3585 -0.0091 -0.1329
  116OSM    O1312094   2.478   2.162   5.752 -0.2726 -0.0490  0.5054
  116OSM    O1412095   2.699   2.258   5.686  0.0839 -0.3445 -0.2040
  116OSM    O1112096   2.651   2.231   5.928 -0.2004 -0.7578 -0.7196
  116OSM    O1212097   2.518   2.405   5.794 -0.3758  0.9182 -0.0789
  116OSM    C1S12098   2.789   2.231   5.963 -0.6891  0.9117  0.0382
  116OSM    H1S12099   2.824   2.332   5.990  1.5856  0.3841 -0.8388
  116OSM    H1T12100   2.852   2.186   5.883  0.0705  0.4867  0.8697
  116OSM     NF12101   2.954   2.170   6.146  0.7693 -0.4110 -0.4278
  116OSM    HNF12102   3.021   2.103   6.115  2.3193  1.1350 -0.4753
  116OSM    C2S12103   2.815   2.150   6.095 -0.2558  0.8896 -0.2537
  116OSM    H2S12104   2.742   2.181   6.173  2.1941  1.6930  1.8092
  116OSM    C3S12105   2.787   1.994   6.071 -0.6830 -0.0681 -0.6916
  116OSM    H3S12106   2.869   1.959   6.004  0.2985  0.7445  0.0581
  116OSM     O312107   2.670   1.955   6.005  0.3111 -0.0755  0.2988
  116OSM    HO312108   2.638   2.040   5.974  2.2367  0.9066  0.9188
  116OSM    C4S12109   2.802   1.921   6.199  0.4776  0.5230  0.0653
  116OSM    H4S12110   2.907   1.912   6.228 -0.0581  0.4053  2.0329
  116OSM    C5S12111   2.703   1.863   6.271 -0.5793  0.0871  0.1237
  116OSM    H5S12112   2.597   1.867   6.241 -1.1133 -0.6329  1.8790
  116OSM    C6S12113   2.730   1.795   6.399 -0.5517 -0.8253 -0.2640
  116OSM    H6S12114   2.689   1.692   6.397 -2.0323 -0.2118 -2.2388
  116OSM    H6T12115   2.670   1.850   6.475  1.7782  0.5238  0.6712
  116OSM    C7S12116   2.874   1.805   6.466  0.2094 -0.2642 -0.3538
  116OSM    H7S12117   2.902   1.910   6.486 -0.2832 -0.1524 -0.2421
  116OSM    H7T12118   2.943   1.738   6.411  1.0855 -0.7868  1.3366
  116OSM    C8S12119   2.872   1.738   6.607 -0.3451 -0.1500 -0.1974
  116OSM    H8S12120   2.810   1.646   6.604  2.7284 -2.2413 -4.6156
  116OSM    H8T12121   2.827   1.809   6.680 -0.3339  0.4024 -0.7208
  116OSM    C9S12122   3.017   1.695   6.652 -0.3345 -0.9709 -0.2019
  116OSM    H9S12123   3.082   1.785   6.646 -0.6601 -0.7319 -0.1646
  116OSM    H9T12124   3.060   1.622   6.580  2.8818  0.1418  0.5328
  116OSM   C10S12125   3.021   1.653   6.801 -0.1108  0.4589  0.2668
  116OSM   H10S12126   3.120   1.608   6.822  0.2581  1.2161  0.1734
  116OSM   H10T12127   2.946   1.574   6.822 -0.8532  0.9168 -0.6344
  116OSM   C11S12128   2.995   1.769   6.895  0.5457  0.4903  0.8917
  116OSM   H11S12129   2.890   1.803   6.883  0.5364  0.5047  1.0132
  116OSM   H11T12130   3.059   1.856   6.871 -0.1821 -0.2500 -4.1619
  116OSM   C12S12131   3.001   1.711   7.041  0.5281  0.0324 -0.1539
  116OSM   H12S12132   3.105   1.674   7.059  0.9333  1.6467  0.9237
  116OSM   H12T12133   2.939   1.619   7.046 -0.9080  0.9627 -0.8079
  116OSM   C13S12134   2.951   1.802   7.155  0.0194 -0.2977 -0.3337
  116OSM   H13S12135   2.855   1.843   7.116  0.3763  2.2040  1.2644
  116OSM   H13T12136   3.032   1.878   7.165 -1.8701  1.9614 -1.6385
  116OSM   C14S12137   2.936   1.719   7.288  0.0718 -0.3400  0.1145
  116OSM   H14S12138   3.037   1.687   7.320 -0.0812  0.7773  1.7524
  116OSM   H14T12139   2.876   1.627   7.269 -1.2729 -0.0453  2.5928
  116OSM   C15S12140   2.880   1.801   7.401  0.1113  0.0612 -0.4661
  116OSM   H15S12141   2.937   1.896   7.399  2.6478 -1.3763  0.6283
  116OSM   H15T12142   2.892   1.738   7.492 -0.8288 -1.2517 -1.2300
  116OSM   C16S12143   2.730   1.834   7.387 -0.0241  0.1329  0.3761
  116OSM   H16S12144   2.674   1.748   7.344  0.6367 -1.0801  1.8932
  116OSM   H16T12145   2.720   1.917   7.314  0.1859 -0.8291 -0.7729
  116OSM   C17S12146   2.659   1.884   7.511 -0.7057 -0.3898 -0.1584
  116OSM   H17S12147   2.687   1.824   7.599 -1.0944  0.4693  0.5593
  116OSM   H17T12148   2.550   1.876   7.491 -0.2987 -0.9087 -2.2964
  116OSM   C18S12149   2.702   2.026   7.538 -1.1561 -0.1074  0.2385
  116OSM   H18S12150   2.813   2.032   7.533 -1.1931  1.8225  1.2480
  116OSM   H18T12151   2.679   2.049   7.644 -0.0700 -1.5357  0.8073
  116OSM   H18U12152   2.657   2.103   7.472  1.3197 -0.4905 -1.9954
  116OSM    C1F12153   2.994   2.286   6.193 -0.0308 -0.8088 -0.4950
  116OSM     OF12154   2.921   2.387   6.196 -0.5962  0.1184  0.4213
  116OSM    C2F12155   3.137   2.300   6.234 -0.4903 -0.1817  0.5089
  116OSM    H2F12156   3.193   2.368   6.165  1.3005 -1.6517  0.4776
  116OSM    H2G12157   3.175   2.196   6.231 -0.5078 -0.1619 -0.5244
  116OSM    C3F12158   3.171   2.337   6.386  0.3331 -0.7032  0.2699
  116OSM    H3F12159   3.118   2.434   6.394  0.1378 -0.5697 -2.1588
  116OSM    H3G12160   3.280   2.357   6.395 -0.0200  1.8246 -0.7972
  116OSM    C4F12161   3.118   2.231   6.489 -0.3871  0.0105  0.4284
  116OSM    H4F12162   3.174   2.139   6.460 -0.8808  0.1335 -0.9813
  116OSM    H4G12163   3.010   2.210   6.475  0.0247 -1.2172 -1.0598
  116OSM    C5F12164   3.145   2.259   6.636  0.1150 -0.6190 -0.6019
  116OSM    H5F12165   3.087   2.349   6.666 -0.6396 -1.7205  1.3857
  116OSM    H5G12166   3.254   2.277   6.644  0.4527 -3.0748  0.9482
  116OSM    C6F12167   3.108   2.144   6.732 -0.3429  0.2970  0.4496
  116OSM    H6F12168   3.154   2.170   6.830 -2.1686 -0.5560  1.5660
  116OSM    H6G12169   3.157   2.050   6.699 -1.0262  0.3743 -0.7968
  116OSM    C7F12170   2.958   2.124   6.751 -0.3995 -0.3455  0.1929
  116OSM    H7F12171   2.945   2.024   6.796  2.1817 -0.1202  1.5146
  116OSM    H7G12172   2.907   2.122   6.652 -1.4314  1.3606  0.6603
  116OSM    C8F12173   2.879   2.228   6.842 -0.2859  0.3704  0.6145
  116OSM    H8F12174   2.867   2.315   6.774  2.3631 -2.0208 -3.1522
  116OSM    H8G12175   2.957   2.245   6.920  1.9527  1.8535 -1.8652
  116OSM    C9F12176   2.743   2.182   6.897  0.7033  0.0416  0.5502
  116OSM    H9F12177   2.678   2.137   6.822  0.9455 -1.3426  1.1502
  116OSM   C10F12178   2.705   2.186   7.023 -0.4294 -0.5132 -0.2322
  116OSM   H10F12179   2.609   2.136   7.042  1.2035 -3.5426  0.4397
  116OSM   C11F12180   2.789   2.237   7.136 -0.3069  0.2617 -0.0196
  116OSM   H11F12181   2.873   2.301   7.103  1.6657 -2.9848 -1.5218
  116OSM   H11G12182   2.833   2.160   7.203  0.0535  0.3164 -0.1933
  116OSM   C12F12183   2.705   2.334   7.227  0.1227  0.2801  0.0054
  116OSM   H12F12184   2.608   2.286   7.255 -0.6137  3.2757  2.8719
  116OSM   H12G12185   2.667   2.417   7.163  0.7801  0.5385 -0.0458
  116OSM   C13F12186   2.773   2.374   7.350 -0.1450 -0.1595  0.0143
  116OSM   H13F12187   2.854   2.441   7.314 -0.6628  0.9222  0.8475
  116OSM   H13G12188   2.827   2.291   7.401  0.8262 -0.3812 -1.3637
  116OSM   C14F12189   2.686   2.450   7.450  0.1267  0.4347  0.3325
  116OSM   H14F12190   2.636   2.371   7.512 -1.0865  0.2877 -0.8193
  116OSM   H14G12191   2.595   2.484   7.396  0.6613 -0.4669 -1.1581
  116OSM   C15F12192   2.754   2.557   7.536  0.8691 -0.1142  0.2063
  116OSM   H15F12193   2.744   2.653   7.480  0.2608  2.1629  4.0700
  116OSM   H15G12194   2.862   2.540   7.555  1.5863  2.2164 -1.4250
  116OSM   C16F12195   2.689   2.576   7.664 -0.1510 -0.3748  0.2763
  116OSM   H16F12196   2.761   2.639   7.721 -0.4858 -1.1906  1.6346
  116OSM   H16G12197   2.680   2.481   7.721  0.9538  0.2601  1.5230
  116OSM   C17F12198   2.562   2.651   7.664  0.9097  0.4214  0.5010
  116OSM   H17F12199   2.489   2.597   7.600  2.2344 -1.0067  0.1526
  116OSM   H17G12200   2.588   2.744   7.609  1.2628 -0.0515 -0.1503
  116OSM   C18F12201   2.529   2.672   7.810 -0.1103  0.5730 -0.0303
  116OSM   H18F12202   2.536   2.569   7.851 -0.1591 -0.0938 -1.6925
  116OSM   H18G12203   2.431   2.721   7.826 -0.1592 -0.1145  1.9719
  116OSM   H18H12204   2.606   2.737   7.858 -0.1472  1.2359 -0.8601
  117OSM      N12205   2.053   3.082   5.832 -0.1930  0.2978 -0.2392
  117OSM    C1512206   1.970   3.035   5.718 -0.1333  0.1402 -0.1588
  117OSM   H15A12207   2.021   3.070   5.629 -2.6882 -0.7290 -2.0142
  117OSM   H15B12208   1.865   3.057   5.722 -0.1552 -0.1473  0.8079
  117OSM   H15C12209   1.986   2.928   5.712  1.5249  0.5341 -4.6040
  117OSM    C1412210   1.999   3.018   5.962  0.1155 -0.2425  0.3355
  117OSM   H14A12211   1.895   3.041   5.975 -0.0729 -0.9733  0.1201
  117OSM   H14B12212   2.047   3.064   6.047 -2.3281  0.1893  1.5172
  117OSM   H14C12213   2.013   2.911   5.968 -0.7519 -0.3364  0.7068
  117OSM    C1312214   2.193   3.037   5.818 -0.4542  0.5206 -0.0753
  117OSM   H13A12215   2.233   3.033   5.717 -0.8601 -1.2287 -0.1841
  117OSM   H13B12216   2.212   2.936   5.852 -3.2155 -0.2056 -0.6041
  117OSM   H13C12217   2.260   3.098   5.876  0.9238 -0.2668 -0.7898
  117OSM    C1212218   2.033   3.235   5.848 -0.6481  0.3646  0.1576
  117OSM   H12A12219   1.928   3.247   5.829 -0.2174  3.1122 -0.6796
  117OSM   H12B12220   2.085   3.285   5.767  0.9297  0.7087  1.3464
  117OSM    C1112221   2.084   3.305   5.981 -0.3946  0.2249  0.8777
  117OSM   H11A12222   2.021   3.258   6.060  0.5307 -1.3669  0.6999
  117OSM   H11B12223   2.069   3.415   5.981 -0.7167  0.2019 -0.7846
  117OSM      P12224   2.295   3.339   6.144 -0.0018 -0.5478  0.2430
  117OSM    O1312225   2.436   3.294   6.140  0.3991  0.0462 -0.4566
  117OSM    O1412226   2.270   3.483   6.170 -0.4228  0.5238  0.4793
  117OSM    O1112227   2.221   3.255   6.254  0.3405 -0.2829 -0.1972
  117OSM    O1212228   2.224   3.292   6.005  0.4681  0.4404  0.3482
  117OSM    C1S12229   2.264   3.126   6.304 -0.1164 -0.4813 -0.0941
  117OSM    H1S12230   2.368   3.143   6.339  0.3216 -1.6857 -0.7995
  117OSM    H1T12231   2.258   3.042   6.232 -1.5536 -1.0072  0.6186
  117OSM     NF12232   2.253   3.006   6.522  0.1387 -0.5224  0.7600
  117OSM    HNF12233   2.232   2.909   6.514 -0.8508 -0.1079 -2.4005
  117OSM    C2S12234   2.183   3.093   6.431 -0.1045  0.7183  0.3836
  117OSM    H2S12235   2.172   3.193   6.479 -1.6091 -0.2872  2.1911
  117OSM    C3S12236   2.048   3.030   6.386 -0.4044  0.1951 -0.4510
  117OSM    H3S12237   2.067   2.923   6.363 -0.4473  0.6214 -2.6609
  117OSM     O312238   1.994   3.098   6.283 -0.3138  0.2108 -0.0151
  117OSM    HO312239   2.068   3.148   6.247 -0.3269 -0.6447 -1.2861
  117OSM    C4S12240   1.957   3.021   6.508 -0.0557 -0.3099 -0.4860
  117OSM    H4S12241   1.958   2.928   6.566 -0.3566 -0.7329 -1.1581
  117OSM    C5S12242   1.872   3.114   6.554 -0.4850 -1.0511  0.2282
  117OSM    H5S12243   1.861   3.207   6.497  0.4132 -1.3249 -0.3999
  117OSM    C6S12244   1.782   3.107   6.672  0.5283 -0.4277 -0.3338
  117OSM    H6S12245   1.789   3.006   6.716 -3.7324 -1.1233 -0.9947
  117OSM    H6T12246   1.677   3.125   6.641  0.4825 -0.6061 -0.2786
  117OSM    C7S12247   1.830   3.203   6.785  0.3598 -0.1273  0.8376
  117OSM    H7S12248   1.815   3.311   6.762  2.4860  0.5380  2.4024
  117OSM    H7T12249   1.941   3.197   6.784  0.3165 -1.2313 -1.8621
  117OSM    C8S12250   1.779   3.160   6.922  0.2712 -0.0309 -0.4151
  117OSM    H8S12251   1.817   3.230   7.000  0.3412 -2.2013  1.5333
  117OSM    H8T12252   1.818   3.057   6.930  0.7366  0.0109 -2.1460
  117OSM    C9S12253   1.620   3.156   6.932 -0.1921  0.2476  0.4329
  117OSM    H9S12254   1.587   3.112   6.835 -1.7303  0.8423  0.6760
  117OSM    H9T12255   1.590   3.263   6.941  0.5991  0.3725  1.6315
  117OSM   C10S12256   1.575   3.082   7.054  0.5008  0.2559 -0.4664
  117OSM   H10S12257   1.625   2.983   7.049 -0.6625 -0.4143  0.7646
  117OSM   H10T12258   1.464   3.072   7.055  0.5424 -0.5993  2.5863
  117OSM   C11S12259   1.606   3.140   7.196 -0.4822 -0.2596 -0.2593
  117OSM   H11S12260   1.551   3.234   7.216  1.3166  0.5585  1.0013
  117OSM   H11T12261   1.712   3.171   7.186 -0.5546  0.0195 -0.1741
  117OSM   C12S12262   1.587   3.047   7.314  0.4559  0.4808 -0.4329
  117OSM   H12S12263   1.514   2.973   7.275 -0.4684  1.1444  0.0239
  117OSM   H12T12264   1.553   3.112   7.398  0.5570 -1.3579  1.0862
  117OSM   C13S12265   1.708   2.952   7.352 -0.0241  0.0900  0.3486
  117OSM   H13S12266   1.792   3.022   7.371  0.2304 -0.0254 -0.3528
  117OSM   H13T12267   1.744   2.895   7.263  1.2457  0.5406  0.5716
  117OSM   C14S12268   1.707   2.870   7.479 -0.0206  0.1108 -0.0143
  117OSM   H14S12269   1.730   2.763   7.458  2.6741  0.5214  0.6294
  117OSM   H14T12270   1.602   2.868   7.515  0.1263  1.9051  0.5404
  117OSM   C15S12271   1.797   2.904   7.594  0.4713 -1.1314  0.7587
  117OSM   H15S12272   1.762   2.984   7.662  0.0164 -0.1151 -0.6318
  117OSM   H15T12273   1.891   2.929   7.540 -0.1168  0.6877  0.5418
  117OSM   C16S12274   1.821   2.781   7.686  0.1573 -1.0706  0.2738
  117OSM   H16S12275   1.897   2.717   7.637 -0.1958  0.3310 -2.2158
  117OSM   H16T12276   1.729   2.719   7.693 -0.4383 -0.0756  1.4324
  117OSM   C17S12277   1.859   2.823   7.832 -0.1787  0.5291 -0.8272
  117OSM   H17S12278   1.853   2.739   7.904  1.1208 -0.0946 -1.4244
  117OSM   H17T12279   1.782   2.894   7.867 -0.0185  0.4043 -0.2286
  117OSM   C18S12280   2.000   2.880   7.831 -0.5745  0.3778 -0.2592
  117OSM   H18S12281   2.075   2.798   7.823 -0.8301  0.3619 -3.3184
  117OSM   H18T12282   2.029   2.942   7.918  0.7685  0.8761 -1.0365
  117OSM   H18U12283   2.011   2.939   7.737  2.4809 -1.1050 -0.9232
  117OSM    C1F12284   2.355   3.046   6.598  0.1911  0.9003 -0.3693
  117OSM     OF12285   2.357   3.161   6.630  0.0607  0.2568  0.3850
  117OSM    C2F12286   2.472   2.952   6.628 -0.2314 -0.0176  0.2978
  117OSM    H2F12287   2.444   2.898   6.721  2.2324 -1.7706  0.0851
  117OSM    H2G12288   2.564   3.011   6.652 -0.5207  0.4207  0.3340
  117OSM    C3F12289   2.499   2.834   6.529 -0.1770 -0.2000 -0.0515
  117OSM    H3F12290   2.532   2.885   6.436  1.3859 -0.5598  0.2874
  117OSM    H3G12291   2.410   2.771   6.508 -0.6980  1.1114 -1.8871
  117OSM    C4F12292   2.618   2.740   6.556  0.1579  0.5863  0.3103
  117OSM    H4F12293   2.607   2.688   6.654 -0.9930  0.6692  0.2233
  117OSM    H4G12294   2.717   2.790   6.567 -0.4024  1.8522 -0.3775
  117OSM    C5F12295   2.627   2.636   6.451 -0.2274 -0.0117 -0.7650
  117OSM    H5F12296   2.649   2.678   6.351 -0.6461 -0.7739 -1.1883
  117OSM    H5G12297   2.527   2.586   6.443 -0.5921  0.1483  2.2597
  117OSM    C6F12298   2.725   2.523   6.486 -0.5202  0.2204 -0.6728
  117OSM    H6F12299   2.724   2.504   6.596 -0.1624  0.2706 -0.6616
  117OSM    H6G12300   2.832   2.547   6.467 -0.3666  0.3494  0.3045
  117OSM    C7F12301   2.705   2.389   6.420 -0.3109  0.4431  0.0375
  117OSM    H7F12302   2.803   2.338   6.433 -0.8815 -0.3628  1.2271
  117OSM    H7G12303   2.686   2.396   6.311  1.0757 -1.5680 -0.3743
  117OSM    C8F12304   2.604   2.299   6.496 -0.5205 -0.1059 -0.5515
  117OSM    H8F12305   2.641   2.282   6.599 -0.5053 -1.0517 -0.7117
  117OSM    H8G12306   2.624   2.205   6.441  1.2458  0.4987 -0.9663
  117OSM    C9F12307   2.460   2.327   6.477 -0.0534  1.0798 -1.0727
  117OSM    H9F12308   2.421   2.291   6.381  0.6060  1.0064 -1.3119
  117OSM   C10F12309   2.378   2.360   6.581  0.5115  0.8691 -0.3948
  117OSM   H10F12310   2.271   2.378   6.559  0.2731  0.6151  0.5468
  117OSM   C11F12311   2.416   2.376   6.724 -0.5476  0.3358 -0.4281
  117OSM   H11F12312   2.381   2.477   6.756  1.1753 -0.0866  3.0786
  117OSM   H11G12313   2.522   2.404   6.742 -0.9748  2.0159 -0.3806
  117OSM   C12F12314   2.379   2.260   6.823 -0.0581 -0.8449 -0.2959
  117OSM   H12F12315   2.418   2.299   6.919 -1.2348  0.1742 -0.2246
  117OSM   H12G12316   2.442   2.175   6.788  0.9897 -0.4993  0.7528
  117OSM   C13F12317   2.238   2.204   6.828 -0.3124 -0.1481  0.6110
  117OSM   H13F12318   2.202   2.174   6.728  0.0278 -1.4644  0.8698
  117OSM   H13G12319   2.182   2.291   6.869 -1.5831 -1.0926  0.9331
  117OSM   C14F12320   2.219   2.093   6.926  0.0987 -0.6058 -0.1074
  117OSM   H14F12321   2.280   2.005   6.897 -1.4875 -1.2425 -1.5994
  117OSM   H14G12322   2.113   2.058   6.931 -0.4814  1.1890  0.5026
  117OSM   C15F12323   2.278   2.124   7.070  0.3343 -0.0606  0.0692
  117OSM   H15F12324   2.249   2.229   7.092  1.6588  0.4657 -0.6497
  117OSM   H15G12325   2.388   2.134   7.059  0.1731  1.0972 -0.5915
  117OSM   C16F12326   2.238   2.026   7.178  0.1699 -0.9335 -0.2107
  117OSM   H16F12327   2.267   1.924   7.146  2.6895 -0.0314 -0.9883
  117OSM   H16G12328   2.128   2.020   7.189  0.4467 -1.8293  2.5648
  117OSM   C17F12329   2.307   2.057   7.314 -0.4041 -0.0558  0.4972
  117OSM   H17F12330   2.417   2.043   7.316 -0.0611  1.9527 -1.6862
  117OSM   H17G12331   2.278   2.162   7.337  1.1846  0.1941  1.3784
  117OSM   C18F12332   2.242   1.982   7.433 -1.2484 -0.2977  1.0031
  117OSM   H18F12333   2.291   2.009   7.529 -2.0418 -1.8463  1.8587
  117OSM   H18G12334   2.253   1.872   7.433 -1.3127 -0.3584 -2.1892
  117OSM   H18H12335   2.133   2.001   7.444 -1.2100 -0.7898  2.3052
  118OSM      N12336   4.973   5.314   5.810 -0.0011 -0.1841  0.3679
  118OSM    C1512337   5.079   5.212   5.777 -0.3437  0.2743 -0.3783
  118OSM   H15A12338   5.045   5.114   5.808  0.0648  0.9646  2.4381
  118OSM   H15B12339   5.178   5.223   5.817  0.1510  0.4677 -1.6526
  118OSM   H15C12340   5.093   5.202   5.671  1.5781 -2.2775  0.0843
  118OSM    C1412341   4.939   5.297   5.955  0.1958 -0.3547  0.3332
  118OSM   H14A12342   5.016   5.330   6.023  1.2274 -1.2449 -0.3948
  118OSM   H14B12343   4.901   5.198   5.973 -1.5383  0.2842  0.2708
  118OSM   H14C12344   4.858   5.364   5.980  0.7590  0.8121 -0.9247
  118OSM    C1312345   5.026   5.446   5.773 -0.1987 -0.3851  0.6300
  118OSM   H13A12346   4.959   5.531   5.773  1.8609  1.4236 -4.0177
  118OSM   H13B12347   5.056   5.438   5.669 -2.0392 -0.4131  0.0950
  118OSM   H13C12348   5.105   5.479   5.839 -1.2941  1.0482  1.2415
  118OSM    C1212349   4.854   5.281   5.723 -0.3358  0.7846 -0.0996
  118OSM   H12A12350   4.888   5.302   5.623  1.4414  1.8597  0.7006
  118OSM   H12B12351   4.772   5.349   5.742  0.3166  1.4739  0.2884
  118OSM    C1112352   4.810   5.129   5.723 -0.0640 -0.5468  0.4641
  118OSM   H11A12353   4.893   5.077   5.671  0.3577  1.9731 -1.4721
  118OSM   H11B12354   4.725   5.122   5.653 -0.9881  0.1282  1.4875
  118OSM      P12355   4.626   5.108   5.903  0.0975  0.0927 -0.2965
  118OSM    O1312356   4.576   5.232   5.842  0.2262  0.4180  0.2888
  118OSM    O1412357   4.539   4.988   5.890 -0.5924 -0.7559 -0.4128
  118OSM    O1112358   4.659   5.144   6.050  0.1451 -0.1122 -0.4039
  118OSM    O1212359   4.772   5.091   5.858  0.0432 -0.7549 -0.0424
  118OSM    C1S12360   4.717   5.052   6.145  0.1688 -0.7656  0.2420
  118OSM    H1S12361   4.812   5.007   6.108 -0.0971 -0.9645 -0.2096
  118OSM    H1T12362   4.656   4.962   6.164  0.5119 -0.9632  0.4138
  118OSM     NF12363   4.821   5.052   6.375 -0.0667 -0.5037  0.3216
  118OSM    HNF12364   4.788   4.979   6.434 -2.1093 -0.3671 -0.6191
  118OSM    C2S12365   4.727   5.121   6.283 -0.2762  0.3048  0.5610
  118OSM    H2S12366   4.775   5.220   6.267 -0.5215  0.6129  1.6886
  118OSM    C3S12367   4.592   5.139   6.342 -0.1112  0.1021  0.5502
  118OSM    H3S12368   4.545   5.039   6.356 -0.8485  0.4076  0.2826
  118OSM     O312369   4.500   5.213   6.263 -0.0744 -0.6516  0.0430
  118OSM    HO312370   4.535   5.206   6.174  0.8703 -0.7821  0.4219
  118OSM    C4S12371   4.607   5.212   6.480  0.7863 -0.3340  0.0506
  118OSM    H4S12372   4.649   5.312   6.460  0.3214 -0.0556  0.4334
  118OSM    C5S12373   4.581   5.167   6.602  0.2153 -0.3291  0.0145
  118OSM    H5S12374   4.562   5.060   6.621  0.1404 -0.0972  1.3528
  118OSM    C6S12375   4.592   5.250   6.729  0.5729  0.1936 -0.4677
  118OSM    H6S12376   4.641   5.348   6.714  1.9790 -0.5658 -0.8710
  118OSM    H6T12377   4.652   5.193   6.802 -0.0535  1.1385  0.8027
  118OSM    C7S12378   4.457   5.285   6.783  0.3956 -0.4782  0.1027
  118OSM    H7S12379   4.400   5.190   6.792  0.4266 -0.3461  1.7070
  118OSM    H7T12380   4.397   5.347   6.712  0.7833 -0.5856 -0.3199
  118OSM    C8S12381   4.465   5.348   6.927  0.7293 -0.0698 -0.2239
  118OSM    H8S12382   4.366   5.387   6.960  1.0849  0.8555 -0.2163
  118OSM    H8T12383   4.531   5.437   6.933  2.1487 -0.9318 -2.2433
  118OSM    C9S12384   4.506   5.245   7.024 -0.1289 -0.6108 -0.1700
  118OSM    H9S12385   4.617   5.247   7.020 -0.0550  1.5336  1.9894
  118OSM    H9T12386   4.483   5.140   6.994 -1.9820 -0.6148  1.2067
  118OSM   C10S12387   4.457   5.276   7.168 -0.0026 -0.0828  0.9013
  118OSM   H10S12388   4.525   5.222   7.238 -0.2055  0.9005  1.8790
  118OSM   H10T12389   4.358   5.230   7.191  0.9951 -2.2616  0.9856
  118OSM   C11S12390   4.474   5.421   7.216  0.7848  0.0775 -0.2867
  118OSM   H11S12391   4.408   5.475   7.144  1.9017  1.7781 -0.0504
  118OSM   H11T12392   4.576   5.464   7.208  0.8005 -0.0489 -0.7348
  118OSM   C12S12393   4.418   5.438   7.355  0.4447 -0.1458 -0.1876
  118OSM   H12S12394   4.475   5.365   7.416  1.2674  1.0606  0.5211
  118OSM   H12T12395   4.315   5.398   7.364  0.9958 -1.4260  0.4334
  118OSM   C13S12396   4.407   5.583   7.408  0.3619  0.3451 -0.1063
  118OSM   H13S12397   4.311   5.626   7.373  0.1901 -0.1510 -0.2595
  118OSM   H13T12398   4.491   5.644   7.370 -0.4016  0.5648 -1.4631
  118OSM   C14S12399   4.403   5.585   7.562  0.4816  0.4935 -0.4928
  118OSM   H14S12400   4.322   5.521   7.603 -0.0398  1.2492 -0.3319
  118OSM   H14T12401   4.398   5.689   7.601  0.3189 -0.5381  2.3528
  118OSM   C15S12402   4.538   5.540   7.613  0.2637 -0.5680  0.0602
  118OSM   H15S12403   4.626   5.605   7.593  0.6115 -1.2602 -0.6734
  118OSM   H15T12404   4.551   5.433   7.585  1.1944 -0.0205 -1.6626
  118OSM   C16S12405   4.548   5.536   7.765 -0.4282 -0.9826 -0.1645
  118OSM   H16S12406   4.646   5.491   7.789 -0.7640 -1.9963 -0.6475
  118OSM   H16T12407   4.480   5.456   7.801  1.6806 -1.1397  3.6944
  118OSM   C17S12408   4.531   5.674   7.833  0.1784 -0.0178  0.0488
  118OSM   H17S12409   4.422   5.695   7.828 -0.3820 -3.0761 -1.7843
  118OSM   H17T12410   4.588   5.755   7.783 -1.8618  0.9407 -0.7864
  118OSM   C18S12411   4.572   5.667   7.977 -0.2552  0.3840  0.0268
  118OSM   H18S12412   4.680   5.644   7.981 -0.3846 -0.8351 -2.6111
  118OSM   H18T12413   4.525   5.583   8.032  1.3009 -1.8604 -1.9692
  118OSM   H18U12414   4.560   5.768   8.021  0.3769  1.2286 -1.6970
  118OSM    C1F12415   4.957   5.066   6.352 -0.0714 -0.5559  0.8518
  118OSM     OF12416   4.988   5.149   6.266  0.1817 -0.2147 -0.7176
  118OSM    C2F12417   5.053   4.997   6.436  0.5635  0.5317 -0.3686
  118OSM    H2F12418   5.122   5.068   6.485  0.5167 -0.4486  1.1792
  118OSM    H2G12419   5.119   4.932   6.375 -1.3508 -3.6561  1.7990
  118OSM    C3F12420   4.980   4.911   6.544  0.1553  0.0921  0.1575
  118OSM    H3F12421   4.906   4.839   6.505 -2.1569  2.7909 -0.6639
  118OSM    H3G12422   4.917   4.985   6.599 -1.3429  0.1723 -1.6330
  118OSM    C4F12423   5.080   4.846   6.642  0.5533  0.3445  0.6134
  118OSM    H4F12424   5.158   4.914   6.682  2.3447 -2.2736  1.7068
  118OSM    H4G12425   5.141   4.789   6.568  0.3406  0.9273 -0.0255
  118OSM    C5F12426   5.031   4.767   6.753 -0.3716  0.5378 -0.0499
  118OSM    H5F12427   5.123   4.745   6.811  0.7808  3.0612 -0.8504
  118OSM    H5G12428   4.990   4.672   6.714  0.7233  0.2501 -0.5255
  118OSM    C6F12429   4.918   4.821   6.849 -0.3274  0.0073  0.4437
  118OSM    H6F12430   4.898   4.728   6.905 -0.9368 -2.0006 -2.9725
  118OSM    H6G12431   4.824   4.828   6.791 -1.5300 -2.0673  2.0878
  118OSM    C7F12432   4.941   4.957   6.922  0.0448 -0.0643  0.4491
  118OSM    H7F12433   4.856   4.996   6.981  1.3945  2.7209  0.6462
  118OSM    H7G12434   4.966   5.020   6.833 -0.2009  1.3288  1.3482
  118OSM    C8F12435   5.065   4.946   7.013  0.2785 -0.2472 -0.8232
  118OSM    H8F12436   5.155   4.924   6.951 -0.2013 -1.9879 -0.9161
  118OSM    H8G12437   5.049   4.866   7.088 -0.7689  0.4020 -0.3368
  118OSM    C9F12438   5.089   5.069   7.089 -0.4628 -0.6283 -0.2461
  118OSM    H9F12439   5.169   5.133   7.049  0.4604 -3.1890 -2.6577
  118OSM   C10F12440   5.026   5.109   7.199 -0.7989 -0.2117  0.5678
  118OSM   H10F12441   5.053   5.204   7.248 -0.2820 -1.4014  2.6650
  118OSM   C11F12442   4.915   5.033   7.274  0.2173 -0.9216 -0.3141
  118OSM   H11F12443   4.940   5.010   7.380  1.7032  1.6664 -0.0721
  118OSM   H11G12444   4.891   4.934   7.229 -0.3249 -0.6628 -0.6050
  118OSM   C12F12445   4.776   5.105   7.289 -0.3446  0.1706  0.4913
  118OSM   H12F12446   4.711   5.022   7.324  1.5419 -1.5272  0.0744
  118OSM   H12G12447   4.741   5.122   7.184  3.4550 -0.0928 -0.8915
  118OSM   C13F12448   4.774   5.234   7.377  0.8277 -0.0872 -0.0706
  118OSM   H13F12449   4.676   5.286   7.381  1.5599  1.5024 -1.8002
  118OSM   H13G12450   4.838   5.309   7.326  0.1312 -0.1968 -1.1206
  118OSM   C14F12451   4.812   5.229   7.528  0.4456 -0.7375  0.4948
  118OSM   H14F12452   4.829   5.334   7.562 -1.0310 -1.0369  2.2493
  118OSM   H14G12453   4.904   5.171   7.549  0.6991 -0.8711 -0.9353
  118OSM   C15F12454   4.710   5.166   7.622  0.3806 -0.2227  0.2845
  118OSM   H15F12455   4.699   5.058   7.598 -1.5719  0.4862 -2.3030
  118OSM   H15G12456   4.606   5.204   7.614  0.7054  1.1025  2.0740
  118OSM   C16F12457   4.749   5.186   7.773 -0.1587 -0.1342  0.3882
  118OSM   H16F12458   4.741   5.294   7.798  2.1748  0.0092  0.6111
  118OSM   H16G12459   4.856   5.157   7.783 -1.1348 -4.1206 -0.0613
  118OSM   C17F12460   4.658   5.112   7.862  0.4851  0.4276 -0.4808
  118OSM   H17F12461   4.663   5.001   7.855 -0.5766  0.3722 -0.4186
  118OSM   H17G12462   4.552   5.137   7.838  0.5380 -1.0842 -2.4306
  118OSM   C18F12463   4.699   5.142   8.013  0.0584 -0.7194 -0.3761
  118OSM   H18F12464   4.662   5.244   8.035  3.4359 -0.0173  2.6711
  118OSM   H18G12465   4.809   5.155   8.026 -0.1877  0.7724  0.2864
  118OSM   H18H12466   4.664   5.062   8.082  1.4492 -1.5365 -0.5891
  119OSM      N12467   4.971   4.286   5.823 -0.5497  0.2630 -0.5772
  119OSM    C1512468   5.041   4.407   5.881 -0.1640  0.3334  0.1741
  119OSM   H15A12469   4.990   4.432   5.973  0.7411 -0.6544  0.9575
  119OSM   H15B12470   5.047   4.483   5.804  3.3089 -0.8001 -0.7440
  119OSM   H15C12471   5.141   4.374   5.904  0.7927  2.6789 -0.4387
  119OSM    C1412472   4.838   4.317   5.773  0.5241 -0.0362  0.0568
  119OSM   H14A12473   4.796   4.230   5.724  0.0394 -1.5095  2.9519
  119OSM   H14B12474   4.832   4.404   5.710 -0.3484  0.1405  0.3915
  119OSM   H14C12475   4.768   4.335   5.853  3.3624  1.6478  2.2656
  119OSM    C1312476   5.054   4.231   5.710 -0.2047 -0.0773 -0.2849
  119OSM   H13A12477   5.160   4.227   5.726 -0.2708 -0.4931  0.0510
  119OSM   H13B12478   5.029   4.276   5.615  0.3237 -2.7241 -1.7364
  119OSM   H13C12479   5.024   4.129   5.691  0.2865 -0.1526 -0.6488
  119OSM    C1212480   4.967   4.175   5.932  0.2039 -0.1681 -0.9347
  119OSM   H12A12481   4.895   4.098   5.907  0.6547 -0.8245 -0.2514
  119OSM   H12B12482   4.923   4.213   6.023  1.5630  0.9363 -0.7257
  119OSM    C1112483   5.099   4.097   5.973 -0.2885 -0.0261 -0.3690
  119OSM   H11A12484   5.132   4.023   5.897  1.1472 -1.5268  1.6534
  119OSM   H11B12485   5.070   4.038   6.062 -1.2044  0.2915 -0.4569
  119OSM      P12486   5.339   4.198   5.931 -0.1306 -0.3175  0.1549
  119OSM    O1312487   5.325   4.138   5.800  0.0356  0.0811  0.3043
  119OSM    O1412488   5.387   4.339   5.941  0.0795  0.4468 -0.0680
  119OSM    O1112489   5.425   4.096   6.012 -0.0331 -0.0901  0.3076
  119OSM    O1212490   5.204   4.190   6.005 -0.7200 -0.8362  0.2245
  119OSM    C1S12491   5.493   4.142   6.132  0.9240 -0.1652 -0.3178
  119OSM    H1S12492   5.523   4.249   6.133 -2.0181  0.7124  0.2589
  119OSM    H1T12493   5.586   4.082   6.136  1.1363  0.1983  0.4104
  119OSM     NF12494   5.478   4.153   6.373  0.0209 -0.1021 -0.1357
  119OSM    HNF12495   5.551   4.094   6.406  0.2708  0.1107 -0.2986
  119OSM    C2S12496   5.409   4.106   6.263  0.7535 -0.6086 -0.8847
  119OSM    H2S12497   5.310   4.156   6.258  0.3688 -1.0193  1.7579
  119OSM    C3S12498   5.374   3.953   6.278 -0.7300 -0.6470  0.1395
  119OSM    H3S12499   5.470   3.898   6.291  0.2438  1.3345  1.5134
  119OSM     O312500   5.292   3.894   6.171 -0.6376 -0.6102  0.3740
  119OSM    HO312501   5.299   3.963   6.105 -1.6553 -1.0045 -0.1476
  119OSM    C4S12502   5.302   3.932   6.411  0.2216  0.2840  0.2288
  119OSM    H4S12503   5.366   3.895   6.493  0.7958  0.5715 -0.0878
  119OSM    C5S12504   5.172   3.934   6.432  0.9046 -0.1242  0.3426
  119OSM    H5S12505   5.107   3.955   6.346  1.0731  1.3469  0.5736
  119OSM    C6S12506   5.118   3.903   6.570 -0.9447  0.2549  0.6971
  119OSM    H6S12507   5.044   3.821   6.567  0.4177 -0.9880  0.5821
  119OSM    H6T12508   5.060   3.991   6.605 -0.7725  0.4622  0.4687
  119OSM    C7S12509   5.211   3.870   6.693  0.0323 -0.2054  0.2601
  119OSM    H7S12510   5.292   3.944   6.704  0.8068 -0.9688 -0.2486
  119OSM    H7T12511   5.263   3.776   6.664 -1.7412 -0.5258 -2.0220
  119OSM    C8S12512   5.131   3.852   6.820 -0.3580 -0.5271  0.1232
  119OSM    H8S12513   5.211   3.821   6.891 -0.4868 -0.9190  0.0967
  119OSM    H8T12514   5.062   3.765   6.813 -3.1089  1.4613  1.5668
  119OSM    C9S12515   5.041   3.967   6.866  0.7161 -0.0637  0.5284
  119OSM    H9S12516   4.954   3.971   6.797 -0.4809  0.4578  2.0535
  119OSM    H9T12517   5.103   4.059   6.873  0.1132  0.4523 -0.6591
  119OSM   C10S12518   4.990   3.943   7.014  0.0330 -0.1766 -0.3347
  119OSM   H10S12519   5.065   3.962   7.093  0.8571  0.3298 -1.2263
  119OSM   H10T12520   4.967   3.836   7.033 -0.7364  0.4347  2.3923
  119OSM   C11S12521   4.864   4.027   7.043  0.6479 -0.2627  0.2032
  119OSM   H11S12522   4.832   4.001   7.146  0.9522  0.3997  0.4621
  119OSM   H11T12523   4.784   4.013   6.967 -1.2283  2.0096  1.7158
  119OSM   C12S12524   4.909   4.175   7.053  0.5445  0.8952 -0.1056
  119OSM   H12S12525   4.953   4.220   6.961 -1.1944  0.1608 -1.3083
  119OSM   H12T12526   4.979   4.182   7.139  0.3351 -3.1932  0.4683
  119OSM   C13S12527   4.787   4.262   7.107 -0.3115  1.5436  0.3786
  119OSM   H13S12528   4.723   4.211   7.182 -2.2451  0.7371 -1.7690
  119OSM   H13T12529   4.717   4.274   7.022 -1.6382  1.8815  1.4968
  119OSM   C14S12530   4.825   4.402   7.154 -0.1026 -0.4505 -0.4843
  119OSM   H14S12531   4.872   4.466   7.075 -1.0661  1.6897  0.6397
  119OSM   H14T12532   4.903   4.388   7.232  1.2781 -0.2534 -1.7997
  119OSM   C15S12533   4.706   4.483   7.225 -0.2688 -0.1509  0.8644
  119OSM   H15S12534   4.653   4.408   7.288 -0.2758  0.0229  1.0634
  119OSM   H15T12535   4.628   4.511   7.151  1.8812  0.9306 -1.0540
  119OSM   C16S12536   4.731   4.598   7.324  0.3732 -0.0048  0.2341
  119OSM   H16S12537   4.637   4.614   7.381  0.1355  2.8432 -0.8895
  119OSM   H16T12538   4.764   4.687   7.267 -1.0667  0.0382 -0.5592
  119OSM   C17S12539   4.848   4.560   7.420 -0.6087 -0.3064  0.1209
  119OSM   H17S12540   4.939   4.529   7.363  0.8568  0.2417  2.0845
  119OSM   H17T12541   4.819   4.477   7.487  2.3093 -0.9258  0.7010
  119OSM   C18S12542   4.892   4.676   7.502  0.9900  0.4012 -0.0025
  119OSM   H18S12543   4.954   4.642   7.588 -0.3261 -0.2797  0.7107
  119OSM   H18T12544   4.807   4.722   7.557  1.6736 -0.3562  1.7353
  119OSM   H18U12545   4.937   4.761   7.448  2.5031 -0.3191  0.1011
  119OSM    C1F12546   5.466   4.280   6.421  0.7138 -0.8173  0.3146
  119OSM     OF12547   5.462   4.373   6.338 -0.0498 -0.7122 -0.6164
  119OSM    C2F12548   5.451   4.317   6.569 -0.2673  0.2393  0.1225
  119OSM    H2F12549   5.552   4.356   6.595  1.0703 -0.0357 -4.2993
  119OSM    H2G12550   5.437   4.225   6.630  1.2630  0.3430  0.6542
  119OSM    C3F12551   5.333   4.413   6.599 -0.1826  0.6267  0.2002
  119OSM    H3F12552   5.248   4.349   6.568  1.4460 -0.6336 -1.8254
  119OSM    H3G12553   5.337   4.509   6.543  1.9966  0.6825  0.3925
  119OSM    C4F12554   5.296   4.450   6.741  0.2029 -0.1421  0.0708
  119OSM    H4F12555   5.211   4.521   6.744 -1.1641 -1.7323 -0.2930
  119OSM    H4G12556   5.378   4.509   6.787 -0.5992  0.1242  1.1970
  119OSM    C5F12557   5.280   4.331   6.842 -0.2069  0.5249  0.0669
  119OSM    H5F12558   5.374   4.272   6.841  0.8849  2.2264  0.5745
  119OSM    H5G12559   5.201   4.257   6.816 -1.3385  1.3380  1.1505
  119OSM    C6F12560   5.246   4.379   6.983  0.3658  0.4089 -0.2076
  119OSM    H6F12561   5.136   4.389   6.994  0.3806  0.3342  0.0030
  119OSM    H6G12562   5.299   4.477   6.984  1.8868 -0.3696  3.3660
  119OSM    C7F12563   5.308   4.292   7.097 -0.3193 -0.7470  0.1264
  119OSM    H7F12564   5.416   4.306   7.076  0.9592 -2.2261  5.0053
  119OSM    H7G12565   5.283   4.184   7.085 -1.1585 -0.4246 -1.1507
  119OSM    C8F12566   5.262   4.344   7.238 -0.5517 -0.7539  0.4540
  119OSM    H8F12567   5.291   4.262   7.308 -2.0681 -1.3758  0.3740
  119OSM    H8G12568   5.151   4.346   7.242 -0.4957  1.1781  1.6594
  119OSM    C9F12569   5.316   4.480   7.281 -0.9169  0.1447 -0.6597
  119OSM    H9F12570   5.252   4.567   7.266 -0.3754  0.4234 -1.3877
  119OSM   C10F12571   5.447   4.487   7.329 -1.0348 -0.1185  0.2019
  119OSM   H10F12572   5.486   4.586   7.358  0.3011 -1.0931  1.7848
  119OSM   C11F12573   5.556   4.380   7.349 -0.4492  0.4275 -0.0435
  119OSM   H11F12574   5.644   4.413   7.291  0.6348 -2.1907  0.0287
  119OSM   H11G12575   5.538   4.280   7.303 -0.0629 -0.3349  1.4245
  119OSM   C12F12576   5.599   4.352   7.492  0.0680 -0.3420  0.7048
  119OSM   H12F12577   5.678   4.275   7.491 -1.2608 -1.7443  1.3391
  119OSM   H12G12578   5.515   4.305   7.547 -1.9670  0.8593 -1.2743
  119OSM   C13F12579   5.657   4.470   7.568 -0.0735 -0.1355 -0.9052
  119OSM   H13F12580   5.593   4.558   7.542 -0.9935  0.3595  2.7286
  119OSM   H13G12581   5.758   4.490   7.525 -0.0400  1.2285 -0.2276
  119OSM   C14F12582   5.679   4.464   7.724  0.4754  0.8405 -0.1960
  119OSM   H14F12583   5.576   4.449   7.763 -0.7973  2.2268 -2.9349
  119OSM   H14G12584   5.734   4.557   7.746 -1.0015  2.1972 -2.1187
  119OSM   C15F12585   5.752   4.340   7.774 -0.0567 -0.1855  0.0567
  119OSM   H15F12586   5.855   4.339   7.734  0.6905 -0.8330  1.9139
  119OSM   H15G12587   5.705   4.245   7.739 -2.2815  0.1662  1.9435
  119OSM   C16F12588   5.752   4.339   7.924 -0.8627 -0.0658  0.1309
  119OSM   H16F12589   5.654   4.317   7.971 -0.4399  0.0150  1.0585
  119OSM   H16G12590   5.797   4.433   7.964 -1.4766  0.3558 -0.1555
  119OSM   C17F12591   5.840   4.217   7.976  0.4359  0.9798  0.1619
  119OSM   H17F12592   5.937   4.238   7.926  0.8326  1.3516  1.0762
  119OSM   H17G12593   5.801   4.119   7.941 -0.5437  1.6754 -0.7342
  119OSM   C18F12594   5.863   4.215   8.130  0.7060 -0.1913 -0.8238
  119OSM   H18F12595   5.774   4.240   8.191  1.9387  1.8613  0.1864
  119OSM   H18G12596   5.930   4.299   8.158 -0.5060  0.4782  0.0913
  119OSM   H18H12597   5.905   4.115   8.156 -0.1969 -0.3961 -0.1355
  120OSM      N12598   3.776   2.376   5.809 -0.3401  0.2131 -0.4523
  120OSM    C1512599   3.739   2.500   5.740 -0.4332  0.0900  1.2011
  120OSM   H15A12600   3.701   2.470   5.644 -1.5794  0.4235  1.5423
  120OSM   H15B12601   3.825   2.562   5.717  2.9388 -3.8682  2.6198
  120OSM   H15C12602   3.658   2.543   5.797 -1.4669  0.0279 -0.2055
  120OSM    C1412603   3.834   2.404   5.946 -0.3644 -0.4098 -0.0502
  120OSM   H14A12604   3.925   2.462   5.956 -0.3629 -0.8690  2.9901
  120OSM   H14B12605   3.852   2.307   5.989 -1.6436 -1.7338 -2.4524
  120OSM   H14C12606   3.754   2.453   6.000  0.7149 -0.1106  1.3237
  120OSM    C1312607   3.655   2.295   5.829 -0.1734 -0.3929 -0.3287
  120OSM   H13A12608   3.609   2.244   5.745 -0.4335 -0.3007 -0.2421
  120OSM   H13B12609   3.586   2.369   5.864 -0.9225 -0.5650 -1.4147
  120OSM   H13C12610   3.665   2.220   5.907 -1.0213 -0.0016  0.1593
  120OSM    C1212611   3.878   2.308   5.727 -0.4750  0.1290 -0.3402
  120OSM   H12A12612   3.967   2.364   5.703 -0.2426 -0.6357 -1.3102
  120OSM   H12B12613   3.837   2.272   5.634 -2.2249  1.1155  0.0345
  120OSM    C1112614   3.942   2.177   5.798 -0.4767  0.2032  0.6373
  120OSM   H11A12615   3.991   2.212   5.891  1.5845 -0.9232  0.0089
  120OSM   H11B12616   4.019   2.135   5.730 -0.6230 -0.8416  1.1077
  120OSM      P12617   3.880   1.978   5.948 -0.1888  0.2363  0.1116
  120OSM    O1312618   3.790   1.858   5.938 -0.3784 -0.3330  0.2548
  120OSM    O1412619   4.026   1.946   5.955  0.5913  0.8557  0.0702
  120OSM    O1112620   3.836   2.071   6.062 -0.3268 -0.5118  0.2701
  120OSM    O1212621   3.845   2.071   5.826 -0.3762 -0.6033  0.7918
  120OSM    C1S12622   3.798   2.021   6.192  0.3885  0.4097 -0.0490
  120OSM    H1S12623   3.758   1.918   6.193  0.4950  0.3686 -0.1297
  120OSM    H1T12624   3.718   2.088   6.231  1.0330 -1.4876  4.9554
  120OSM     NF12625   3.874   1.949   6.401 -0.0325 -0.6919 -0.6310
  120OSM    HNF12626   3.844   2.005   6.478 -2.1183  0.5879 -2.3340
  120OSM    C2S12627   3.910   2.023   6.288  0.1462  0.2427  1.0034
  120OSM    H2S12628   3.999   1.979   6.239 -0.5325 -0.9197  0.8121
  120OSM    C3S12629   3.931   2.171   6.320 -0.0549 -0.1058  0.2888
  120OSM    H3S12630   3.838   2.221   6.354  1.2504  0.6660  2.8526
  120OSM     O312631   3.983   2.248   6.213 -0.4780 -0.1878 -0.8073
  120OSM    HO312632   3.963   2.196   6.134  0.6970  0.6075 -1.6497
  120OSM    C4S12633   4.030   2.193   6.430 -0.2986  0.3858 -0.3092
  120OSM    H4S12634   4.134   2.183   6.397  0.0999 -0.6802  1.2439
  120OSM    C5S12635   4.000   2.226   6.557 -1.0345  0.6342  0.0561
  120OSM    H5S12636   3.896   2.208   6.589 -0.8419 -0.7742 -0.0747
  120OSM    C6S12637   4.107   2.253   6.660  0.1539 -0.5957 -0.3251
  120OSM    H6S12638   4.079   2.346   6.713  0.4829  2.0143 -4.4837
  120OSM    H6T12639   4.211   2.266   6.623  0.3457  0.6435  0.6312
  120OSM    C7S12640   4.123   2.137   6.767 -0.3637 -0.2316 -0.3759
  120OSM    H7S12641   4.166   2.049   6.714  2.5170  1.5206 -1.0455
  120OSM    H7T12642   4.024   2.104   6.807 -1.7280  1.5112 -2.2050
  120OSM    C8S12643   4.210   2.173   6.887  1.1216 -0.5433  0.2820
  120OSM    H8S12644   4.180   2.272   6.927 -1.5928 -1.5893  0.9661
  120OSM    H8T12645   4.313   2.171   6.846  0.3462 -1.8529 -1.6682
  120OSM    C9S12646   4.191   2.070   6.997  0.2946  0.8030  0.1836
  120OSM    H9S12647   4.218   1.972   6.951 -1.6715  0.6952 -0.7853
  120OSM    H9T12648   4.080   2.062   7.003 -0.0225  4.2941 -0.2640
  120OSM   C10S12649   4.253   2.094   7.139  0.3818  0.2796  0.3042
  120OSM   H10S12650   4.215   2.187   7.186  0.9061 -0.3726  2.0525
  120OSM   H10T12651   4.363   2.093   7.155  0.7318 -2.6030 -1.7475
  120OSM   C11S12652   4.187   1.990   7.223 -0.4542 -0.5203 -0.5308
  120OSM   H11S12653   4.077   2.004   7.225 -0.4515 -0.6202  0.8393
  120OSM   H11T12654   4.224   2.010   7.326  0.1335 -0.8120 -0.6841
  120OSM   C12S12655   4.222   1.846   7.213  0.3614 -0.0582 -0.0906
  120OSM   H12S12656   4.323   1.848   7.165 -0.7543  0.0154 -2.4894
  120OSM   H12T12657   4.166   1.788   7.136 -0.7419  2.4150 -1.2144
  120OSM   C13S12658   4.216   1.757   7.343  0.0036  0.1453  0.1123
  120OSM   H13S12659   4.109   1.746   7.374  0.0864  0.2654  0.4364
  120OSM   H13T12660   4.265   1.813   7.424  0.1148  3.1663 -1.9648
  120OSM   C14S12661   4.278   1.620   7.315 -0.7688  0.4528  0.0193
  120OSM   H14S12662   4.248   1.584   7.215  0.7651  0.8898 -0.6147
  120OSM   H14T12663   4.239   1.546   7.388  0.8565  0.9445  1.4376
  120OSM   C15S12664   4.433   1.611   7.316  0.6723  0.2836  0.2693
  120OSM   H15S12665   4.470   1.645   7.415  0.3557  0.5620  0.2931
  120OSM   H15T12666   4.472   1.683   7.241 -0.2622  0.9661  0.4251
  120OSM   C16S12667   4.481   1.468   7.282  0.5167 -0.6471 -0.1042
  120OSM   H16S12668   4.446   1.455   7.177 -1.3958 -1.0906  0.5778
  120OSM   H16T12669   4.445   1.392   7.355  0.3331 -0.1960  0.2766
  120OSM   C17S12670   4.634   1.452   7.285  0.4743 -0.0448  0.2472
  120OSM   H17S12671   4.663   1.345   7.282 -4.0811 -1.5378  3.0904
  120OSM   H17T12672   4.669   1.483   7.385  0.5079  0.1648  0.1703
  120OSM   C18S12673   4.712   1.515   7.162  0.8862 -0.2780  0.5516
  120OSM   H18S12674   4.687   1.623   7.157 -1.4990 -0.8273 -0.0320
  120OSM   H18T12675   4.669   1.480   7.066  0.6524  3.0890 -0.6484
  120OSM   H18U12676   4.820   1.493   7.157  0.9920  0.1350  0.9168
  120OSM    C1F12677   3.898   1.819   6.411 -0.5628  0.2498  0.7445
  120OSM     OF12678   3.951   1.756   6.323 -0.3153  0.0771 -0.6666
  120OSM    C2F12679   3.838   1.751   6.534 -0.6009  0.6407 -0.3219
  120OSM    H2F12680   3.764   1.670   6.516  0.6263 -0.4272 -0.6877
  120OSM    H2G12681   3.779   1.822   6.596 -1.9089  0.9210 -1.8545
  120OSM    C3F12682   3.951   1.688   6.617 -0.1757 -0.6585 -0.0905
  120OSM    H3F12683   4.047   1.744   6.611 -0.6200 -0.0262 -1.3345
  120OSM    H3G12684   3.967   1.591   6.565  0.3034 -0.1842 -0.8298
  120OSM    C4F12685   3.914   1.671   6.767  0.5490 -0.6690  0.2714
  120OSM    H4F12686   4.008   1.637   6.814  1.1594  0.1420 -0.3479
  120OSM    H4G12687   3.828   1.602   6.780 -1.2737  1.0253 -2.2485
  120OSM    C5F12688   3.892   1.800   6.853 -0.0593 -0.1522 -0.2702
  120OSM    H5F12689   3.838   1.875   6.791  0.7134  1.5322  1.0421
  120OSM    H5G12690   3.985   1.856   6.878 -0.9059  0.7610  0.8993
  120OSM    C6F12691   3.819   1.775   6.994 -0.0254 -1.0958 -0.2801
  120OSM    H6F12692   3.882   1.709   7.057  1.0185  1.5086  1.5086
  120OSM    H6G12693   3.722   1.722   6.979 -0.6222 -0.7691  2.1425
  120OSM    C7F12694   3.793   1.902   7.064  0.6217  0.2664  0.5215
  120OSM    H7F12695   3.738   1.978   7.004  1.7024  0.7292  0.1072
  120OSM    H7G12696   3.888   1.955   7.085  0.8242 -0.1187  0.5729
  120OSM    C8F12697   3.700   1.888   7.187 -0.5593 -0.5330  1.4041
  120OSM    H8F12698   3.618   1.817   7.163 -0.4395 -0.0254 -0.6375
  120OSM    H8G12699   3.644   1.980   7.215  0.3323  0.2833  0.5176
  120OSM    C9F12700   3.774   1.822   7.307 -0.0414  0.1156 -0.1615
  120OSM    H9F12701   3.798   1.717   7.283  2.7602  0.5915  0.4058
  120OSM   C10F12702   3.829   1.872   7.421  0.3620 -0.3041 -0.2754
  120OSM   H10F12703   3.874   1.801   7.491  1.3270 -1.6569 -2.2450
  120OSM   C11F12704   3.826   2.022   7.456 -0.1497 -0.4668  0.9067
  120OSM   H11F12705   3.736   2.044   7.517  0.4385  1.7412  1.0364
  120OSM   H11G12706   3.812   2.088   7.368  3.9035  1.4392  1.5387
  120OSM   C12F12707   3.960   2.071   7.512 -0.0098 -0.0396  0.8567
  120OSM   H12F12708   3.953   2.182   7.506 -1.9589 -0.2266 -0.7273
  120OSM   H12G12709   4.047   2.040   7.450  0.0953  1.2569  0.3381
  120OSM   C13F12710   3.973   2.013   7.657  0.0496 -0.4233  0.0695
  120OSM   H13F12711   4.012   1.910   7.641  0.7518 -0.0976 -0.3171
  120OSM   H13G12712   3.874   2.006   7.706  0.3726  1.4015  1.0248
  120OSM   C14F12713   4.075   2.074   7.754  0.0489 -0.0797  0.5930
  120OSM   H14F12714   4.079   1.992   7.829 -0.1125 -1.2746 -0.6945
  120OSM   H14G12715   4.038   2.167   7.803 -0.4250 -0.5382  1.1123
  120OSM   C15F12716   4.218   2.091   7.692 -0.9058 -0.1816 -0.6029
  120OSM   H15F12717   4.219   2.154   7.601  0.7282  1.1634  0.3255
  120OSM   H15G12718   4.243   1.990   7.653 -0.5337 -0.5825  0.6358
  120OSM   C16F12719   4.332   2.122   7.792 -0.1311 -0.1417 -0.7529
  120OSM   H16F12720   4.333   2.044   7.871  2.9280  0.1939 -0.3883
  120OSM   H16G12721   4.313   2.216   7.849  1.6331 -0.4739  0.4112
  120OSM   C17F12722   4.475   2.140   7.736 -0.3778  0.1878 -0.4100
  120OSM   H17F12723   4.495   2.065   7.657  0.1864 -0.1396  0.0440
  120OSM   H17G12724   4.562   2.147   7.805 -0.2671 -1.2679 -0.3903
  120OSM   C18F12725   4.476   2.264   7.647 -0.3083  0.6519  0.9519
  120OSM   H18F12726   4.444   2.239   7.544 -1.2043  3.8312  0.4115
  120OSM   H18G12727   4.584   2.293   7.650 -0.0285 -0.3217  0.3680
  120OSM   H18H12728   4.419   2.350   7.688  0.2406  2.2062 -1.4968
  121OSM      N12729   5.450   3.744   5.809 -0.5574  0.4772  0.4657
  121OSM    C1512730   5.433   3.745   5.662  0.5601 -0.6308 -0.7433
  121OSM   H15A12731   5.431   3.848   5.629 -2.9191 -0.6620 -0.8563
  121OSM   H15B12732   5.336   3.706   5.637  0.1835  0.3552 -0.8667
  121OSM   H15C12733   5.501   3.675   5.616 -0.0510 -1.5984 -0.1701
  121OSM    C1412734   5.324   3.809   5.868  0.5157 -0.1234 -0.1131
  121OSM   H14A12735   5.314   3.909   5.826 -0.8597  0.6494  1.9661
  121OSM   H14B12736   5.329   3.819   5.975 -1.3681 -0.5565  0.0365
  121OSM   H14C12737   5.235   3.749   5.857  1.7185 -2.2503  1.5343
  121OSM    C1312738   5.469   3.598   5.838  0.0273 -0.8230  0.2169
  121OSM   H13A12739   5.386   3.548   5.792 -0.5110  1.1451 -1.0211
  121OSM   H13B12740   5.480   3.581   5.944  4.0010  0.0633  0.0454
  121OSM   H13C12741   5.565   3.565   5.801 -0.6963 -2.3405 -0.3390
  121OSM    C1212742   5.569   3.822   5.850 -0.2747  0.3923  0.5300
  121OSM   H12A12743   5.556   3.920   5.807  0.3030  1.1093  1.9763
  121OSM   H12B12744   5.652   3.773   5.801 -0.4069  0.2559  0.4407
  121OSM    C1112745   5.616   3.820   5.999 -0.1673  0.2762  0.0745
  121OSM   H11A12746   5.533   3.857   6.064 -0.5752  2.8525 -1.8462
  121OSM   H11B12747   5.692   3.898   6.021  1.0964 -0.8518 -0.2538
  121OSM      P12748   5.817   3.651   6.025  0.0394  0.4108  0.0245
  121OSM    O1312749   5.820   3.503   6.010 -0.9706  0.6038 -0.8160
  121OSM    O1412750   5.884   3.736   5.922  0.1335 -0.8212 -0.3989
  121OSM    O1112751   5.870   3.682   6.167 -0.0804 -0.9226  0.3577
  121OSM    O1212752   5.666   3.692   6.045  0.0806  0.0596 -0.1621
  121OSM    C1S12753   5.911   3.816   6.195 -0.5884  0.1958  0.5006
  121OSM    H1S12754   5.830   3.884   6.160 -0.8667  0.0066  0.7837
  121OSM    H1T12755   6.008   3.844   6.148 -0.5566 -0.0698  0.4078
  121OSM     NF12756   5.928   3.977   6.390  0.4130  0.0969 -0.0507
  121OSM    HNF12757   6.020   4.014   6.391  0.0176  1.2401 -2.2829
  121OSM    C2S12758   5.927   3.837   6.351  0.0673  0.1222  0.3314
  121OSM    H2S12759   5.840   3.783   6.395 -0.0997 -0.7996 -1.0687
  121OSM    C3S12760   6.055   3.762   6.388  0.0365 -0.4286 -0.5556
  121OSM    H3S12761   6.145   3.816   6.350 -0.2124 -1.2507 -2.3754
  121OSM     O312762   6.069   3.635   6.327 -0.0381 -0.4999 -0.0895
  121OSM    HO312763   5.990   3.626   6.274 -2.5062 -0.9339  3.4752
  121OSM    C4S12764   6.063   3.750   6.535  0.1388  0.1225  0.1720
  121OSM    H4S12765   5.974   3.706   6.583 -1.4586  2.6686 -0.3572
  121OSM    C5S12766   6.161   3.788   6.613  0.2174  0.9325 -0.2848
  121OSM    H5S12767   6.244   3.843   6.564  0.5902 -0.5982 -1.4129
  121OSM    C6S12768   6.173   3.773   6.766 -0.5307  0.1740  1.2928
  121OSM    H6S12769   6.227   3.863   6.802  1.0746 -0.1274 -0.3319
  121OSM    H6T12770   6.251   3.700   6.795 -1.6072 -1.1870  0.7890
  121OSM    C7S12771   6.044   3.755   6.857  0.0869  0.5471 -0.4219
  121OSM    H7S12772   5.995   3.665   6.815  1.6351  0.6576 -2.5809
  121OSM    H7T12773   5.968   3.835   6.839 -1.0440 -0.6283 -0.9288
  121OSM    C8S12774   6.073   3.743   7.009  0.2086 -0.1876 -0.7247
  121OSM    H8S12775   6.167   3.682   7.007  0.2765 -0.0807 -0.8647
  121OSM    H8T12776   5.990   3.694   7.064 -0.3708  0.3992 -1.0791
  121OSM    C9S12777   6.107   3.877   7.069  0.3262  0.6440  0.7334
  121OSM    H9S12778   6.015   3.935   7.093 -0.2921 -0.4084  0.9058
  121OSM    H9T12779   6.171   3.930   6.996  0.0570 -0.7448 -0.5297
  121OSM   C10S12780   6.194   3.867   7.199  0.0623 -0.5121  0.2522
  121OSM   H10S12781   6.215   3.965   7.247  0.3494 -0.4830  0.0699
  121OSM   H10T12782   6.296   3.836   7.168 -0.4062  0.2449 -2.2392
  121OSM   C11S12783   6.149   3.760   7.300  0.1748 -0.1526 -0.1965
  121OSM   H11S12784   6.192   3.666   7.260  0.0527 -0.2145 -0.1844
  121OSM   H11T12785   6.038   3.766   7.289 -0.3731 -1.2576  3.9900
  121OSM   C12S12786   6.187   3.795   7.444 -0.5046  0.9106 -0.6028
  121OSM   H12S12787   6.157   3.897   7.475  2.0611  1.2579  0.8866
  121OSM   H12T12788   6.297   3.793   7.455 -0.1641 -0.9027 -3.7176
  121OSM   C13S12789   6.111   3.702   7.540 -0.1935  0.3527  0.1678
  121OSM   H13S12790   6.004   3.726   7.521 -0.6210 -1.0816  0.7470
  121OSM   H13T12791   6.113   3.737   7.645  2.4361 -0.7723  0.5243
  121OSM   C14S12792   6.146   3.556   7.532  0.7900 -0.1477  0.7228
  121OSM   H14S12793   6.127   3.514   7.431  1.5628  0.6239  0.2528
  121OSM   H14T12794   6.083   3.502   7.606  1.3679  0.0216  1.3501
  121OSM   C15S12795   6.295   3.531   7.552 -0.2542 -0.4103  0.5479
  121OSM   H15S12796   6.359   3.572   7.471 -2.8917 -0.5633 -1.7053
  121OSM   H15T12797   6.309   3.421   7.549 -0.5448 -0.4021 -1.6449
  121OSM   C16S12798   6.352   3.572   7.690  0.5247 -0.1147  0.5412
  121OSM   H16S12799   6.347   3.683   7.700  2.5836 -0.0639  1.1684
  121OSM   H16T12800   6.460   3.547   7.694 -0.0689 -2.5977  1.6351
  121OSM   C17S12801   6.284   3.503   7.805  0.3669  0.8281 -0.1077
  121OSM   H17S12802   6.304   3.396   7.780 -1.4560  0.7429 -1.2514
  121OSM   H17T12803   6.176   3.523   7.815  0.7074  2.5371  0.3955
  121OSM   C18S12804   6.347   3.527   7.943 -0.1131 -0.2030  0.3470
  121OSM   H18S12805   6.311   3.622   7.988 -1.6836 -0.6103 -0.0076
  121OSM   H18T12806   6.456   3.538   7.924 -0.5553 -2.0361 -3.6281
  121OSM   H18U12807   6.323   3.444   8.013 -1.6348 -0.1950 -0.1417
  121OSM    C1F12808   5.816   4.042   6.418 -0.1797 -0.6441 -0.1579
  121OSM     OF12809   5.701   3.989   6.408  0.2406 -0.1380  1.1889
  121OSM    C2F12810   5.833   4.186   6.448  0.2595 -0.2154 -0.5113
  121OSM    H2F12811   5.766   4.240   6.378  0.3714 -1.2304 -1.4295
  121OSM    H2G12812   5.941   4.210   6.439  0.4276 -0.4897  0.5999
  121OSM    C3F12813   5.789   4.226   6.593 -0.2575 -0.4819 -0.1412
  121OSM    H3F12814   5.683   4.195   6.599 -0.3968 -0.1886 -1.0578
  121OSM    H3G12815   5.781   4.337   6.588  0.1697 -0.2272  3.1109
  121OSM    C4F12816   5.885   4.164   6.704  0.4017  1.1460  0.3292
  121OSM    H4F12817   5.992   4.182   6.677  0.6104 -0.6245 -0.0951
  121OSM    H4G12818   5.870   4.054   6.698  1.0726  1.0784 -0.2175
  121OSM    C5F12819   5.850   4.213   6.842 -0.2107 -0.0030  0.6070
  121OSM    H5F12820   5.740   4.212   6.854 -0.5759 -0.8501 -2.4135
  121OSM    H5G12821   5.878   4.320   6.837  0.5353 -0.2414 -0.6550
  121OSM    C6F12822   5.908   4.141   6.960 -0.1374  1.0890 -0.3212
  121OSM    H6F12823   6.014   4.123   6.932  0.4597 -1.0228  3.0483
  121OSM    H6G12824   5.856   4.043   6.964 -1.2840  1.7291  1.4117
  121OSM    C7F12825   5.886   4.218   7.089  0.0254 -0.2138  0.1300
  121OSM    H7F12826   5.899   4.149   7.176  0.2362  0.9395  1.0322
  121OSM    H7G12827   5.782   4.256   7.101 -0.2503 -0.6801 -0.7273
  121OSM    C8F12828   5.983   4.328   7.114 -0.4215  0.3065  0.5275
  121OSM    H8F12829   5.979   4.404   7.032  2.8678  0.3265  0.2930
  121OSM    H8G12830   6.087   4.288   7.115  0.4665  2.1768 -3.6007
  121OSM    C9F12831   5.963   4.388   7.261  0.0470 -0.2716  0.8339
  121OSM    H9F12832   5.905   4.482   7.258 -1.4757 -1.2105  0.3037
  121OSM   C10F12833   6.008   4.343   7.375  0.2845  0.6027 -0.0597
  121OSM   H10F12834   5.985   4.402   7.465  0.4860 -0.7556  0.8905
  121OSM   C11F12835   6.097   4.218   7.405  0.5812 -0.2520  0.2662
  121OSM   H11F12836   6.117   4.153   7.317 -2.1966  0.1938 -0.7442
  121OSM   H11G12837   6.028   4.170   7.478  0.6645  0.3781  0.7578
  121OSM   C12F12838   6.221   4.245   7.485 -0.8044 -0.6092 -0.6831
  121OSM   H12F12839   6.252   4.159   7.548  0.4595  1.7923  2.1174
  121OSM   H12G12840   6.208   4.332   7.552 -0.1394 -1.4638  0.5738
  121OSM   C13F12841   6.343   4.276   7.397 -0.8332  0.1351  0.3075
  121OSM   H13F12842   6.322   4.358   7.325 -0.6888 -0.4858 -0.4497
  121OSM   H13G12843   6.364   4.192   7.327 -2.1947 -1.2435  1.5176
  121OSM   C14F12844   6.466   4.313   7.481 -0.1830  0.5273  0.0263
  121OSM   H14F12845   6.508   4.219   7.522 -1.5760  0.5612  1.5685
  121OSM   H14G12846   6.438   4.363   7.575 -2.5652  0.7081 -0.7496
  121OSM   C15F12847   6.570   4.401   7.415 -0.3774  0.2215  0.3864
  121OSM   H15F12848   6.538   4.507   7.423  0.3279  0.4047  0.8649
  121OSM   H15G12849   6.577   4.359   7.313  2.9159 -0.5881  0.8889
  121OSM   C16F12850   6.711   4.392   7.476 -0.3815 -0.1114 -0.9543
  121OSM   H16F12851   6.777   4.452   7.410  1.1812 -0.7736 -0.0448
  121OSM   H16G12852   6.745   4.290   7.444 -0.1973  0.5475 -2.9453
  121OSM   C17F12853   6.726   4.411   7.627 -0.0201 -0.0868 -0.3035
  121OSM   H17F12854   6.670   4.338   7.689  0.8959 -0.7271 -0.2221
  121OSM   H17G12855   6.679   4.510   7.640 -1.6946 -0.9255  0.1403
  121OSM   C18F12856   6.872   4.402   7.666  0.4604 -0.0068 -0.2219
  121OSM   H18F12857   6.929   4.485   7.618  0.8221 -1.1817 -1.8345
  121OSM   H18G12858   6.922   4.305   7.645 -0.1081  0.1052 -2.1739
  121OSM   H18H12859   6.883   4.427   7.774  0.3809  1.6363 -0.5906
  122OSM      N12860   2.990   5.757   5.810  0.4965 -0.2155 -0.4285
  122OSM    C1512861   3.113   5.679   5.845  0.8131 -0.7292 -0.4862
  122OSM   H15A12862   3.132   5.683   5.951  0.0490 -0.3280 -0.3583
  122OSM   H15B12863   3.197   5.731   5.800  0.7264  0.3717  0.6094
  122OSM   H15C12864   3.124   5.576   5.817  0.9319 -0.2235 -2.4428
  122OSM    C1412865   3.001   5.900   5.870 -0.2170  0.8185  0.4076
  122OSM   H14A12866   3.039   5.907   5.971  0.5418 -0.5756  0.2247
  122OSM   H14B12867   2.901   5.942   5.868 -0.4630  0.1926 -0.6668
  122OSM   H14C12868   3.060   5.965   5.807  0.6793  0.1263  0.5259
  122OSM    C1312869   2.982   5.770   5.663 -0.0512 -0.0986  1.1300
  122OSM   H13A12870   2.958   5.676   5.617 -0.6560 -0.3631  1.9602
  122OSM   H13B12871   3.072   5.814   5.622  0.0032  1.0124  2.3972
  122OSM   H13C12872   2.907   5.841   5.628  2.7811  2.2476 -0.3965
  122OSM    C1212873   2.878   5.680   5.863  0.3981  0.1998 -0.0130
  122OSM   H12A12874   2.886   5.673   5.970  0.6408  1.8636  0.0913
  122OSM   H12B12875   2.888   5.575   5.839  2.4777 -0.2452  2.5601
  122OSM    C1112876   2.734   5.710   5.817  0.3597 -0.4516 -0.2133
  122OSM   H11A12877   2.663   5.638   5.864  1.4881 -0.2239  1.8671
  122OSM   H11B12878   2.727   5.688   5.708  2.0311  1.3430 -0.7074
  122OSM      P12879   2.657   5.890   5.993 -0.1785 -0.2667 -0.0088
  122OSM    O1312880   2.711   6.024   6.022  0.2553  0.2709 -0.8231
  122OSM    O1412881   2.514   5.858   6.011 -0.2253  0.1151  0.9688
  122OSM    O1112882   2.742   5.792   6.082  0.2648  0.2008  0.1202
  122OSM    O1212883   2.702   5.845   5.845  0.0466  0.1251 -0.0730
  122OSM    C1S12884   2.691   5.734   6.201 -0.3513 -0.4281  0.7307
  122OSM    H1S12885   2.636   5.644   6.167 -0.3267  0.1293 -0.8191
  122OSM    H1T12886   2.610   5.798   6.243  1.0227  2.0005 -0.2004
  122OSM     NF12887   2.735   5.643   6.433  0.1884  0.5554  0.5049
  122OSM    HNF12888   2.714   5.698   6.514  0.4132  0.8694  0.3510
  122OSM    C2S12889   2.801   5.698   6.307 -0.0197 -0.2387 -0.7055
  122OSM    H2S12890   2.878   5.625   6.274  1.1788  0.7557 -0.1673
  122OSM    C3S12891   2.879   5.833   6.334 -0.4344 -0.2898 -0.1799
  122OSM    H3S12892   2.814   5.922   6.349 -2.1375 -1.4430 -0.6033
  122OSM     O312893   2.963   5.868   6.221  0.6776  0.0754  0.1577
  122OSM    HO312894   2.901   5.847   6.151 -0.6730 -1.3176  1.7092
  122OSM    C4S12895   2.961   5.830   6.464  0.3628  0.6661 -0.0811
  122OSM    H4S12896   3.058   5.779   6.458  0.1204  0.5185 -3.9286
  122OSM    C5S12897   2.950   5.899   6.577 -0.0892  0.2796  0.0710
  122OSM    H5S12898   2.874   5.978   6.582 -0.0307  0.4362 -1.3424
  122OSM    C6S12899   3.032   5.901   6.694  0.1352 -0.2684 -0.2149
  122OSM    H6S12900   3.063   6.008   6.698 -0.8310  0.0282 -0.3892
  122OSM    H6T12901   3.122   5.838   6.678 -0.2789 -1.3480  1.6374
  122OSM    C7S12902   2.948   5.871   6.824  0.8727  0.1231 -0.5509
  122OSM    H7S12903   2.912   5.767   6.836 -1.5321  1.0959  0.9361
  122OSM    H7T12904   2.859   5.936   6.814 -0.0222 -1.5941 -4.8620
  122OSM    C8S12905   3.039   5.904   6.941 -0.7405  0.6053 -0.1956
  122OSM    H8S12906   2.984   5.898   7.037  1.5286  3.3822  1.3687
  122OSM    H8T12907   3.069   6.011   6.931 -2.5271  1.1870  0.6120
  122OSM    C9S12908   3.160   5.816   6.964 -0.3377 -0.3956 -0.0872
  122OSM    H9S12909   3.228   5.853   6.884 -2.2344  1.6101 -0.8351
  122OSM    H9T12910   3.131   5.710   6.942 -3.3111 -0.1460  2.2425
  122OSM   C10S12911   3.220   5.822   7.101 -0.0493  0.5917 -0.2918
  122OSM   H10S12912   3.318   5.770   7.102 -0.8638 -0.9588  0.6567
  122OSM   H10T12913   3.150   5.770   7.169  0.2493  0.7846  0.1659
  122OSM   C11S12914   3.254   5.965   7.156  0.3453  0.2328  0.1612
  122OSM   H11S12915   3.156   6.017   7.158  0.1927  0.0068 -1.2509
  122OSM   H11T12916   3.322   6.022   7.089 -0.7452  1.1195 -0.1919
  122OSM   C12S12917   3.317   5.967   7.293  0.6096  0.3100  0.4283
  122OSM   H12S12918   3.319   6.076   7.317  1.1536  0.8187 -1.7808
  122OSM   H12T12919   3.426   5.945   7.289  0.3322 -0.8120 -2.0456
  122OSM   C13S12920   3.226   5.896   7.389  0.5197  0.8491  0.0750
  122OSM   H13S12921   3.234   5.787   7.374  0.1141  0.8249  0.0387
  122OSM   H13T12922   3.126   5.942   7.376  0.3923  1.2980  2.3158
  122OSM   C14S12923   3.259   5.931   7.539  0.1117 -0.0142  0.0667
  122OSM   H14S12924   3.257   6.042   7.545  1.7003  0.0751 -0.7774
  122OSM   H14T12925   3.366   5.907   7.560  0.3020  0.5156 -0.2861
  122OSM   C15S12926   3.168   5.869   7.643  0.4285  0.1096  0.1118
  122OSM   H15S12927   3.181   5.759   7.641 -0.9141 -0.0550 -0.7349
  122OSM   H15T12928   3.064   5.895   7.612  0.7344 -0.6781 -1.6415
  122OSM   C16S12929   3.207   5.914   7.781  0.3738 -0.4662  0.0703
  122OSM   H16S12930   3.123   5.879   7.846 -1.5133  0.2504 -1.9112
  122OSM   H16T12931   3.197   6.025   7.780  2.6789 -0.2101  1.5561
  122OSM   C17S12932   3.333   5.846   7.839 -0.5162 -0.2140 -0.2841
  122OSM   H17S12933   3.419   5.890   7.785  0.7433 -0.4035  1.5348
  122OSM   H17T12934   3.324   5.739   7.814 -1.2029  0.3457 -2.5376
  122OSM   C18S12935   3.352   5.882   7.985 -0.4917  0.6539  0.4229
  122OSM   H18S12936   3.340   5.989   8.011  0.1750  0.3540  1.9666
  122OSM   H18T12937   3.459   5.874   8.012 -0.2020  0.2898 -0.7674
  122OSM   H18U12938   3.281   5.828   8.052 -0.8203  1.9927  1.1737
  122OSM    C1F12939   2.686   5.519   6.438 -0.3525  0.1746 -0.2003
  122OSM     OF12940   2.693   5.448   6.336 -0.2126 -0.4894 -0.3701
  122OSM    C2F12941   2.623   5.477   6.564 -0.2054 -0.0360 -0.0136
  122OSM    H2F12942   2.527   5.426   6.541  1.5625 -2.8803 -1.2415
  122OSM    H2G12943   2.596   5.563   6.629  5.0886 -0.1048  2.5305
  122OSM    C3F12944   2.714   5.387   6.647  0.2443 -0.0789 -0.2780
  122OSM    H3F12945   2.797   5.452   6.682  0.5545  0.0715 -1.2680
  122OSM    H3G12946   2.755   5.301   6.589  1.6641  0.8549 -0.6866
  122OSM    C4F12947   2.641   5.317   6.767 -0.0989  0.4992  0.0657
  122OSM    H4F12948   2.710   5.241   6.809  0.5721  1.1354  0.1051
  122OSM    H4G12949   2.560   5.255   6.722  1.2874 -0.1508 -1.5537
  122OSM    C5F12950   2.601   5.414   6.888 -0.2239 -0.4150  0.0081
  122OSM    H5F12951   2.585   5.341   6.970  2.5313 -0.2385  0.7387
  122OSM    H5G12952   2.503   5.461   6.863 -0.1342 -0.5836 -0.6630
  122OSM    C6F12953   2.700   5.521   6.923 -0.0320 -0.4005  0.2470
  122OSM    H6F12954   2.689   5.610   6.858 -0.1674  0.2880  1.2035
  122OSM    H6G12955   2.807   5.491   6.912 -0.3508 -1.8577  1.0474
  122OSM    C7F12956   2.663   5.567   7.065  0.5804  0.6812 -0.0139
  122OSM    H7F12957   2.667   5.484   7.138  0.5289  1.1543  0.5331
  122OSM    H7G12958   2.561   5.612   7.067  0.2025 -0.1684 -0.2620
  122OSM    C8F12959   2.755   5.679   7.115  0.2675 -0.2368  0.6402
  122OSM    H8F12960   2.759   5.768   7.049 -1.7243 -1.8990 -1.7645
  122OSM    H8G12961   2.858   5.643   7.097 -0.7571 -1.9330 -2.0682
  122OSM    C9F12962   2.733   5.726   7.258  0.0316 -0.7936  0.1191
  122OSM    H9F12963   2.634   5.774   7.263  0.6120  0.2420  3.1924
  122OSM   C10F12964   2.809   5.724   7.366 -0.5704  0.8241  0.5299
  122OSM   H10F12965   2.774   5.772   7.458 -0.3493 -0.0286  1.0575
  122OSM   C11F12966   2.953   5.666   7.385 -0.8287  0.0230 -0.1273
  122OSM   H11F12967   3.006   5.728   7.461  0.4888 -2.5439  1.0940
  122OSM   H11G12968   3.015   5.678   7.294 -1.0294  1.2892 -0.1101
  122OSM   C12F12969   2.951   5.519   7.415 -0.1460  0.0798  0.1057
  122OSM   H12F12970   3.045   5.461   7.405 -0.7245 -1.5634  3.7282
  122OSM   H12G12971   2.871   5.477   7.349 -1.0558  1.0141  0.5860
  122OSM   C13F12972   2.899   5.492   7.560  0.2080  0.0012  0.0949
  122OSM   H13F12973   2.887   5.382   7.570 -0.6422  0.0655 -0.1684
  122OSM   H13G12974   2.796   5.533   7.559  1.0859  2.2814  0.5453
  122OSM   C14F12975   2.994   5.541   7.669  1.0743  0.6546  0.5930
  122OSM   H14F12976   3.003   5.651   7.656  1.9090  0.5717  0.4971
  122OSM   H14G12977   3.094   5.499   7.647  0.1893 -1.0307 -0.3305
  122OSM   C15F12978   2.936   5.513   7.808  0.3880 -0.0987 -0.5465
  122OSM   H15F12979   2.922   5.404   7.825  0.4758 -0.4257 -2.3851
  122OSM   H15G12980   2.844   5.575   7.808 -0.1288 -0.8608 -0.0068
  122OSM   C16F12981   3.024   5.568   7.916 -0.5186  0.0065  0.4417
  122OSM   H16F12982   3.010   5.678   7.921  1.5554  0.2622  0.8265
  122OSM   H16G12983   3.131   5.541   7.903  0.0271  1.4782  1.7716
  122OSM   C17F12984   2.992   5.517   8.057  0.0147  0.0614  0.7795
  122OSM   H17F12985   2.984   5.407   8.046 -0.0854  0.1964 -0.5648
  122OSM   H17G12986   2.896   5.563   8.087  0.7067  1.4203  0.9409
  122OSM   C18F12987   3.106   5.548   8.154 -0.8012 -0.2786  0.3127
  122OSM   H18F12988   3.121   5.657   8.165  2.0120 -0.7754  1.8932
  122OSM   H18G12989   3.202   5.522   8.103 -0.1874  1.8199  0.3743
  122OSM   H18H12990   3.095   5.497   8.252 -0.9333 -0.0395  0.4222
  123OSM      N12991   2.741   1.608   5.728 -0.1228  0.7136 -0.2076
  123OSM    C1512992   2.787   1.747   5.759  0.6575 -0.0880 -0.0231
  123OSM   H15A12993   2.742   1.821   5.695  1.6259  3.5322  3.3027
  123OSM   H15B12994   2.895   1.750   5.758  0.7099 -0.3314  2.0384
  123OSM   H15C12995   2.753   1.770   5.859  0.3371 -1.7104  0.2520
  123OSM    C1412996   2.593   1.615   5.711 -0.7845  0.5647 -0.0417
  123OSM   H14A12997   2.550   1.516   5.717  0.5658 -0.0193  0.4146
  123OSM   H14B12998   2.554   1.674   5.630 -0.0363  0.2824 -0.6248
  123OSM   H14C12999   2.546   1.654   5.800  1.9073  1.2391  1.1528
  123OSM    C1313000   2.799   1.556   5.602  0.5659 -0.3993 -0.4702
  123OSM   H13A13001   2.906   1.575   5.608  0.5556 -0.6809  0.7904
  123OSM   H13B13002   2.760   1.612   5.518  0.3459 -0.9839 -0.7575
  123OSM   H13C13003   2.774   1.453   5.582 -1.0040  0.2451 -1.9255
  123OSM    C1213004   2.775   1.509   5.841 -0.1886 -0.0067 -0.3340
  123OSM   H12A13005   2.883   1.513   5.847 -0.1205  0.8552 -1.8600
  123OSM   H12B13006   2.744   1.408   5.820 -1.1338  0.2427 -0.1835
  123OSM    C1113007   2.715   1.541   5.988  0.3128 -0.9115  0.1936
  123OSM   H11A13008   2.739   1.643   6.024  1.6600 -0.2971 -2.2842
  123OSM   H11B13009   2.776   1.470   6.048  0.5260 -2.5636 -1.9333
  123OSM      P13010   2.528   1.362   5.983 -0.1825 -0.2411  0.2132
  123OSM    O1313011   2.455   1.338   5.861 -0.4156 -0.5091 -0.0263
  123OSM    O1413012   2.643   1.274   6.013 -0.2032 -0.7182  0.3409
  123OSM    O1113013   2.427   1.360   6.105 -0.0095  0.0233 -0.3777
  123OSM    O1213014   2.573   1.509   5.991  0.6007 -0.5840  0.2054
  123OSM    C1S13015   2.435   1.446   6.218  0.3503  0.5475 -0.5843
  123OSM    H1S13016   2.415   1.549   6.182 -0.1647  0.8510  0.5373
  123OSM    H1T13017   2.538   1.443   6.261  0.5266  0.9308 -0.9767
  123OSM     NF13018   2.354   1.500   6.444 -0.2998  0.0113 -0.1685
  123OSM    HNF13019   2.385   1.460   6.530 -0.1818 -0.0405 -0.2349
  123OSM    C2S13020   2.334   1.408   6.330 -0.3810  0.1586 -0.2740
  123OSM    H2S13021   2.234   1.430   6.286 -0.3276 -1.0181 -0.9977
  123OSM    C3S13022   2.340   1.261   6.371 -0.2029 -0.5092 -0.2946
  123OSM    H3S13023   2.445   1.231   6.393  0.3145  2.9689  2.5398
  123OSM     O313024   2.297   1.168   6.268 -0.0055 -0.4318  0.4963
  123OSM    HO313025   2.303   1.224   6.190 -0.8551  1.7788  1.9713
  123OSM    C4S13026   2.242   1.246   6.480 -0.4025 -0.1027  1.1686
  123OSM    H4S13027   2.141   1.285   6.457  0.8297  3.6078  1.6113
  123OSM    C5S13028   2.280   1.207   6.601 -0.0011  0.3040 -0.7724
  123OSM    H5S13029   2.382   1.175   6.627  0.0704  0.8331 -0.3771
  123OSM    C6S13030   2.184   1.188   6.715  0.2383 -0.4446 -0.1021
  123OSM    H6S13031   2.196   1.085   6.754 -0.9692  0.2906  2.3633
  123OSM    H6T13032   2.086   1.174   6.665  0.2034  0.9276 -0.4539
  123OSM    C7S13033   2.200   1.290   6.830 -0.1280 -0.2480  0.2984
  123OSM    H7S13034   2.159   1.382   6.784  1.1310 -0.7252 -1.8519
  123OSM    H7T13035   2.303   1.304   6.870  1.3011 -0.1601 -3.2098
  123OSM    C8S13036   2.122   1.240   6.952  0.1970 -0.0401 -0.2909
  123OSM    H8S13037   2.141   1.132   6.968 -4.0032 -0.8784 -0.1711
  123OSM    H8T13038   2.012   1.246   6.933  0.4769 -0.4781 -2.1124
  123OSM    C9S13039   2.143   1.321   7.077  0.2211  0.8810  0.4291
  123OSM    H9S13040   2.114   1.426   7.056 -0.0833  0.9224  1.0314
  123OSM    H9T13041   2.250   1.328   7.108  0.5499  1.8661 -0.8908
  123OSM   C10S13042   2.054   1.282   7.196  0.2891  0.0303  0.4027
  123OSM   H10S13043   2.108   1.311   7.289  0.7539 -0.9747  0.4534
  123OSM   H10T13044   2.047   1.171   7.190  1.1026  0.0819 -1.7312
  123OSM   C11S13045   1.911   1.335   7.211  0.2309  0.0882  0.2140
  123OSM   H11S13046   1.862   1.300   7.118 -1.4524 -1.3947  1.6278
  123OSM   H11T13047   1.906   1.445   7.204  1.5754  0.1625  0.1326
  123OSM   C12S13048   1.847   1.280   7.335  0.7719 -0.4528 -0.2219
  123OSM   H12S13049   1.861   1.170   7.346 -0.9513 -0.8915 -2.1549
  123OSM   H12T13050   1.740   1.307   7.323  1.5563  2.3579 -1.2155
  123OSM   C13S13051   1.896   1.338   7.464  0.2237 -0.0700 -0.4644
  123OSM   H13S13052   1.839   1.431   7.483 -1.6996 -1.2970 -0.1284
  123OSM   H13T13053   2.005   1.362   7.468  0.5023 -1.5966  2.0887
  123OSM   C14S13054   1.878   1.257   7.595 -0.3000 -0.3117 -0.1089
  123OSM   H14S13055   1.949   1.172   7.587 -2.6758 -2.4038  0.3185
  123OSM   H14T13056   1.773   1.222   7.604  0.3654 -2.7308 -1.2187
  123OSM   C15S13057   1.920   1.324   7.724  0.2304  0.1711 -0.3626
  123OSM   H15S13058   1.869   1.423   7.734 -2.7352 -1.4401  0.9734
  123OSM   H15T13059   2.028   1.349   7.730  0.0523  0.4234  2.1071
  123OSM   C16S13060   1.888   1.240   7.847 -0.0451 -0.2905 -0.3529
  123OSM   H16S13061   1.937   1.141   7.835  3.0726  1.0429  0.6155
  123OSM   H16T13062   1.780   1.218   7.834 -0.4273  2.2800 -1.7403
  123OSM   C17S13063   1.907   1.309   7.981 -0.1518 -0.4520 -0.5428
  123OSM   H17S13064   1.862   1.252   8.065 -0.4408 -0.6688 -0.8428
  123OSM   H17T13065   1.840   1.397   7.990 -1.0783 -1.1517 -0.5480
  123OSM   C18S13066   2.054   1.357   8.003  0.8251  0.3756 -0.2695
  123OSM   H18S13067   2.083   1.420   7.916  1.1279  1.4943  0.6356
  123OSM   H18T13068   2.123   1.271   8.014  1.5519  0.5440 -3.1038
  123OSM   H18U13069   2.056   1.413   8.099  0.5618  0.4919 -0.3322
  123OSM    C1F13070   2.338   1.628   6.437  0.4535 -0.2364  0.1134
  123OSM     OF13071   2.312   1.689   6.333  0.1342 -0.9178 -0.1240
  123OSM    C2F13072   2.337   1.704   6.566 -0.0057 -0.1761 -0.0585
  123OSM    H2F13073   2.242   1.674   6.616  1.1221 -1.9636  1.0545
  123OSM    H2G13074   2.346   1.809   6.531  0.1467 -0.0763  0.2809
  123OSM    C3F13075   2.451   1.681   6.669  0.6998  0.2119  0.5532
  123OSM    H3F13076   2.552   1.671   6.624  0.6883  0.3939  0.4859
  123OSM    H3G13077   2.439   1.583   6.719 -0.6192  0.2049  0.2395
  123OSM    C4F13078   2.428   1.783   6.788  0.1725  1.1981  0.7014
  123OSM    H4F13079   2.326   1.773   6.831 -0.0853  1.5359  0.1793
  123OSM    H4G13080   2.438   1.883   6.742  1.3445 -0.4076 -2.7102
  123OSM    C5F13081   2.548   1.792   6.892  0.0821 -0.1762  0.0868
  123OSM    H5F13082   2.528   1.884   6.951 -0.8422  0.2671 -0.9026
  123OSM    H5G13083   2.644   1.799   6.838 -0.3878  1.1376 -0.6208
  123OSM    C6F13084   2.568   1.671   6.984  0.8154 -0.2690  0.1784
  123OSM    H6F13085   2.659   1.695   7.043  1.0781 -0.2281 -0.2420
  123OSM    H6G13086   2.581   1.579   6.924  0.2434 -1.0082  1.1732
  123OSM    C7F13087   2.443   1.651   7.079  0.1768 -0.0539  0.3681
  123OSM    H7F13088   2.365   1.607   7.013  1.8256 -0.0597 -1.6468
  123OSM    H7G13089   2.400   1.745   7.120 -0.8544 -0.0856 -0.6083
  123OSM    C8F13090   2.474   1.556   7.194 -0.2342 -0.0870  0.5226
  123OSM    H8F13091   2.569   1.594   7.236  0.6538 -0.6837 -0.9251
  123OSM    H8G13092   2.500   1.455   7.155 -0.4804  0.0839 -0.1037
  123OSM    C9F13093   2.373   1.537   7.310 -0.3504 -0.0455 -0.1018
  123OSM    H9F13094   2.274   1.578   7.286 -1.2357 -1.3162  1.3237
  123OSM   C10F13095   2.394   1.465   7.425  0.2795 -0.1783  0.4442
  123OSM   H10F13096   2.325   1.485   7.508 -4.1924 -0.3471 -3.0356
  123OSM   C11F13097   2.519   1.387   7.457 -0.9200 -0.1990 -0.7613
  123OSM   H11F13098   2.559   1.337   7.366 -1.9023  1.5133 -2.1691
  123OSM   H11G13099   2.492   1.299   7.519 -1.6274  1.1061  0.8228
  123OSM   C12F13100   2.644   1.457   7.516 -0.6357  0.3297 -0.4680
  123OSM   H12F13101   2.619   1.510   7.610 -1.0625 -0.2445 -0.2558
  123OSM   H12G13102   2.663   1.540   7.445 -1.9893 -0.4639 -1.8033
  123OSM   C13F13103   2.765   1.367   7.538 -0.2925 -0.0827 -0.2709
  123OSM   H13F13104   2.811   1.329   7.445 -2.4692  0.2375 -1.5189
  123OSM   H13G13105   2.737   1.285   7.608 -2.0774  1.1128  0.4627
  123OSM   C14F13106   2.880   1.440   7.622  0.0515 -0.8291 -0.2667
  123OSM   H14F13107   2.844   1.464   7.725  0.1271  0.1469 -0.4665
  123OSM   H14G13108   2.899   1.532   7.563 -1.5047 -0.3981 -0.1114
  123OSM   C15F13109   3.019   1.374   7.633 -0.0368 -0.4151 -0.2174
  123OSM   H15F13110   3.093   1.437   7.686  2.1142 -2.0874 -1.1497
  123OSM   H15G13111   3.073   1.368   7.536 -1.3562 -1.7202 -0.9005
  123OSM   C16F13112   3.017   1.243   7.713  0.3335  0.3996  0.0296
  123OSM   H16F13113   3.124   1.220   7.731  0.2542  0.1672  0.2168
  123OSM   H16G13114   2.981   1.154   7.657  1.2007  0.3579 -0.4763
  123OSM   C17F13115   2.940   1.244   7.849  0.1251 -0.1864 -1.4201
  123OSM   H17F13116   2.834   1.222   7.825 -0.3006  1.2729 -0.9421
  123OSM   H17G13117   2.937   1.343   7.899 -1.0916 -0.6615 -0.5303
  123OSM   C18F13118   2.975   1.142   7.956  0.3210  0.4790  0.2648
  123OSM   H18F13119   2.907   1.130   8.043  0.0093 -1.5080 -0.2337
  123OSM   H18G13120   3.074   1.167   7.999  0.7086  0.2658 -0.5008
  123OSM   H18H13121   2.977   1.040   7.913 -2.0653  0.6492 -0.3010
  124OSM      N13122   1.149   3.975   5.532  0.2419  0.4003  0.0375
  124OSM    C1513123   1.090   4.011   5.403  0.0771  0.5741  0.0192
  124OSM   H15A13124   1.054   4.111   5.421  0.1231  0.4820  0.6447
  124OSM   H15B13125   1.004   3.950   5.376 -0.2857  2.0212 -2.1909
  124OSM   H15C13126   1.152   3.999   5.315  0.7353  2.1560  0.2693
  124OSM    C1413127   1.066   3.997   5.654 -0.3899 -1.2566  0.1327
  124OSM   H14A13128   1.041   4.102   5.657  0.2496 -1.1287  1.0483
  124OSM   H14B13129   1.117   3.971   5.746  0.8238  1.2129  0.1965
  124OSM   H14C13130   0.973   3.942   5.644 -0.6939 -1.7244  4.6396
  124OSM    C1313131   1.194   3.834   5.538  0.3390  0.0042 -0.3343
  124OSM   H13A13132   1.252   3.816   5.449 -1.3596 -1.7038 -1.1494
  124OSM   H13B13133   1.112   3.765   5.520 -1.1622  1.2779  1.3495
  124OSM   H13C13134   1.260   3.815   5.621 -1.8507 -1.8787  1.0516
  124OSM    C1213135   1.273   4.061   5.554 -0.3008 -0.3289 -0.1433
  124OSM   H12A13136   1.341   4.055   5.470 -0.8435  0.8772 -0.6936
  124OSM   H12B13137   1.330   4.018   5.634 -1.0777  0.1626  0.6895
  124OSM    C1113138   1.258   4.207   5.590  0.4415 -0.3353 -0.3558
  124OSM   H11A13139   1.181   4.262   5.533 -1.1814 -1.7124  0.4630
  124OSM   H11B13140   1.354   4.254   5.560 -0.2279  1.4934  0.2996
  124OSM      P13141   1.353   4.198   5.837  0.0777  0.5621 -0.1123
  124OSM    O1313142   1.481   4.170   5.770  0.0705  0.3375 -0.5413
  124OSM    O1413143   1.349   4.303   5.940 -0.0373  0.1507  0.2506
  124OSM    O1113144   1.292   4.064   5.910  0.1546  0.0018 -0.3796
  124OSM    O1213145   1.237   4.212   5.734 -0.3080 -0.4091  0.1448
  124OSM    C1S13146   1.162   4.090   5.982  0.2431  1.6928  0.0949
  124OSM    H1S13147   1.076   4.082   5.911  0.7564 -0.8994 -0.2870
  124OSM    H1T13148   1.149   4.187   6.036 -2.4709  3.1738 -3.0122
  124OSM     NF13149   0.989   3.987   6.126 -0.5608 -0.5168  0.1941
  124OSM    HNF13150   0.967   4.052   6.198  2.7384 -0.1394  0.9667
  124OSM    C2S13151   1.133   3.978   6.092 -0.7806  0.7296 -0.0312
  124OSM    H2S13152   1.149   3.878   6.048 -2.9596  0.2878  0.1272
  124OSM    C3S13153   1.229   4.004   6.205  0.7291 -0.0830 -0.2473
  124OSM    H3S13154   1.227   4.111   6.233  0.6664  0.5490 -2.5889
  124OSM     O313155   1.366   3.971   6.169  0.3203  0.2184  0.2052
  124OSM    HO313156   1.363   3.950   6.075 -3.1531  0.2588  0.2390
  124OSM    C4S13157   1.189   3.925   6.328  0.7371  0.0874 -0.2805
  124OSM    H4S13158   1.101   3.976   6.369  2.9418  3.7028  0.1877
  124OSM    C5S13159   1.236   3.809   6.383 -0.3191 -0.3319 -0.7635
  124OSM    H5S13160   1.320   3.752   6.340 -0.1117 -0.4350 -0.2147
  124OSM    C6S13161   1.183   3.748   6.508 -0.6568  0.7696 -0.4171
  124OSM    H6S13162   1.257   3.731   6.589 -0.0517  1.2950 -0.8576
  124OSM    H6T13163   1.131   3.652   6.485  0.2163 -0.2583  1.7556
  124OSM    C7S13164   1.077   3.837   6.579  0.9293 -0.3459 -0.0042
  124OSM    H7S13165   0.993   3.859   6.510  0.3958 -1.5571  0.2336
  124OSM    H7T13166   1.120   3.938   6.592 -2.7663  1.6628 -2.6280
  124OSM    C8S13167   1.014   3.784   6.708  0.3795 -0.3613 -0.5301
  124OSM    H8S13168   0.984   3.679   6.690  1.1030 -0.6723  0.0710
  124OSM    H8T13169   0.925   3.849   6.728  1.8586  1.7099 -0.5154
  124OSM    C9S13170   1.099   3.782   6.838 -0.3176  0.3092 -0.2447
  124OSM    H9S13171   1.149   3.880   6.851  0.3314 -0.1437  0.7672
  124OSM    H9T13172   1.179   3.705   6.823 -0.4906  0.0037  0.4036
  124OSM   C10S13173   1.024   3.732   6.968  0.0360 -0.0041  0.4509
  124OSM   H10S13174   0.974   3.633   6.961  0.3527 -0.2133  1.0808
  124OSM   H10T13175   0.941   3.803   6.988  0.6035  0.7704  0.0437
  124OSM   C11S13176   1.114   3.743   7.091 -0.3391  0.3965  0.3799
  124OSM   H11S13177   1.204   3.679   7.076  1.5105  2.4475  2.4444
  124OSM   H11T13178   1.062   3.693   7.176 -0.7312  0.4960  0.2002
  124OSM   C12S13179   1.153   3.879   7.140  0.3074  0.0199 -0.0985
  124OSM   H12S13180   1.072   3.954   7.123  1.3927  1.0357 -0.8618
  124OSM   H12T13181   1.231   3.916   7.070  0.6309 -1.0413 -0.2970
  124OSM   C13S13182   1.189   3.867   7.288  0.0005  0.5474  0.4089
  124OSM   H13S13183   1.274   3.795   7.297  0.4859  0.9980 -0.5244
  124OSM   H13T13184   1.106   3.823   7.347 -0.6249 -1.5291 -1.9235
  124OSM   C14S13185   1.241   3.999   7.346 -1.4113  0.1805 -0.9706
  124OSM   H14S13186   1.171   4.079   7.315 -2.9414 -1.4619 -1.8394
  124OSM   H14T13187   1.344   4.028   7.313 -0.8704  1.4804  1.7590
  124OSM   C15S13188   1.252   4.001   7.501  0.1970 -0.4771 -0.0911
  124OSM   H15S13189   1.153   3.966   7.538  1.3270 -4.1383 -0.3784
  124OSM   H15T13190   1.275   4.104   7.537  1.8128 -1.4155  1.6453
  124OSM   C16S13191   1.358   3.917   7.558 -0.4244  0.3124 -0.7936
  124OSM   H16S13192   1.456   3.970   7.559 -1.1715  1.7138 -0.0751
  124OSM   H16T13193   1.374   3.833   7.487 -0.9007 -0.8946  0.5231
  124OSM   C17S13194   1.335   3.869   7.707 -0.0593 -0.3491 -0.0020
  124OSM   H17S13195   1.422   3.810   7.742  0.1649 -0.2207 -0.3330
  124OSM   H17T13196   1.241   3.810   7.706 -0.3000  0.0396 -0.4319
  124OSM   C18S13197   1.317   3.979   7.811 -0.1524  0.6829 -0.0074
  124OSM   H18S13198   1.282   3.942   7.910  0.2334  2.3389  0.7666
  124OSM   H18T13199   1.234   4.045   7.776  1.9473  2.1659 -2.3507
  124OSM   H18U13200   1.411   4.038   7.815  0.8851 -0.9497  0.3441
  124OSM    C1F13201   0.893   3.927   6.057 -0.5115  0.3282  0.2084
  124OSM     OF13202   0.921   3.870   5.951 -0.1276  0.9130 -1.3235
  124OSM    C2F13203   0.753   3.938   6.111  0.1644  0.3478 -0.1296
  124OSM    H2F13204   0.692   3.886   6.033  0.4853  2.1167 -1.5782
  124OSM    H2G13205   0.715   4.040   6.092 -4.7429 -1.6610 -1.9392
  124OSM    C3F13206   0.711   3.886   6.251 -0.2133 -0.2263  0.2616
  124OSM    H3F13207   0.774   3.947   6.320  0.3446 -0.3690 -0.1256
  124OSM    H3G13208   0.742   3.780   6.262  1.6424  0.0688 -1.8884
  124OSM    C4F13209   0.567   3.919   6.286 -0.2641 -0.6973  0.3028
  124OSM    H4F13210   0.509   3.884   6.198  0.4000 -0.4827 -0.2274
  124OSM    H4G13211   0.558   4.030   6.286 -2.4100 -0.8276  3.0439
  124OSM    C5F13212   0.509   3.859   6.409  0.4353 -0.8384 -0.3276
  124OSM    H5F13213   0.562   3.889   6.502  0.4933 -2.9384  0.3470
  124OSM    H5G13214   0.520   3.748   6.408  1.8381 -0.7325 -2.8527
  124OSM    C6F13215   0.362   3.892   6.427 -0.4656  0.9272 -0.3171
  124OSM    H6F13216   0.306   3.801   6.396 -2.9862  1.7991  1.4895
  124OSM    H6G13217   0.319   3.966   6.356 -0.5873  1.1844  0.0246
  124OSM    C7F13218   0.334   3.907   6.574 -0.4356 -0.1260  0.9644
  124OSM    H7F13219   0.378   3.813   6.614 -0.2085 -0.3750  0.1284
  124OSM    H7G13220   0.224   3.904   6.590 -0.2877 -1.3236  1.8963
  124OSM    C8F13221   0.386   4.044   6.637  0.5402  0.1675  0.2050
  124OSM    H8F13222   0.329   4.132   6.601 -0.3790 -1.0969 -1.5381
  124OSM    H8G13223   0.494   4.065   6.622  0.7963 -0.6234  0.9374
  124OSM    C9F13224   0.349   4.042   6.781 -0.6207 -0.5360  0.4580
  124OSM    H9F13225   0.241   4.026   6.799 -0.5465  0.0793  1.4415
  124OSM   C10F13226   0.444   4.036   6.881 -0.2587 -0.4197  0.4842
  124OSM   H10F13227   0.406   4.030   6.984  0.7075 -1.0117  0.8107
  124OSM   C11F13228   0.592   4.024   6.852  0.2034 -0.1588 -1.1767
  124OSM   H11F13229   0.631   4.112   6.796  1.1686 -2.0347 -3.4957
  124OSM   H11G13230   0.615   3.932   6.794  1.4528  0.2392 -1.3171
  124OSM   C12F13231   0.678   4.022   6.985 -0.4060 -0.1904  0.7911
  124OSM   H12F13232   0.671   4.122   7.033 -1.6365 -0.4249  1.1099
  124OSM   H12G13233   0.782   4.011   6.947 -1.6888 -1.5905 -2.4905
  124OSM   C13F13234   0.658   3.904   7.075 -0.2971 -0.2225  0.1760
  124OSM   H13F13235   0.641   3.818   7.007 -3.1367 -0.2099  0.8019
  124OSM   H13G13236   0.556   3.907   7.119 -0.1461 -4.1821  1.0420
  124OSM   C14F13237   0.747   3.885   7.193 -1.0287 -0.5571 -0.4995
  124OSM   H14F13238   0.852   3.860   7.165 -1.1165  0.8219 -2.1358
  124OSM   H14G13239   0.718   3.805   7.263 -1.6099  0.6904  0.7005
  124OSM   C15F13240   0.755   4.014   7.279  0.1425  0.1733  0.4718
  124OSM   H15F13241   0.651   4.034   7.314 -0.0847 -1.4000  0.7165
  124OSM   H15G13242   0.798   4.099   7.221  0.0079 -0.8140 -1.1067
  124OSM   C16F13243   0.840   3.987   7.399 -0.3118 -0.1960 -1.0669
  124OSM   H16F13244   0.947   3.973   7.372 -0.5978 -1.3463 -1.6064
  124OSM   H16G13245   0.799   3.889   7.430  2.6811 -1.8024 -1.9270
  124OSM   C17F13246   0.830   4.095   7.499  0.1094  0.2023 -0.0202
  124OSM   H17F13247   0.728   4.139   7.500 -0.5298 -1.1533 -1.8218
  124OSM   H17G13248   0.909   4.171   7.480  0.7766 -0.3681  0.4716
  124OSM   C18F13249   0.861   4.042   7.634  0.5304 -0.3257 -1.1651
  124OSM   H18F13250   0.968   4.015   7.647  0.1986 -1.4145 -0.6126
  124OSM   H18G13251   0.797   3.952   7.648  0.3614  0.3025  2.7362
  124OSM   H18H13252   0.834   4.121   7.707  0.7422  0.5402 -2.0190
  125OSM      N13253   6.277   1.610   5.783  0.3225  0.6398 -0.1822
  125OSM    C1513254   6.249   1.504   5.880  0.2638 -0.9237  1.0116
  125OSM   H15A13255   6.337   1.447   5.904  1.7405  0.1001 -1.8241
  125OSM   H15B13256   6.179   1.432   5.839 -1.2448  1.2854 -0.4323
  125OSM   H15C13257   6.202   1.543   5.969  0.0236  0.3303  0.3421
  125OSM    C1413258   6.361   1.718   5.849  0.4020 -0.0209  0.0425
  125OSM   H14A13259   6.315   1.744   5.942  0.8195 -0.2809  0.3226
  125OSM   H14B13260   6.354   1.805   5.784  0.2225  0.2701  0.4535
  125OSM   H14C13261   6.466   1.696   5.860  0.5942  0.3302 -0.9869
  125OSM    C1313262   6.353   1.558   5.665 -0.2785  0.7704  0.1558
  125OSM   H13A13263   6.325   1.457   5.641 -3.4765  2.0048 -1.6242
  125OSM   H13B13264   6.458   1.554   5.690 -0.1598 -0.0510 -0.4373
  125OSM   H13C13265   6.350   1.625   5.580 -1.2088 -0.5278 -0.8578
  125OSM    C1213266   6.151   1.677   5.734  0.5938  0.0228 -0.7413
  125OSM   H12A13267   6.099   1.617   5.661 -0.1417  1.5804 -1.5181
  125OSM   H12B13268   6.189   1.763   5.680  1.9649 -0.2024 -0.1529
  125OSM    C1113269   6.055   1.736   5.839  0.1967 -0.3357  0.8177
  125OSM   H11A13270   5.979   1.802   5.792  2.7731  0.1670 -2.8499
  125OSM   H11B13271   6.111   1.804   5.907 -1.4296  2.7485 -0.8681
  125OSM      P13272   5.881   1.547   5.836 -0.1121  0.4445 -0.2684
  125OSM    O1313273   5.804   1.618   5.738 -0.3222 -0.4140  0.8289
  125OSM    O1413274   5.939   1.416   5.798  0.2203 -0.5369 -0.2853
  125OSM    O1113275   5.790   1.515   5.956  0.5039 -0.0369  0.0109
  125OSM    O1213276   5.985   1.634   5.913  0.0999 -0.5661  0.5922
  125OSM    C1S13277   5.701   1.618   6.007  0.2565  0.3242 -0.2024
  125OSM    H1S13278   5.605   1.619   5.950 -0.5184 -1.5164  1.0331
  125OSM    H1T13279   5.733   1.723   5.990 -1.0580  0.5856 -1.2135
  125OSM     NF13280   5.548   1.669   6.208  0.5194  0.0178 -0.6697
  125OSM    HNF13281   5.558   1.758   6.251  0.6665 -0.7832  1.0137
  125OSM    C2S13282   5.664   1.595   6.160 -0.8855  1.0801  0.6762
  125OSM    H2S13283   5.652   1.484   6.168 -1.0769  0.9915 -0.7585
  125OSM    C3S13284   5.794   1.620   6.243  0.4228  0.3890  0.1099
  125OSM    H3S13285   5.839   1.721   6.232 -0.1955  0.7902  1.2386
  125OSM     O313286   5.895   1.515   6.225 -0.3523  0.2537 -0.6370
  125OSM    HO313287   5.870   1.457   6.153  1.9550 -1.6068  0.0177
  125OSM    C4S13288   5.764   1.612   6.392  0.1264 -0.1422  0.3394
  125OSM    H4S13289   5.750   1.511   6.433 -2.3171  0.3838  0.9050
  125OSM    C5S13290   5.749   1.720   6.476 -0.2591 -0.0738 -0.0554
  125OSM    H5S13291   5.756   1.819   6.429 -0.0591  1.3352  2.8771
  125OSM    C6S13292   5.719   1.728   6.624 -0.2080 -0.9489 -0.0124
  125OSM    H6S13293   5.616   1.760   6.650  0.9471  0.7791  2.5920
  125OSM    H6T13294   5.782   1.796   6.685  0.5337 -0.6765 -1.0643
  125OSM    C7S13295   5.742   1.585   6.675  0.9183 -0.5073  0.0865
  125OSM    H7S13296   5.833   1.539   6.634  0.5940 -1.5492  0.5211
  125OSM    H7T13297   5.650   1.528   6.651  0.2046  1.5569 -2.2643
  125OSM    C8S13298   5.761   1.601   6.824 -0.8622 -0.5164  0.0337
  125OSM    H8S13299   5.689   1.681   6.853  1.4652  0.2917  3.9632
  125OSM    H8T13300   5.865   1.635   6.844 -0.4553 -1.1662 -0.9169
  125OSM    C9S13301   5.729   1.465   6.901 -0.4782 -0.2694 -0.4073
  125OSM    H9S13302   5.772   1.375   6.851 -0.3910  0.5345 -1.8073
  125OSM    H9T13303   5.620   1.449   6.887 -0.7522  0.8211  0.4623
  125OSM   C10S13304   5.766   1.462   7.052  0.0002  0.4905 -0.7879
  125OSM   H10S13305   5.707   1.388   7.110  1.3742  0.7029  0.9231
  125OSM   H10T13306   5.744   1.555   7.108 -1.0794 -0.6265  0.6883
  125OSM   C11S13307   5.914   1.418   7.078 -0.1123  0.1693  0.2817
  125OSM   H11S13308   5.983   1.501   7.048 -1.0545  1.8936  2.6774
  125OSM   H11T13309   5.938   1.323   7.026  0.1336  0.7168 -0.6166
  125OSM   C12S13310   5.933   1.400   7.228  0.5896  0.7340 -0.7586
  125OSM   H12S13311   5.878   1.310   7.265  0.8132  0.6364 -0.6652
  125OSM   H12T13312   5.885   1.486   7.280  0.5599  0.1701  0.1509
  125OSM   C13S13313   6.081   1.389   7.276  0.6938 -0.3633  0.1361
  125OSM   H13S13314   6.137   1.482   7.250 -1.4455  1.3679  1.5258
  125OSM   H13T13315   6.129   1.307   7.219  0.2661  0.3851 -1.3275
  125OSM   C14S13316   6.098   1.375   7.424  1.0491 -0.0366 -0.0170
  125OSM   H14S13317   6.038   1.289   7.460 -0.5461  0.4905 -1.3194
  125OSM   H14T13318   6.065   1.463   7.483  0.5513 -0.8181  0.8799
  125OSM   C15S13319   6.239   1.348   7.472  0.1700 -0.7847 -0.8222
  125OSM   H15S13320   6.256   1.240   7.452 -1.9494 -1.6417  1.5933
  125OSM   H15T13321   6.236   1.350   7.583  0.1029  0.2179 -0.8433
  125OSM   C16S13322   6.336   1.449   7.423 -0.3232  0.0712 -0.2516
  125OSM   H16S13323   6.290   1.550   7.420 -3.4814 -1.3181 -1.2809
  125OSM   H16T13324   6.375   1.419   7.323  1.7432  1.3931  0.1331
  125OSM   C17S13325   6.455   1.452   7.522 -0.1077 -0.3787  0.0197
  125OSM   H17S13326   6.489   1.346   7.531 -0.2881 -0.2651  2.2184
  125OSM   H17T13327   6.420   1.491   7.620  0.1404  3.0127 -1.1877
  125OSM   C18S13328   6.576   1.541   7.481  0.9122  0.8629 -0.2539
  125OSM   H18S13329   6.600   1.529   7.373  1.6648  0.1176 -0.0072
  125OSM   H18T13330   6.662   1.505   7.541 -1.1623 -0.1837  2.2085
  125OSM   H18U13331   6.559   1.650   7.498 -0.2465  0.6855 -0.2306
  125OSM    C1F13332   5.422   1.626   6.183  0.4623  0.1359 -0.5181
  125OSM     OF13333   5.403   1.520   6.133 -0.2096 -0.2598  0.1919
  125OSM    C2F13334   5.311   1.714   6.220 -0.5692  0.0982  0.2108
  125OSM    H2F13335   5.239   1.723   6.136 -0.7265 -1.0921  0.2093
  125OSM    H2G13336   5.348   1.816   6.247 -0.7156 -0.2533  1.7717
  125OSM    C3F13337   5.233   1.653   6.340 -0.0466  0.0520 -0.2142
  125OSM    H3F13338   5.193   1.553   6.315 -0.3070 -0.4626  2.1618
  125OSM    H3G13339   5.141   1.710   6.368 -0.5010 -0.7159 -0.1349
  125OSM    C4F13340   5.315   1.636   6.471  0.3040  0.9382  0.0281
  125OSM    H4F13341   5.352   1.735   6.505 -3.5128  2.8167 -1.0448
  125OSM    H4G13342   5.397   1.565   6.450 -0.4674 -0.0350  0.2831
  125OSM    C5F13343   5.227   1.587   6.586  0.4570  0.1254  0.3987
  125OSM    H5F13344   5.197   1.484   6.556  1.3691  0.3115 -1.2040
  125OSM    H5G13345   5.133   1.644   6.599 -0.5013 -1.7367  2.0187
  125OSM    C6F13346   5.307   1.592   6.713 -0.4915 -0.4480  0.3811
  125OSM    H6F13347   5.331   1.699   6.728  0.9354 -0.6533 -0.3699
  125OSM    H6G13348   5.401   1.536   6.695  0.4521  1.1997  0.1590
  125OSM    C7F13349   5.225   1.528   6.830  0.2068  0.5651  0.0481
  125OSM    H7F13350   5.194   1.429   6.791  0.5130  0.2208  0.6754
  125OSM    H7G13351   5.137   1.591   6.853 -0.0822 -0.2019  1.0385
  125OSM    C8F13352   5.308   1.510   6.961 -0.6841  1.0130 -0.3001
  125OSM    H8F13353   5.355   1.605   6.993  0.7143 -0.5694  2.5465
  125OSM    H8G13354   5.388   1.436   6.938  0.8403  1.3301  3.5660
  125OSM    C9F13355   5.225   1.465   7.083 -0.2877  0.7544  0.1654
  125OSM    H9F13356   5.125   1.426   7.058  1.3449 -1.7310 -2.8490
  125OSM   C10F13357   5.271   1.447   7.209  0.4205 -0.2829  1.1912
  125OSM   H10F13358   5.211   1.412   7.294 -0.1770 -0.4927  0.6837
  125OSM   C11F13359   5.415   1.473   7.248 -0.0638 -0.2345  0.2927
  125OSM   H11F13360   5.426   1.583   7.254  1.0097 -0.3672  0.9614
  125OSM   H11G13361   5.476   1.432   7.165 -3.1929  0.2598 -2.3817
  125OSM   C12F13362   5.448   1.431   7.393 -0.6009  0.4928 -0.6510
  125OSM   H12F13363   5.391   1.492   7.467  0.7844  1.5289 -0.4097
  125OSM   H12G13364   5.548   1.469   7.422 -0.4329  1.8283 -2.8927
  125OSM   C13F13365   5.434   1.281   7.423 -0.1764  0.3798  0.0701
  125OSM   H13F13366   5.522   1.236   7.371 -1.4833 -1.4690 -0.5768
  125OSM   H13G13367   5.342   1.236   7.380 -0.5649  1.3477 -0.1272
  125OSM   C14F13368   5.458   1.253   7.574 -0.0065  0.1078 -0.5845
  125OSM   H14F13369   5.547   1.310   7.608  0.4625 -0.6145 -0.6119
  125OSM   H14G13370   5.474   1.145   7.592 -0.5367  0.2006  0.4649
  125OSM   C15F13371   5.335   1.283   7.660 -1.2489 -0.3001 -0.7863
  125OSM   H15F13372   5.247   1.235   7.612 -2.0448 -0.2882  0.6654
  125OSM   H15G13373   5.320   1.393   7.649 -0.1309 -0.0400  0.2199
  125OSM   C16F13374   5.336   1.249   7.808 -0.1963 -0.8638 -0.1886
  125OSM   H16F13375   5.427   1.303   7.841 -0.9737  0.3367  0.0193
  125OSM   H16G13376   5.360   1.141   7.824  4.8091  0.3579  1.5054
  125OSM   C17F13377   5.207   1.291   7.890 -0.1129  0.8095  1.0169
  125OSM   H17F13378   5.239   1.243   7.985  0.9359 -0.2560  0.1430
  125OSM   H17G13379   5.113   1.246   7.852  0.4259  0.9210 -0.4930
  125OSM   C18F13380   5.178   1.441   7.911 -0.7456  0.1668 -0.0084
  125OSM   H18F13381   5.090   1.461   7.975 -2.2733 -0.7543 -1.7915
  125OSM   H18G13382   5.175   1.496   7.814  1.0538 -2.2235 -1.4684
  125OSM   H18H13383   5.266   1.470   7.973  0.6925 -0.7712 -1.5626
  126OSM      N13384   3.488   0.919   5.532 -0.5089  0.0819  0.1441
  126OSM    C1513385   3.458   0.874   5.398 -0.6229 -0.9131  0.2018
  126OSM   H15A13386   3.503   0.776   5.401  0.7387 -0.2615  2.3408
  126OSM   H15B13387   3.496   0.929   5.313 -0.9903 -1.1948 -0.1425
  126OSM   H15C13388   3.351   0.877   5.384 -0.5692 -0.6968 -0.1736
  126OSM    C1413389   3.638   0.930   5.540 -0.4533 -0.1437 -0.7779
  126OSM   H14A13390   3.672   0.989   5.457  1.1579  0.8174  0.5313
  126OSM   H14B13391   3.694   0.838   5.534  0.1212 -0.1243  2.8203
  126OSM   H14C13392   3.666   0.972   5.636  1.2175  0.0801 -1.3511
  126OSM    C1313393   3.423   1.053   5.562 -0.2628 -0.1567 -0.0846
  126OSM   H13A13394   3.328   1.069   5.513 -0.3097 -0.9559 -0.2587
  126OSM   H13B13395   3.473   1.139   5.520  0.7460  0.2702  1.9816
  126OSM   H13C13396   3.403   1.068   5.667 -1.3194  0.8144 -0.4167
  126OSM    C1213397   3.427   0.816   5.631 -0.4860 -0.3145  0.3464
  126OSM   H12A13398   3.462   0.718   5.602 -2.7060 -1.0070 -0.0732
  126OSM   H12B13399   3.323   0.813   5.601 -0.0928 -2.0443 -0.8943
  126OSM    C1113400   3.432   0.837   5.785  0.6966  0.1770 -0.5386
  126OSM   H11A13401   3.378   0.754   5.836  1.9271 -0.9061 -0.9918
  126OSM   H11B13402   3.369   0.927   5.804  0.6282  0.1626 -0.6939
  126OSM      P13403   3.643   0.731   5.871 -0.0380 -0.4964  0.1025
  126OSM    O1313404   3.586   0.615   5.799  0.6883  0.3268  0.0917
  126OSM    O1413405   3.786   0.756   5.850  0.5792 -0.3808 -0.9629
  126OSM    O1113406   3.611   0.714   6.021 -0.3407  0.0130  0.2751
  126OSM    O1213407   3.566   0.868   5.828  0.2692 -0.1967  0.6382
  126OSM    C1S13408   3.548   0.827   6.092  0.7367 -0.0949  0.0828
  126OSM    H1S13409   3.440   0.829   6.066  0.2473 -3.5870  1.5063
  126OSM    H1T13410   3.604   0.922   6.084 -2.0850  1.4616 -1.8713
  126OSM     NF13411   3.467   0.900   6.315 -0.3963  0.3248 -0.8988
  126OSM    HNF13412   3.530   0.969   6.350  0.9646 -1.1031 -0.4230
  126OSM    C2S13413   3.556   0.794   6.245  0.6342 -0.3175  0.0148
  126OSM    H2S13414   3.517   0.690   6.252  1.6471 -0.7403 -0.5365
  126OSM    C3S13415   3.700   0.789   6.300 -0.6619 -0.3531 -0.4847
  126OSM    H3S13416   3.749   0.889   6.295 -1.0972  0.0574  2.5212
  126OSM     O313417   3.786   0.700   6.238 -0.5618  0.6702  0.0757
  126OSM    HO313418   3.742   0.676   6.157 -0.4916 -2.3135  0.8667
  126OSM    C4S13419   3.685   0.753   6.443 -0.0023 -0.7202 -0.5760
  126OSM    H4S13420   3.647   0.651   6.458 -1.7702 -0.0463 -0.3798
  126OSM    C5S13421   3.700   0.823   6.553  0.0399 -0.5553 -0.6400
  126OSM    H5S13422   3.711   0.932   6.554 -1.2525 -0.4220  0.3789
  126OSM    C6S13423   3.682   0.773   6.695 -0.3578  0.7999 -0.0614
  126OSM    H6S13424   3.781   0.774   6.746  0.6051  0.4780 -1.8631
  126OSM    H6T13425   3.634   0.673   6.691 -0.4732  0.8937 -1.3182
  126OSM    C7S13426   3.587   0.864   6.779 -0.4126 -0.3909  0.3069
  126OSM    H7S13427   3.484   0.882   6.740  0.3131  1.8075 -0.6395
  126OSM    H7T13428   3.631   0.966   6.781 -1.9624  0.2954 -0.0977
  126OSM    C8S13429   3.560   0.821   6.928 -0.8707  0.2604  0.1810
  126OSM    H8S13430   3.654   0.793   6.979 -0.5158 -1.5706 -1.3928
  126OSM    H8T13431   3.489   0.735   6.934 -1.9268  1.0674 -0.6099
  126OSM    C9S13432   3.495   0.939   7.006 -0.3041  0.7449 -0.2459
  126OSM    H9S13433   3.404   0.969   6.949 -1.5914 -0.6075  1.0503
  126OSM    H9T13434   3.560   1.029   7.008 -0.9141  1.1751  1.2992
  126OSM   C10S13435   3.448   0.900   7.151  0.0364 -0.0845 -0.2237
  126OSM   H10S13436   3.542   0.890   7.209 -1.0847 -0.0366  1.6305
  126OSM   H10T13437   3.389   0.806   7.146 -2.4393  1.2298  2.8634
  126OSM   C11S13438   3.367   1.007   7.234 -0.1908  0.1022 -0.1351
  126OSM   H11S13439   3.275   1.017   7.171  0.9364 -0.7241 -1.9535
  126OSM   H11T13440   3.413   1.108   7.228  0.1637 -0.1048 -1.0123
  126OSM   C12S13441   3.326   0.966   7.375 -0.6830  0.3359 -0.2877
  126OSM   H12S13442   3.264   1.046   7.422  0.5690  0.9081  0.4021
  126OSM   H12T13443   3.411   0.956   7.445  1.0311  0.0846 -2.3654
  126OSM   C13S13444   3.255   0.828   7.392  0.1789  0.1896  0.2818
  126OSM   H13S13445   3.315   0.753   7.337  0.6871 -0.6769  1.9794
  126OSM   H13T13446   3.152   0.840   7.353  0.1380  1.5081  0.7761
  126OSM   C14S13447   3.243   0.790   7.541 -0.0215 -0.0805 -0.0125
  126OSM   H14S13448   3.192   0.858   7.612  0.1368 -1.1189  1.1218
  126OSM   H14T13449   3.348   0.787   7.579 -0.5870 -2.8867  1.5005
  126OSM   C15S13450   3.184   0.650   7.556  0.3214  0.0033  0.1394
  126OSM   H15S13451   3.230   0.588   7.476 -0.4822  2.1408 -2.0498
  126OSM   H15T13452   3.077   0.656   7.528  0.7180  1.3426 -1.1304
  126OSM   C16S13453   3.203   0.586   7.696 -0.4097  0.3532  0.0173
  126OSM   H16S13454   3.130   0.502   7.698 -0.5387  0.4485 -0.6131
  126OSM   H16T13455   3.173   0.654   7.779  1.8982 -0.3419  1.4803
  126OSM   C17S13456   3.340   0.534   7.722 -1.0781 -0.0930  0.2588
  126OSM   H17S13457   3.410   0.620   7.712 -0.8273 -0.2074  0.9759
  126OSM   H17T13458   3.359   0.473   7.631 -1.2317  1.9213 -1.1526
  126OSM   C18S13459   3.350   0.466   7.858 -0.2854  0.0189 -0.7442
  126OSM   H18S13460   3.447   0.413   7.860 -0.0979  0.3699 -0.4411
  126OSM   H18T13461   3.259   0.404   7.875 -0.7158  0.8305  0.0017
  126OSM   H18U13462   3.358   0.547   7.934  0.9028 -0.4127 -0.4051
  126OSM    C1F13463   3.338   0.891   6.325 -0.2043  0.2100 -0.0932
  126OSM     OF13464   3.270   0.811   6.259  0.0420  0.3433 -0.0554
  126OSM    C2F13465   3.259   1.009   6.386 -0.6198 -0.1715  0.4150
  126OSM    H2F13466   3.156   1.011   6.344 -1.3870  0.9273  2.2552
  126OSM    H2G13467   3.310   1.104   6.355 -0.4587 -0.5199 -0.4026
  126OSM    C3F13468   3.261   1.000   6.542 -0.0638 -0.2834  0.1909
  126OSM    H3F13469   3.209   1.090   6.582  0.4687 -0.3989  1.1587
  126OSM    H3G13470   3.366   0.988   6.575 -0.3307 -3.5972  0.0160
  126OSM    C4F13471   3.177   0.882   6.585  0.1034  0.5429  0.3674
  126OSM    H4F13472   3.208   0.779   6.558  0.1199  0.6839 -0.1663
  126OSM    H4G13473   3.082   0.899   6.530 -0.1833  1.8175  1.2382
  126OSM    C5F13474   3.163   0.882   6.733 -0.9674  0.1237 -0.5117
  126OSM    H5F13475   3.141   0.987   6.762  0.6307  0.8178 -1.7543
  126OSM    H5G13476   3.259   0.849   6.777 -0.1954  0.0637 -2.1980
  126OSM    C6F13477   3.067   0.782   6.794  0.1729 -0.2539 -0.0711
  126OSM    H6F13478   3.075   0.678   6.754 -0.4666 -0.1870 -0.3805
  126OSM    H6G13479   2.966   0.827   6.786  1.1679  2.0764  0.1465
  126OSM    C7F13480   3.096   0.769   6.945 -0.1563 -0.3596 -0.2014
  126OSM    H7F13481   2.996   0.772   6.994  0.1434  1.1137  0.3346
  126OSM    H7G13482   3.156   0.854   6.985  1.2640 -1.1488 -0.6354
  126OSM    C8F13483   3.184   0.656   6.992 -0.0123  0.1325  0.4518
  126OSM    H8F13484   3.213   0.658   7.099 -1.8303 -0.8367  0.9930
  126OSM    H8G13485   3.278   0.665   6.935  0.0418  0.4946  0.5991
  126OSM    C9F13486   3.127   0.522   6.959 -0.7177 -0.2633 -1.0409
  126OSM    H9F13487   3.023   0.518   6.992 -0.1754 -0.2559  0.6949
  126OSM   C10F13488   3.184   0.409   6.908 -0.2918 -0.2198  0.6140
  126OSM   H10F13489   3.125   0.320   6.884 -2.0113  1.2052 -0.6464
  126OSM   C11F13490   3.330   0.406   6.871 -0.4000 -0.4582  0.3714
  126OSM   H11F13491   3.361   0.508   6.841 -0.4591 -0.0345  1.7228
  126OSM   H11G13492   3.349   0.346   6.779 -3.7202  3.7953 -3.3097
  126OSM   C12F13493   3.422   0.365   6.983 -0.2955 -0.5710 -0.2503
  126OSM   H12F13494   3.528   0.372   6.949 -0.8809 -0.7335 -2.1783
  126OSM   H12G13495   3.402   0.260   7.014  0.0900 -0.4883  0.2805
  126OSM   C13F13496   3.425   0.452   7.106 -0.5066 -0.2712  0.0267
  126OSM   H13F13497   3.325   0.449   7.155  0.4704  3.5520  2.5093
  126OSM   H13G13498   3.452   0.556   7.077  1.8789 -1.3376 -1.7973
  126OSM   C14F13499   3.520   0.390   7.206 -0.9296  0.3336 -0.2074
  126OSM   H14F13500   3.624   0.400   7.166 -1.0591  0.1759 -0.5846
  126OSM   H14G13501   3.510   0.279   7.209  0.0059  0.2276 -0.7128
  126OSM   C15F13502   3.518   0.453   7.343 -0.3464 -0.1897 -0.8220
  126OSM   H15F13503   3.591   0.424   7.422  0.4304  0.9305 -1.1237
  126OSM   H15G13504   3.419   0.446   7.393 -0.6587  0.8359 -1.2922
  126OSM   C16F13505   3.562   0.597   7.349  0.0681  0.1182 -0.3079
  126OSM   H16F13506   3.542   0.662   7.436  0.5356  0.9350 -0.8033
  126OSM   H16G13507   3.502   0.641   7.267 -1.2711  0.6641  0.9568
  126OSM   C17F13508   3.714   0.621   7.324 -0.0479  0.2670  0.1750
  126OSM   H17F13509   3.730   0.728   7.350 -1.9112  0.3973  0.8227
  126OSM   H17G13510   3.734   0.604   7.217 -0.5761  0.6571  0.0127
  126OSM   C18F13511   3.818   0.528   7.404 -0.7451 -0.1795  0.1591
  126OSM   H18F13512   3.921   0.570   7.408 -0.4417 -1.0220  1.2731
  126OSM   H18G13513   3.820   0.430   7.352  0.5745 -0.1401  0.1268
  126OSM   H18H13514   3.782   0.506   7.506 -1.0392  0.8295  0.2820
  127OSM      N13515   1.703   1.479   5.702  0.5223 -0.7607 -0.3121
  127OSM    C1513516   1.719   1.575   5.820  0.1590  0.9153  0.5103
  127OSM   H15A13517   1.631   1.568   5.882  0.7859  1.3667  1.4475
  127OSM   H15B13518   1.726   1.676   5.781  0.4912  0.2515 -1.2292
  127OSM   H15C13519   1.811   1.548   5.870 -0.2973 -1.4281  0.1548
  127OSM    C1413520   1.582   1.531   5.621 -0.2368  0.5218  0.0261
  127OSM   H14A13521   1.597   1.482   5.526 -0.1449 -0.8197  0.7225
  127OSM   H14B13522   1.589   1.638   5.610  2.7167  0.3847  0.2895
  127OSM   H14C13523   1.490   1.494   5.665 -1.0342  1.4150 -0.8481
  127OSM    C1313524   1.827   1.484   5.620  0.3871 -0.2962  0.5619
  127OSM   H13A13525   1.862   1.586   5.616 -0.4230 -0.0350  0.1278
  127OSM   H13B13526   1.822   1.436   5.523 -3.3542  0.8172  0.1433
  127OSM   H13C13527   1.906   1.433   5.674  0.0745 -0.6522  0.6839
  127OSM    C1213528   1.687   1.331   5.748  0.7320  0.0948  0.1486
  127OSM   H12A13529   1.691   1.274   5.657  0.0223  0.4302 -0.0916
  127OSM   H12B13530   1.588   1.309   5.784 -0.3507  0.5303 -2.4646
  127OSM    C1113531   1.781   1.265   5.845  0.6177  0.7916  0.3066
  127OSM   H11A13532   1.734   1.176   5.892 -0.5499  1.4478  0.3953
  127OSM   H11B13533   1.798   1.343   5.922  1.3568 -0.1094  1.0558
  127OSM      P13534   2.023   1.167   5.873  0.2435 -0.0899 -0.0409
  127OSM    O1313535   2.125   1.123   5.778  0.4731 -0.2041  0.4272
  127OSM    O1413536   2.064   1.275   5.966  0.1210  0.0269  0.0276
  127OSM    O1113537   1.961   1.045   5.953 -0.8431 -0.3572 -0.0173
  127OSM    O1213538   1.903   1.219   5.788  0.1698  0.5876 -0.7849
  127OSM    C1S13539   2.004   1.044   6.100 -0.1410  0.3774 -0.1277
  127OSM    H1S13540   1.944   1.123   6.150 -0.3616 -0.9240  1.7181
  127OSM    H1T13541   2.114   1.049   6.109 -0.0235  2.1657 -2.1149
  127OSM     NF13542   1.974   0.930   6.312  0.0937 -0.3002 -0.0115
  127OSM    HNF13543   2.068   0.924   6.345 -0.1191  0.8611  0.8460
  127OSM    C2S13544   1.957   0.913   6.170 -0.5208  0.0767 -0.0907
  127OSM    H2S13545   1.849   0.898   6.154  0.0320 -1.6085 -2.4782
  127OSM    C3S13546   2.049   0.803   6.117 -0.2240 -0.2392 -0.0067
  127OSM    H3S13547   2.158   0.826   6.124 -0.7485  1.8787  1.4344
  127OSM     O313548   2.026   0.777   5.982  0.9930  0.1436 -0.2744
  127OSM    HO313549   1.976   0.854   5.953 -0.3649  0.1295  1.9519
  127OSM    C4S13550   2.021   0.674   6.190 -0.2427 -0.3614  0.3770
  127OSM    H4S13551   1.918   0.636   6.184 -0.2986 -0.3672  1.4002
  127OSM    C5S13552   2.118   0.605   6.252 -0.2819  0.6352 -0.1579
  127OSM    H5S13553   2.222   0.639   6.262 -0.0860 -0.4372  1.6762
  127OSM    C6S13554   2.103   0.475   6.330 -0.0223 -0.1150 -0.2617
  127OSM    H6S13555   2.197   0.416   6.332 -0.5292 -0.8938  2.7698
  127OSM    H6T13556   2.033   0.396   6.294 -0.7369 -0.2572  1.3971
  127OSM    C7S13557   2.074   0.507   6.477  0.4544 -0.1869  0.3383
  127OSM    H7S13558   2.038   0.418   6.532 -0.9039  0.6284  0.8070
  127OSM    H7T13559   1.994   0.584   6.493  1.9571  1.4497  0.1258
  127OSM    C8S13560   2.189   0.579   6.544 -0.4340  0.5377 -0.6797
  127OSM    H8S13561   2.218   0.672   6.491 -0.7561  0.0670 -1.6922
  127OSM    H8T13562   2.282   0.520   6.525 -1.6492 -1.2643 -1.1784
  127OSM    C9S13563   2.180   0.597   6.694 -0.5315 -0.2031 -0.2084
  127OSM    H9S13564   2.215   0.500   6.735 -0.8768  0.1517  0.9679
  127OSM    H9T13565   2.074   0.617   6.721 -1.0549 -3.0436  0.0184
  127OSM   C10S13566   2.277   0.698   6.756 -0.2124  0.6115 -0.1577
  127OSM   H10S13567   2.284   0.793   6.699 -1.9492 -0.3462 -2.0028
  127OSM   H10T13568   2.376   0.649   6.768  0.8550  2.7606 -0.0675
  127OSM   C11S13569   2.241   0.727   6.902 -0.4017 -0.3992  0.5904
  127OSM   H11S13570   2.137   0.762   6.918 -0.4737  0.3068 -1.3453
  127OSM   H11T13571   2.306   0.813   6.931 -0.9992 -0.1493  1.2043
  127OSM   C12S13572   2.262   0.624   7.007 -0.0390 -0.5626  0.3516
  127OSM   H12S13573   2.368   0.597   6.990  0.1687  1.3741 -1.5500
  127OSM   H12T13574   2.203   0.530   6.993 -0.7940 -0.1772  0.8848
  127OSM   C13S13575   2.250   0.677   7.151  0.6774  0.1789  0.1661
  127OSM   H13S13576   2.141   0.669   7.166  0.5335 -0.8362 -1.2655
  127OSM   H13T13577   2.288   0.780   7.167 -0.9204  0.5191  1.9062
  127OSM   C14S13578   2.337   0.591   7.247  0.5066 -0.6973  0.0596
  127OSM   H14S13579   2.326   0.484   7.217  0.1041 -0.6851  0.1592
  127OSM   H14T13580   2.288   0.605   7.346  1.4539 -1.6933  0.6791
  127OSM   C15S13581   2.488   0.636   7.259  0.2320 -0.1056  0.1640
  127OSM   H15S13582   2.501   0.746   7.263  0.9712 -0.1585 -0.5936
  127OSM   H15T13583   2.553   0.604   7.175  1.2923  0.9313  0.5765
  127OSM   C16S13584   2.544   0.597   7.401  0.9758  0.4954  0.0906
  127OSM   H16S13585   2.459   0.621   7.468  1.2644  0.0543  0.6165
  127OSM   H16T13586   2.635   0.659   7.416 -0.7449  3.3693 -0.9546
  127OSM   C17S13587   2.580   0.446   7.420 -0.0841 -0.1035  0.1152
  127OSM   H17S13588   2.669   0.424   7.358  0.9151  1.0622  1.1283
  127OSM   H17T13589   2.492   0.395   7.373 -0.9846  0.7007  0.9086
  127OSM   C18S13590   2.596   0.402   7.569  0.0159 -0.5445  0.2728
  127OSM   H18S13591   2.684   0.454   7.613  1.4700  0.0257 -3.1245
  127OSM   H18T13592   2.594   0.291   7.574  0.4392 -0.5631  0.0532
  127OSM   H18U13593   2.509   0.443   7.624  0.0004  1.7910 -1.4009
  127OSM    C1F13594   1.877   0.988   6.383  0.4917  0.5957 -0.1070
  127OSM     OF13595   1.782   1.052   6.333 -0.0125  0.2803 -0.0919
  127OSM    C2F13596   1.901   0.991   6.537  0.3758 -0.1630 -0.1590
  127OSM    H2F13597   1.934   1.093   6.565  3.2309 -1.1253  0.1586
  127OSM    H2G13598   1.991   0.930   6.561  0.5677  1.2719  3.0293
  127OSM    C3F13599   1.787   0.939   6.629  0.0289  0.1388  0.1428
  127OSM    H3F13600   1.764   0.838   6.591  1.8673 -0.5835  0.8690
  127OSM    H3G13601   1.707   1.008   6.594  2.0569  2.8394  0.6423
  127OSM    C4F13602   1.798   0.955   6.775 -0.0053 -0.3291  0.2209
  127OSM    H4F13603   1.846   1.050   6.807  0.6770 -0.7267  0.3830
  127OSM    H4G13604   1.852   0.872   6.825 -0.9959  0.1640  2.1602
  127OSM    C5F13605   1.655   0.953   6.847 -1.1485 -0.4915 -0.0397
  127OSM    H5F13606   1.624   0.846   6.841  1.4331 -1.2923  0.2915
  127OSM    H5G13607   1.582   1.012   6.787  1.8938  0.6007 -2.7835
  127OSM    C6F13608   1.645   1.004   6.994 -0.1065  0.8476  0.1270
  127OSM    H6F13609   1.548   1.053   7.013  1.1728  3.0882  1.0448
  127OSM    H6G13610   1.722   1.083   7.008 -0.3984  0.9113  1.3461
  127OSM    C7F13611   1.664   0.895   7.106 -0.4823 -0.3133  0.5904
  127OSM    H7F13612   1.591   0.811   7.100 -1.9870  1.0155 -0.3629
  127OSM    H7G13613   1.639   0.943   7.203  1.8267  2.2410 -0.0413
  127OSM    C8F13614   1.800   0.837   7.106 -0.4995 -0.2399 -0.3422
  127OSM    H8F13615   1.875   0.919   7.115 -1.1550  0.4281 -0.9581
  127OSM    H8G13616   1.828   0.780   7.015  2.3007 -2.2803  1.7141
  127OSM    C9F13617   1.829   0.744   7.225 -0.3459 -0.0991 -0.0582
  127OSM    H9F13618   1.790   0.642   7.213  1.1094 -0.5626 -1.0465
  127OSM   C10F13619   1.895   0.773   7.338 -0.4105 -0.3797 -0.0638
  127OSM   H10F13620   1.895   0.695   7.415  0.2615  0.7461  1.0889
  127OSM   C11F13621   1.956   0.907   7.378  0.3959  0.6571  0.5401
  127OSM   H11F13622   1.891   0.942   7.461  1.4576  3.2829  0.3386
  127OSM   H11G13623   1.935   0.985   7.302 -0.2349 -1.5327 -1.6053
  127OSM   C12F13624   2.106   0.906   7.400 -0.1262  0.1266 -0.4401
  127OSM   H12F13625   2.151   0.900   7.299 -0.0737 -1.5142 -0.3251
  127OSM   H12G13626   2.137   0.813   7.453  2.0953  1.4160  0.5705
  127OSM   C13F13627   2.161   1.027   7.472 -0.1403  0.5568  0.7878
  127OSM   H13F13628   2.109   1.023   7.571 -1.3319 -0.9163  0.1243
  127OSM   H13G13629   2.131   1.126   7.432  1.8918  1.1077  0.5701
  127OSM   C14F13630   2.314   1.024   7.485 -0.4387 -0.5168  0.1202
  127OSM   H14F13631   2.351   1.119   7.529 -3.8409  0.6166  0.6591
  127OSM   H14G13632   2.358   1.007   7.385  2.3305 -1.2126  1.4087
  127OSM   C15F13633   2.360   0.905   7.571 -0.7516  0.3034  0.9424
  127OSM   H15F13634   2.468   0.916   7.593  0.6193 -0.7301 -4.5576
  127OSM   H15G13635   2.356   0.820   7.500  0.2133  0.9857  0.0626
  127OSM   C16F13636   2.284   0.884   7.696  0.3884  0.4479 -0.8725
  127OSM   H16F13637   2.327   0.796   7.750  0.5289  1.4335  0.6544
  127OSM   H16G13638   2.186   0.843   7.666  1.2216 -0.7678 -1.9839
  127OSM   C17F13639   2.268   1.000   7.788 -0.1042 -0.7240  0.3546
  127OSM   H17F13640   2.208   1.083   7.744 -0.4658 -1.2950 -0.2414
  127OSM   H17G13641   2.359   1.040   7.837 -0.1370  0.7311 -0.7286
  127OSM   C18F13642   2.193   0.957   7.908  0.2627  0.5663  0.3450
  127OSM   H18F13643   2.231   0.863   7.952 -0.3004  0.1205 -0.1183
  127OSM   H18G13644   2.083   0.953   7.891 -0.1077  1.8837  2.2527
  127OSM   H18H13645   2.202   1.041   7.980 -0.4534  0.5443  0.4637
  128OSM      N13646   5.923   5.550   5.928 -0.1374  0.2988 -0.6790
  128OSM    C1513647   5.823   5.511   6.033 -0.6598 -0.3659 -0.0522
  128OSM   H15A13648   5.769   5.421   6.011  1.3430 -1.3039 -1.2875
  128OSM   H15B13649   5.738   5.576   6.048  0.0100 -0.1162  3.2134
  128OSM   H15C13650   5.860   5.502   6.134 -0.7850  0.2662  0.0525
  128OSM    C1413651   5.863   5.520   5.790  0.2813 -0.0872 -0.0431
  128OSM   H14A13652   5.927   5.557   5.712 -0.5703  0.0010 -0.7115
  128OSM   H14B13653   5.773   5.579   5.780 -0.3541 -1.1304 -0.5380
  128OSM   H14C13654   5.838   5.416   5.774 -0.1707  0.0724 -0.3847
  128OSM    C1313655   5.960   5.692   5.935 -0.0882 -0.7792 -0.2757
  128OSM   H13A13656   5.883   5.767   5.922 -0.1600 -0.7414  0.3299
  128OSM   H13B13657   6.024   5.715   5.851  1.5822 -3.3893  0.1965
  128OSM   H13C13658   6.012   5.702   6.029  1.3945  0.9548 -1.2604
  128OSM    C1213659   6.043   5.457   5.935 -0.2381 -0.8249 -0.0602
  128OSM   H12A13660   6.097   5.473   5.844 -0.5409  1.9547  0.2201
  128OSM   H12B13661   5.993   5.361   5.936 -2.2068  0.1538  1.5202
  128OSM    C1113662   6.141   5.458   6.059 -0.4888 -0.2541 -0.1735
  128OSM   H11A13663   6.198   5.363   6.058 -0.3381 -0.1624 -0.3372
  128OSM   H11B13664   6.085   5.456   6.155  0.2930  0.3098  0.2966
  128OSM      P13665   6.350   5.585   5.958 -0.0595 -0.1211  0.3019
  128OSM    O1313666   6.322   5.488   5.851 -0.4000  0.3229  0.0009
  128OSM    O1413667   6.392   5.719   5.911 -0.1897 -0.1015 -0.2612
  128OSM    O1113668   6.458   5.528   6.060  0.3043 -0.2109 -0.2767
  128OSM    O1213669   6.224   5.581   6.048  0.6685  0.3271  0.5933
  128OSM    C1S13670   6.469   5.581   6.191  0.5638  0.1207  0.8266
  128OSM    H1S13671   6.409   5.674   6.207 -0.6547 -0.6676  0.9644
  128OSM    H1T13672   6.574   5.612   6.211  0.0380  1.3125  1.8685
  128OSM     NF13673   6.425   5.528   6.429  0.5799 -0.6147  0.2162
  128OSM    HNF13674   6.497   5.507   6.496  0.5381 -1.4756 -0.0058
  128OSM    C2S13675   6.425   5.472   6.297 -0.1020  0.0217  0.0645
  128OSM    H2S13676   6.321   5.446   6.271 -0.0993 -0.9581  1.0073
  128OSM    C3S13677   6.517   5.345   6.286 -0.2546  0.6421 -0.0049
  128OSM    H3S13678   6.614   5.376   6.329 -0.5938  1.6212  0.0554
  128OSM     O313679   6.538   5.308   6.152  0.3262 -0.1626  0.2633
  128OSM    HO313680   6.514   5.393   6.115  1.2297  0.4054  0.9655
  128OSM    C4S13681   6.456   5.241   6.377  0.2487  0.1007  0.2544
  128OSM    H4S13682   6.349   5.233   6.356  0.4839  1.0357 -1.3931
  128OSM    C5S13683   6.508   5.152   6.461 -0.3929 -0.5943 -0.2922
  128OSM    H5S13684   6.615   5.141   6.486 -0.2992  0.7801 -0.0140
  128OSM    C6S13685   6.424   5.057   6.529  0.8488 -0.0295 -0.8192
  128OSM    H6S13686   6.436   4.951   6.499  0.6628 -0.1284 -0.5440
  128OSM    H6T13687   6.316   5.072   6.512  0.3307 -2.1613  0.4167
  128OSM    C7S13688   6.442   5.058   6.681  0.6437 -0.7117 -0.3007
  128OSM    H7S13689   6.364   4.991   6.724  0.5422  0.2217  0.9857
  128OSM    H7T13690   6.401   5.154   6.719 -0.5015 -1.4599  0.3860
  128OSM    C8S13691   6.576   5.011   6.723  0.1637  0.3990 -0.1325
  128OSM    H8S13692   6.658   5.080   6.692 -0.0596  1.4280  1.5147
  128OSM    H8T13693   6.589   4.917   6.665 -2.2728 -0.0474 -0.0145
  128OSM    C9S13694   6.580   4.992   6.879  0.1308 -0.6007  0.1219
  128OSM    H9S13695   6.677   4.948   6.909  0.0079 -1.3650 -0.5660
  128OSM    H9T13696   6.509   4.913   6.910  0.0071  0.2432  2.0006
  128OSM   C10S13697   6.543   5.115   6.967  0.6886  0.7441  0.0481
  128OSM   H10S13698   6.444   5.159   6.942  0.3795 -0.3769 -0.7136
  128OSM   H10T13699   6.617   5.197   6.959 -0.8166  2.0442 -1.0655
  128OSM   C11S13700   6.551   5.074   7.119 -0.9322  0.8817 -0.0389
  128OSM   H11S13701   6.654   5.039   7.140 -0.3105  1.9046 -1.2706
  128OSM   H11T13702   6.479   4.993   7.142  0.2157  0.0194  0.5742
  128OSM   C12S13703   6.531   5.197   7.206  0.2010  0.6791  0.4035
  128OSM   H12S13704   6.448   5.263   7.172 -1.1061 -1.0996  0.0531
  128OSM   H12T13705   6.621   5.262   7.197  2.7211 -2.7984 -0.5627
  128OSM   C13S13706   6.509   5.165   7.351 -0.4857 -0.1131  0.3077
  128OSM   H13S13707   6.430   5.091   7.376  1.5359 -1.6709  2.2773
  128OSM   H13T13708   6.499   5.266   7.397  0.9198  1.2617 -2.3322
  128OSM   C14S13709   6.634   5.088   7.399  0.2193 -0.0912  0.0615
  128OSM   H14S13710   6.728   5.114   7.346  0.7960 -0.1672  1.0351
  128OSM   H14T13711   6.625   4.977   7.404  0.2096 -0.0865  0.1740
  128OSM   C15S13712   6.671   5.144   7.539  0.3322 -0.1363 -0.1083
  128OSM   H15S13713   6.578   5.150   7.600  0.6217 -2.9415  0.6928
  128OSM   H15T13714   6.711   5.247   7.529 -2.5271  1.0487  0.0732
  128OSM   C16S13715   6.778   5.059   7.605 -0.6964  0.0269 -0.1388
  128OSM   H16S13716   6.869   5.063   7.541 -0.1176 -0.5507  0.6337
  128OSM   H16T13717   6.748   4.954   7.627  1.6050 -1.3669 -3.2749
  128OSM   C17S13718   6.821   5.116   7.741  0.2430 -0.0611 -0.7194
  128OSM   H17S13719   6.850   5.222   7.728 -0.9704  0.5338  1.2527
  128OSM   H17T13720   6.917   5.067   7.768  0.6472  1.5206  0.7631
  128OSM   C18S13721   6.710   5.112   7.847 -0.9358  0.4817 -0.5107
  128OSM   H18S13722   6.623   5.174   7.817  0.0605  3.0320  1.6880
  128OSM   H18T13723   6.749   5.133   7.949  0.5816 -1.9591 -0.5452
  128OSM   H18U13724   6.675   5.007   7.860 -0.0830  0.3108  0.4964
  128OSM    C1F13725   6.341   5.619   6.485 -0.8401  0.7899  0.3153
  128OSM     OF13726   6.262   5.668   6.412  0.5222 -0.0726 -0.5372
  128OSM    C2F13727   6.348   5.645   6.632  0.4605  0.2925 -0.3847
  128OSM    H2F13728   6.288   5.736   6.653 -1.9675 -1.2640 -0.4255
  128OSM    H2G13729   6.450   5.676   6.665 -0.1722  2.1131 -0.1177
  128OSM    C3F13730   6.300   5.520   6.718 -0.4835  1.0057 -0.2085
  128OSM    H3F13731   6.351   5.425   6.691  0.2460  1.8696 -1.9077
  128OSM    H3G13732   6.194   5.500   6.692  0.1339 -0.1745 -1.9132
  128OSM    C4F13733   6.295   5.544   6.873 -0.1269  0.2194  0.2926
  128OSM    H4F13734   6.230   5.461   6.906 -0.2804  0.0312 -0.4759
  128OSM    H4G13735   6.251   5.645   6.888 -3.3499 -0.9463 -0.8606
  128OSM    C5F13736   6.430   5.536   6.935 -0.0974 -0.1976 -0.0308
  128OSM    H5F13737   6.493   5.612   6.884  0.6990  0.2913  1.6456
  128OSM    H5G13738   6.466   5.436   6.903 -0.0886  0.3980 -1.9214
  128OSM    C6F13739   6.435   5.539   7.088 -0.5449 -0.2105  0.0519
  128OSM    H6F13740   6.541   5.522   7.116 -0.4277 -2.4645 -1.6199
  128OSM    H6G13741   6.366   5.462   7.128 -0.6501  0.9587  2.2102
  128OSM    C7F13742   6.394   5.677   7.152 -0.0117 -0.2038 -0.3667
  128OSM    H7F13743   6.295   5.701   7.108  0.2210  0.4411 -0.5330
  128OSM    H7G13744   6.463   5.757   7.118  0.3365 -0.0326  0.7142
  128OSM    C8F13745   6.380   5.673   7.305 -0.1354  0.4204 -0.2459
  128OSM    H8F13746   6.478   5.645   7.350  0.4070  0.2205 -1.5003
  128OSM    H8G13747   6.299   5.601   7.331  0.3196  0.2552  0.7474
  128OSM    C9F13748   6.328   5.793   7.367  0.2773 -0.7544  0.1464
  128OSM    H9F13749   6.229   5.823   7.329  0.0983  0.5634  1.5907
  128OSM   C10F13750   6.394   5.877   7.452  0.0243 -1.1143  0.1427
  128OSM   H10F13751   6.337   5.963   7.492  0.6623  0.6993 -2.7058
  128OSM   C11F13752   6.543   5.863   7.495  0.4292  0.7369 -0.4895
  128OSM   H11F13753   6.615   5.876   7.411  1.4164  2.0912  0.5400
  128OSM   H11G13754   6.552   5.760   7.536 -1.9978  0.2592 -1.1339
  128OSM   C12F13755   6.591   5.960   7.605  0.1578  0.7801  0.2916
  128OSM   H12F13756   6.527   5.970   7.695 -1.4090 -0.1206 -0.7032
  128OSM   H12G13757   6.590   6.058   7.552 -2.1734  0.7764  0.2652
  128OSM   C13F13758   6.731   5.926   7.639 -0.3488  0.0930 -0.4860
  128OSM   H13F13759   6.801   5.967   7.564 -2.4894 -0.4176 -2.8465
  128OSM   H13G13760   6.741   5.815   7.640  0.0209  0.1290  1.5047
  128OSM   C14F13761   6.785   5.995   7.769  0.1888  0.3241  0.2525
  128OSM   H14F13762   6.714   5.965   7.850 -1.5003  0.4633 -1.1611
  128OSM   H14G13763   6.779   6.104   7.747  1.7389 -0.1038 -2.4697
  128OSM   C15F13764   6.923   5.943   7.825 -0.1139 -0.1209  0.6922
  128OSM   H15F13765   6.934   5.838   7.792 -0.3377  0.2583 -0.6442
  128OSM   H15G13766   6.916   5.965   7.933 -1.7830  2.4988  0.1153
  128OSM   C16F13767   7.044   6.012   7.754 -0.7435 -0.5434  0.4124
  128OSM   H16F13768   7.063   5.972   7.652  2.0088  0.3476  0.5470
  128OSM   H16G13769   7.136   5.984   7.808 -1.4883  0.0087  1.9904
  128OSM   C17F13770   7.038   6.164   7.754  0.7471 -0.1932 -0.3658
  128OSM   H17F13771   7.036   6.198   7.860 -0.1569 -1.6798  0.1143
  128OSM   H17G13772   6.943   6.200   7.709 -0.0987  1.3192  2.5441
  128OSM   C18F13773   7.153   6.235   7.686 -0.3450  0.3126 -0.2092
  128OSM   H18F13774   7.143   6.346   7.678 -0.0249  0.4768  1.5841
  128OSM   H18G13775   7.157   6.201   7.580  3.8087 -2.5864  0.7904
  128OSM   H18H13776   7.250   6.205   7.730  0.3468  0.9834 -1.2501
  129OSM      N13777   4.387   0.458   5.693  0.7388  0.3153  0.0759
  129OSM    C1513778   4.452   0.358   5.609 -0.1473  0.1349  0.1808
  129OSM   H15A13779   4.424   0.360   5.505  1.5837  4.2750 -0.3170
  129OSM   H15B13780   4.433   0.257   5.643 -0.6457  0.1399 -0.0747
  129OSM   H15C13781   4.555   0.389   5.608 -0.5926  1.7119  0.7756
  129OSM    C1413782   4.444   0.444   5.836 -0.7616 -0.0205 -0.1806
  129OSM   H14A13783   4.552   0.441   5.841 -0.8723 -1.2204  2.6138
  129OSM   H14B13784   4.390   0.368   5.890  0.4272 -0.5223  0.3133
  129OSM   H14C13785   4.435   0.541   5.884 -1.3296 -0.5167  0.7235
  129OSM    C1313786   4.408   0.596   5.639 -0.2610  0.7330 -0.2330
  129OSM   H13A13787   4.405   0.603   5.532  1.5333  1.1366 -0.2770
  129OSM   H13B13788   4.511   0.620   5.661 -0.8517  2.2048  0.9956
  129OSM   H13C13789   4.344   0.674   5.679 -0.0977 -0.3176  2.1795
  129OSM    C1213790   4.235   0.433   5.704  0.0231  0.4237  0.4458
  129OSM   H12A13791   4.193   0.445   5.606 -0.7796 -1.3997  0.5457
  129OSM   H12B13792   4.195   0.506   5.773 -0.5363  0.2879  0.2654
  129OSM    C1113793   4.179   0.295   5.765  0.1735 -0.7566  1.1161
  129OSM   H11A13794   4.207   0.218   5.690 -1.8252 -0.0591 -0.3902
  129OSM   H11B13795   4.068   0.303   5.756  0.2516 -0.9760 -0.1629
  129OSM      P13796   4.138   0.334   6.014 -0.2658  0.2884 -0.1779
  129OSM    O1313797   4.226   0.367   6.125 -0.4222 -0.3066 -0.1590
  129OSM    O1413798   4.058   0.447   5.961  0.7262 -0.3824 -0.2590
  129OSM    O1113799   4.041   0.218   6.054 -0.4814 -0.1187  0.7083
  129OSM    O1213800   4.227   0.265   5.896 -1.7277 -0.0077  0.2048
  129OSM    C1S13801   4.083   0.088   6.091 -0.1302  0.0443 -0.6162
  129OSM    H1S13802   4.169   0.049   6.032  0.3097  1.3224 -0.8242
  129OSM    H1T13803   3.998   0.016   6.084  1.3731 -1.6344 -2.4527
  129OSM     NF13804   4.174  -0.061   6.256  0.4313 -0.1824  0.4211
  129OSM    HNF13805   4.121  -0.117   6.320  2.9719 -2.2456  0.8166
  129OSM    C2S13806   4.135   0.074   6.239 -0.3357  0.2718  0.0869
  129OSM    H2S13807   4.227   0.136   6.245 -0.0965 -0.2230  1.7498
  129OSM    C3S13808   4.030   0.114   6.347  0.4732  0.1398 -0.4056
  129OSM    H3S13809   3.935   0.058   6.337 -0.0919  0.9737  0.2748
  129OSM     O313810   3.981   0.246   6.333  0.0793  0.5848  0.6605
  129OSM    HO313811   4.027   0.268   6.252  0.9720 -1.9384  0.4080
  129OSM    C4S13812   4.082   0.090   6.486 -0.8618 -0.6666 -0.4129
  129OSM    H4S13813   4.048  -0.004   6.532  0.9080 -0.3547  1.5833
  129OSM    C5S13814   4.159   0.177   6.550 -0.2796 -0.0929  0.2972
  129OSM    H5S13815   4.182   0.273   6.502 -2.5691 -0.0544 -0.7975
  129OSM    C6S13816   4.209   0.143   6.692 -0.0016 -0.6553 -0.2086
  129OSM    H6S13817   4.131   0.141   6.770  0.8070 -0.3046  0.6140
  129OSM    H6T13818   4.276   0.224   6.729 -2.0331  0.7229  0.5078
  129OSM    C7S13819   4.283   0.011   6.716  0.1828  0.1313  0.9007
  129OSM    H7S13820   4.341  -0.010   6.624 -2.1443  2.3292 -1.1657
  129OSM    H7T13821   4.219  -0.078   6.734  1.2722 -1.1449 -1.4379
  129OSM    C8S13822   4.370   0.033   6.844 -1.6111 -0.0248  0.2358
  129OSM    H8S13823   4.412   0.135   6.853 -2.1042  0.2770 -0.9111
  129OSM    H8T13824   4.461  -0.031   6.854 -0.8665  0.8407 -0.9109
  129OSM    C9S13825   4.292   0.013   6.973  0.4345  0.4383  0.0359
  129OSM    H9S13826   4.247  -0.088   6.966 -1.9653  1.5632 -1.4034
  129OSM    H9T13827   4.215   0.093   6.984  1.4062  1.4119 -0.1431
  129OSM   C10S13828   4.377   0.022   7.100  0.0109 -0.2158  1.0424
  129OSM   H10S13829   4.424   0.119   7.128  1.9463 -1.1843  1.1913
  129OSM   H10T13830   4.465  -0.044   7.084  0.4313  0.4482  0.5782
  129OSM   C11S13831   4.300  -0.013   7.227 -0.8224 -0.1633 -0.1932
  129OSM   H11S13832   4.374  -0.025   7.308  0.1712 -1.1768 -1.2240
  129OSM   H11T13833   4.248  -0.110   7.213 -1.9936  0.6595 -1.7518
  129OSM   C12S13834   4.193   0.094   7.263 -0.5783 -0.4028  0.5236
  129OSM   H12S13835   4.116   0.114   7.185  1.0470 -1.3202 -1.3604
  129OSM   H12T13836   4.232   0.196   7.282  0.1832 -0.5472 -0.2375
  129OSM   C13S13837   4.124   0.055   7.390  1.1405 -0.2121  0.3042
  129OSM   H13S13838   4.213   0.038   7.454  1.4414  0.2069  0.0012
  129OSM   H13T13839   4.075  -0.044   7.374  0.5566  0.3955 -1.8514
  129OSM   C14S13840   4.022   0.157   7.442  0.3342 -1.2914  0.0533
  129OSM   H14S13841   3.939   0.179   7.372 -0.4913 -0.3168  1.3117
  129OSM   H14T13842   4.076   0.251   7.464 -1.1373 -0.6126  0.8194
  129OSM   C15S13843   3.957   0.113   7.573 -0.0030 -0.1244  0.3562
  129OSM   H15S13844   4.035   0.067   7.638  0.4767  1.8481  1.2226
  129OSM   H15T13845   3.893   0.029   7.540 -0.3436  0.7440 -1.2369
  129OSM   C16S13846   3.877   0.217   7.651  0.5241 -0.3052 -0.5470
  129OSM   H16S13847   3.805   0.274   7.588  0.5180 -1.7162 -1.8488
  129OSM   H16T13848   3.954   0.291   7.683 -1.2064  0.9416  0.8485
  129OSM   C17S13849   3.811   0.167   7.771  0.8566  0.0118 -0.2557
  129OSM   H17S13850   3.752   0.081   7.731  0.6563 -1.8815  3.8645
  129OSM   H17T13851   3.742   0.247   7.805  0.4679  0.2731 -1.6530
  129OSM   C18S13852   3.904   0.124   7.883 -0.1039  0.5270  0.5629
  129OSM   H18S13853   3.858   0.079   7.973 -1.6427  0.3863 -0.2718
  129OSM   H18T13854   3.956   0.216   7.916  2.3562 -1.1733  1.6081
  129OSM   H18U13855   3.976   0.045   7.852 -3.2213 -2.2428  0.0486
  129OSM    C1F13856   4.276  -0.119   6.195  0.1623  0.3232 -0.1678
  129OSM     OF13857   4.363  -0.059   6.130 -0.5013 -0.2232 -0.6812
  129OSM    C2F13858   4.284  -0.267   6.198  0.5021  0.1270 -0.2720
  129OSM    H2F13859   4.253  -0.314   6.103 -1.2233 -0.4946  0.5845
  129OSM    H2G13860   4.218  -0.300   6.281 -1.3632  2.9262 -0.5570
  129OSM    C3F13861   4.431  -0.310   6.212 -0.3087 -0.1463  1.2021
  129OSM    H3F13862   4.497  -0.259   6.139 -0.4395  0.3880  1.4498
  129OSM    H3G13863   4.425  -0.416   6.178  0.4946  0.8215 -2.1863
  129OSM    C4F13864   4.484  -0.306   6.352 -0.2189 -0.2525  0.5348
  129OSM    H4F13865   4.426  -0.381   6.410  1.0396 -2.5549 -1.1037
  129OSM    H4G13866   4.470  -0.211   6.409 -0.3781  0.3176 -0.4457
  129OSM    C5F13867   4.637  -0.346   6.361  0.3511 -0.0086  0.0103
  129OSM    H5F13868   4.689  -0.274   6.293 -0.7058  0.3791 -0.3940
  129OSM    H5G13869   4.643  -0.448   6.317  0.6115  0.5318 -1.2367
  129OSM    C6F13870   4.684  -0.353   6.504 -0.6655  0.5535 -0.3560
  129OSM    H6F13871   4.666  -0.254   6.552 -0.6690  0.4877 -0.2244
  129OSM    H6G13872   4.792  -0.378   6.505 -1.2568 -2.2328 -0.9371
  129OSM    C7F13873   4.616  -0.468   6.588 -0.3230 -0.6012 -0.2490
  129OSM    H7F13874   4.638  -0.567   6.541 -0.3394 -0.5031 -0.4678
  129OSM    H7G13875   4.505  -0.461   6.584 -0.2450 -0.0551 -2.4885
  129OSM    C8F13876   4.660  -0.491   6.742 -0.1247 -0.7067 -0.1789
  129OSM    H8F13877   4.764  -0.529   6.740 -0.7857 -2.6473  0.9134
  129OSM    H8G13878   4.588  -0.569   6.774  0.7337 -1.2457  0.4342
  129OSM    C9F13879   4.654  -0.359   6.818  0.3930 -0.3673  0.1071
  129OSM    H9F13880   4.716  -0.278   6.776  0.6101 -1.1099 -1.0179
  129OSM   C10F13881   4.572  -0.338   6.926  0.3758 -0.0211  0.2479
  129OSM   H10F13882   4.577  -0.241   6.978 -1.0191 -0.5189  1.3122
  129OSM   C11F13883   4.484  -0.444   6.991 -0.0233 -0.0739 -0.1675
  129OSM   H11F13884   4.534  -0.542   6.977  1.7060  1.0677 -2.2885
  129OSM   H11G13885   4.390  -0.455   6.933 -0.0934  0.9988 -0.2749
  129OSM   C12F13886   4.446  -0.406   7.133  0.5234  0.3820  0.3045
  129OSM   H12F13887   4.386  -0.488   7.179 -0.4190  1.2588  0.6386
  129OSM   H12G13888   4.389  -0.311   7.135 -1.2809 -0.6402 -0.9508
  129OSM   C13F13889   4.562  -0.381   7.232 -0.1051  0.2363  0.1229
  129OSM   H13F13890   4.607  -0.280   7.222 -1.6123  0.8083 -1.2702
  129OSM   H13G13891   4.641  -0.451   7.198  1.3385  1.8330  0.1517
  129OSM   C14F13892   4.520  -0.413   7.377 -0.1444  0.5254  1.0760
  129OSM   H14F13893   4.613  -0.431   7.434  0.0451  0.8426  0.8727
  129OSM   H14G13894   4.473  -0.513   7.383 -0.9196  0.8601  0.7107
  129OSM   C15F13895   4.437  -0.309   7.441  0.0068 -0.1551  0.5572
  129OSM   H15F13896   4.353  -0.286   7.373 -0.8130 -1.9485  0.9288
  129OSM   H15G13897   4.484  -0.209   7.453 -0.9482  0.5608 -1.5700
  129OSM   C16F13898   4.377  -0.359   7.572  0.0129 -0.4528 -0.2074
  129OSM   H16F13899   4.453  -0.388   7.647  0.2776 -1.5868 -0.8972
  129OSM   H16G13900   4.335  -0.461   7.553 -0.3723 -0.1501 -1.0410
  129OSM   C17F13901   4.267  -0.269   7.638 -0.3732  0.1524  0.0250
  129OSM   H17F13902   4.202  -0.331   7.703  0.2075 -1.8457 -1.2875
  129OSM   H17G13903   4.204  -0.220   7.560 -0.8608 -1.2179 -0.4451
  129OSM   C18F13904   4.341  -0.162   7.722  0.2906 -0.0166  0.4490
  129OSM   H18F13905   4.268  -0.090   7.764  1.7173  0.5397  2.0419
  129OSM   H18G13906   4.418  -0.104   7.667  0.0537  0.5581  0.7132
  129OSM   H18H13907   4.390  -0.202   7.814 -2.1162 -0.4818  1.5630
  130OSM      N13908   0.174   2.950   5.976 -1.2713  0.5990 -0.4926
  130OSM    C1513909   0.240   2.901   5.853  0.3930 -0.0630 -0.6620
  130OSM   H15A13910   0.267   2.800   5.880 -0.3195  0.0004  0.2899
  130OSM   H15B13911   0.330   2.955   5.826  0.7714  0.1756  0.9918
  130OSM   H15C13912   0.174   2.902   5.768  2.0963  1.4313 -2.0115
  130OSM    C1413913   0.275   2.958   6.078  0.4786 -0.0304 -0.3466
  130OSM   H14A13914   0.366   3.015   6.069  0.8649 -0.2706  1.7477
  130OSM   H14B13915   0.315   2.858   6.094 -0.8700 -0.8000 -1.6750
  130OSM   H14C13916   0.235   2.993   6.172  1.4543  1.3277 -0.4274
  130OSM    C1313917   0.115   3.085   5.954  0.6629 -0.3159  0.0240
  130OSM   H13A13918   0.192   3.143   5.905  1.3690 -0.5589  0.8370
  130OSM   H13B13919   0.095   3.122   6.053 -2.6320  2.4540 -1.5891
  130OSM   H13C13920   0.025   3.076   5.895  0.7034  1.3178 -0.2975
  130OSM    C1213921   0.070   2.844   6.019 -0.2071 -0.5979 -0.1983
  130OSM   H12A13922   0.004   2.831   5.934  0.1418 -0.2013 -0.5338
  130OSM   H12B13923   0.004   2.876   6.098 -1.4602 -2.8772 -0.2899
  130OSM    C1113924   0.113   2.707   6.068  0.1488  0.0584 -0.6739
  130OSM   H11A13925   0.027   2.663   6.124  0.6404  0.3257  0.2972
  130OSM   H11B13926   0.199   2.712   6.138  0.0394 -0.6848 -0.4814
  130OSM      P13927   0.068   2.525   5.902 -0.0720  0.3034  0.0616
  130OSM    O1313928  -0.078   2.566   5.928 -0.1324 -0.5154  0.1781
  130OSM    O1413929   0.103   2.504   5.758 -1.0045  0.2828  0.6109
  130OSM    O1113930   0.099   2.393   5.983 -0.2659 -0.1207  0.1855
  130OSM    O1213931   0.153   2.631   5.959 -0.0968  0.0125  0.1200
  130OSM    C1S13932   0.232   2.370   6.035 -0.3687  0.0345  0.0733
  130OSM    H1S13933   0.315   2.434   5.999 -0.2274 -0.2537 -0.1137
  130OSM    H1T13934   0.254   2.262   6.017 -0.4188  0.0055  0.1845
  130OSM     NF13935   0.361   2.369   6.250 -0.2944 -0.4896 -0.1267
  130OSM    HNF13936   0.385   2.279   6.285 -1.0355 -0.9038 -0.6595
  130OSM    C2S13937   0.232   2.391   6.192 -0.5175 -0.6491 -0.3460
  130OSM    H2S13938   0.204   2.497   6.212 -1.0019 -1.4225  3.3490
  130OSM    C3S13939   0.117   2.307   6.256  0.4156 -0.5982  0.0269
  130OSM    H3S13940   0.134   2.200   6.229  0.3480 -1.1073  1.9164
  130OSM     O313941  -0.018   2.353   6.234  1.0130  0.2307 -0.5977
  130OSM    HO313942  -0.002   2.424   6.171  1.2919  1.0721  0.4103
  130OSM    C4S13943   0.134   2.308   6.407  0.2477  0.2067 -0.0061
  130OSM    H4S13944   0.149   2.403   6.462  1.3328 -0.9111  1.6937
  130OSM    C5S13945   0.109   2.198   6.489 -0.8790  0.9844 -1.1460
  130OSM    H5S13946   0.084   2.099   6.447  0.6040  0.3573 -0.5750
  130OSM    C6S13947   0.127   2.211   6.639 -0.0451 -0.0280 -0.0750
  130OSM    H6S13948   0.175   2.302   6.680  0.1545 -0.3572  0.4405
  130OSM    H6T13949   0.195   2.126   6.662 -0.2409 -0.1109  0.2030
  130OSM    C7S13950  -0.007   2.195   6.707  0.3664  0.7428 -0.0701
  130OSM    H7S13951  -0.038   2.088   6.700 -1.5714  1.3283 -0.7238
  130OSM    H7T13952  -0.084   2.248   6.646  1.3648  0.1767 -1.8767
  130OSM    C8S13953  -0.006   2.244   6.851 -0.9929  0.0883  0.2669
  130OSM    H8S13954  -0.112   2.235   6.883 -1.7100  0.3053 -1.9954
  130OSM    H8T13955   0.039   2.345   6.861 -0.5227 -0.3137  2.7297
  130OSM    C9S13956   0.083   2.165   6.947  0.4292  0.2678  0.1489
  130OSM    H9S13957   0.187   2.138   6.919  0.8380 -0.5885  2.4242
  130OSM    H9T13958   0.027   2.072   6.967  0.2227 -0.1725 -2.3404
  130OSM   C10S13959   0.085   2.228   7.089  0.0144  0.4044 -0.0277
  130OSM   H10S13960   0.170   2.299   7.095  0.4567 -0.1308  0.1194
  130OSM   H10T13961   0.110   2.134   7.143  1.4711 -1.6514 -4.0275
  130OSM   C11S13962  -0.049   2.281   7.132 -0.3203  0.0399  0.0425
  130OSM   H11S13963  -0.126   2.205   7.108  1.4665 -1.6864 -0.3379
  130OSM   H11T13964  -0.078   2.375   7.079  0.9173  0.1481 -0.4543
  130OSM   C12S13965  -0.060   2.310   7.285  0.2995  0.3164 -0.0092
  130OSM   H12S13966   0.038   2.347   7.323  0.2632  1.5968 -1.1290
  130OSM   H12T13967  -0.081   2.207   7.321  2.3477 -0.2543 -0.4017
  130OSM   C13S13968  -0.175   2.384   7.338 -0.8775 -1.0304  0.1349
  130OSM   H13S13969  -0.269   2.346   7.294 -0.4156  0.2705 -2.0417
  130OSM   H13T13970  -0.174   2.494   7.324 -0.1990 -0.9158  1.0187
  130OSM   C14S13971  -0.184   2.369   7.494 -0.2356 -0.6156 -0.0643
  130OSM   H14S13972  -0.092   2.312   7.521 -0.9774 -0.5900  2.6765
  130OSM   H14T13973  -0.269   2.304   7.523  0.3543 -1.0371  0.7401
  130OSM   C15S13974  -0.209   2.498   7.578 -1.1063  0.4967  0.5466
  130OSM   H15S13975  -0.303   2.548   7.546 -1.7403 -1.3252 -0.4657
  130OSM   H15T13976  -0.124   2.568   7.562 -1.5519  0.5182 -1.8114
  130OSM   C16S13977  -0.223   2.472   7.722 -0.2392  0.7079 -0.8851
  130OSM   H16S13978  -0.158   2.384   7.744 -2.7221 -1.6210 -2.5641
  130OSM   H16T13979  -0.329   2.449   7.744 -0.1880  1.5190  0.2446
  130OSM   C17S13980  -0.177   2.580   7.821  0.2230  1.0092  0.4956
  130OSM   H17S13981  -0.233   2.676   7.813  0.9400  1.5595  2.0517
  130OSM   H17T13982  -0.073   2.602   7.789  0.7602  0.9463  2.1864
  130OSM   C18S13983  -0.166   2.545   7.975  0.4573 -0.0091 -0.1514
  130OSM   H18S13984  -0.137   2.639   8.027 -1.1850  0.4357 -0.0131
  130OSM   H18T13985  -0.098   2.464   8.007 -1.0862 -1.2824 -0.0177
  130OSM   H18U13986  -0.260   2.520   8.029  1.3482 -2.5221  0.2909
  130OSM    C1F13987   0.459   2.456   6.231 -0.0568  0.1119  0.7147
  130OSM     OF13988   0.434   2.559   6.167 -0.4031  0.0470  0.8369
  130OSM    C2F13989   0.600   2.412   6.266 -0.8638  0.4592  0.5929
  130OSM    H2F13990   0.655   2.406   6.170 -1.8914  2.5643 -0.1596
  130OSM    H2G13991   0.598   2.315   6.320 -0.6931  0.3804  0.4568
  130OSM    C3F13992   0.664   2.520   6.354 -0.2004  0.1157  0.0185
  130OSM    H3F13993   0.685   2.621   6.315 -0.9002 -0.3502 -1.6015
  130OSM    H3G13994   0.758   2.477   6.394 -1.3602 -2.5312  0.0406
  130OSM    C4F13995   0.574   2.554   6.478  0.2412 -0.9354 -0.1038
  130OSM    H4F13996   0.489   2.612   6.439  0.0574 -0.1767  1.3879
  130OSM    H4G13997   0.626   2.624   6.547 -0.2902 -2.3592  1.8096
  130OSM    C5F13998   0.532   2.440   6.572 -0.6054  0.3223  0.4485
  130OSM    H5F13999   0.612   2.387   6.627 -1.9197  1.3787  3.4725
  130OSM    H5G14000   0.467   2.368   6.517  0.1007  0.2540 -0.3131
  130OSM    C6F14001   0.444   2.500   6.688 -0.2277 -0.0918 -0.3631
  130OSM    H6F14002   0.357   2.524   6.623  1.7354 -4.0852 -4.7390
  130OSM    H6G14003   0.489   2.592   6.733  0.1866 -0.2073 -0.5410
  130OSM    C7F14004   0.402   2.397   6.787  0.0922 -1.1534 -0.0453
  130OSM    H7F14005   0.388   2.301   6.734 -1.3140 -1.6602  1.2134
  130OSM    H7G14006   0.307   2.424   6.839 -0.4228 -0.5784 -1.2677
  130OSM    C8F14007   0.504   2.368   6.895  0.3384 -0.4246 -0.6048
  130OSM    H8F14008   0.590   2.313   6.850  0.8912 -1.1746  1.3323
  130OSM    H8G14009   0.456   2.289   6.956  0.0779  0.6736  0.6454
  130OSM    C9F14010   0.546   2.484   6.983  0.7855  0.1071 -0.0176
  130OSM    H9F14011   0.612   2.562   6.944 -1.7152  2.1946 -0.2595
  130OSM   C10F14012   0.508   2.495   7.111 -0.2722 -0.9224 -0.3987
  130OSM   H10F14013   0.551   2.577   7.171 -1.0397 -2.5674  2.4891
  130OSM   C11F14014   0.425   2.405   7.193 -0.1559  0.1315  0.0051
  130OSM   H11F14015   0.402   2.318   7.128 -0.2067  0.1058  0.0598
  130OSM   H11G14016   0.322   2.444   7.202 -0.5329 -0.3482 -1.9902
  130OSM   C12F14017   0.474   2.365   7.333 -0.2340 -0.3159 -0.2373
  130OSM   H12F14018   0.449   2.452   7.398 -0.7591 -1.9759  1.8161
  130OSM   H12G14019   0.584   2.350   7.330 -0.3155 -1.4312  1.9332
  130OSM   C13F14020   0.402   2.242   7.385  0.5083 -0.0044 -0.2112
  130OSM   H13F14021   0.423   2.150   7.325 -1.2095 -0.0878 -0.7113
  130OSM   H13G14022   0.291   2.250   7.387  0.3555 -1.7831  3.5225
  130OSM   C14F14023   0.458   2.206   7.527  0.2363 -0.3681  0.2206
  130OSM   H14F14024   0.569   2.210   7.522  0.3818 -0.3828  2.9976
  130OSM   H14G14025   0.434   2.099   7.545 -0.5256 -0.4176 -0.9637
  130OSM   C15F14026   0.395   2.286   7.644  0.2623  0.3916 -0.1782
  130OSM   H15F14027   0.290   2.248   7.649  0.7911 -1.3320 -1.4436
  130OSM   H15G14028   0.381   2.396   7.639  1.3069  0.5262 -0.2006
  130OSM   C16F14029   0.465   2.243   7.775 -0.4925 -0.5869 -0.1784
  130OSM   H16F14030   0.550   2.293   7.826 -1.9265  0.2008  1.4720
  130OSM   H16G14031   0.511   2.148   7.742 -1.4754 -1.5207  1.0884
  130OSM   C17F14032   0.368   2.232   7.891  0.3631  0.2697  0.7326
  130OSM   H17F14033   0.420   2.173   7.969 -1.3629  0.5444  2.1362
  130OSM   H17G14034   0.279   2.169   7.871 -0.8153  1.9344  0.6444
  130OSM   C18F14035   0.335   2.364   7.953 -0.0149 -0.7142 -0.0418
  130OSM   H18F14036   0.420   2.434   7.941 -2.7569  2.8936  0.7305
  130OSM   H18G14037   0.309   2.361   8.061  0.6192  2.4441  0.2364
  130OSM   H18H14038   0.257   2.424   7.901  1.5016  1.4462  0.1484
  131OSM      N14039   0.845   0.594   5.728  0.1252 -0.1831 -0.3202
  131OSM    C1514040   0.750   0.698   5.666 -0.2732 -0.1579  0.2051
  131OSM   H15A14041   0.693   0.754   5.738 -2.4633  0.5392 -1.9936
  131OSM   H15B14042   0.678   0.646   5.604 -2.7691  2.1202  1.1073
  131OSM   H15C14043   0.805   0.769   5.606 -1.8861 -1.5732 -3.0826
  131OSM    C1414044   0.778   0.534   5.845 -0.0895  0.2229  0.2584
  131OSM   H14A14045   0.687   0.484   5.813 -0.1006 -0.2641  1.0133
  131OSM   H14B14046   0.752   0.608   5.919 -1.1427  1.6533 -1.5261
  131OSM   H14C14047   0.832   0.450   5.886  0.7404  0.3996 -0.4733
  131OSM    C1314048   0.855   0.484   5.619  0.2658  0.4868 -0.2641
  131OSM   H13A14049   0.755   0.463   5.584  0.0179  1.0803  0.0741
  131OSM   H13B14050   0.912   0.400   5.653 -0.1911 -0.1269 -0.9974
  131OSM   H13C14051   0.913   0.524   5.537  1.0073  0.7371  0.3900
  131OSM    C1214052   0.979   0.654   5.771 -0.0849  0.4181 -0.3884
  131OSM   H12A14053   0.958   0.721   5.854 -2.4044  0.4817 -0.9825
  131OSM   H12B14054   1.013   0.730   5.702  4.0097 -0.2406  0.7942
  131OSM    C1114055   1.089   0.562   5.807  0.3597  0.7399  0.0353
  131OSM   H11A14056   1.145   0.511   5.726 -1.0157  0.8885 -1.0355
  131OSM   H11B14057   1.040   0.473   5.853 -0.5157  0.0251 -2.2137
  131OSM      P14058   1.282   0.550   5.984  0.1171  0.0943 -0.2900
  131OSM    O1314059   1.318   0.428   5.910 -0.0175  0.7471  0.0183
  131OSM    O1414060   1.398   0.634   6.026  0.1477  0.1815 -0.3548
  131OSM    O1114061   1.198   0.515   6.112  0.2489 -0.3327  0.3921
  131OSM    O1214062   1.181   0.636   5.897  0.6228 -0.0958 -0.5081
  131OSM    C1S14063   1.239   0.542   6.246  0.3494  0.4688  0.3905
  131OSM    H1S14064   1.344   0.509   6.256  0.0279 -0.5432  0.4660
  131OSM    H1T14065   1.188   0.471   6.314 -0.6043  0.5421 -0.2208
  131OSM     NF14066   1.288   0.698   6.433  0.3328  0.3655 -0.2191
  131OSM    HNF14067   1.240   0.684   6.519 -0.0506  0.3482 -0.4322
  131OSM    C2S14068   1.224   0.687   6.295  0.1161  0.0560 -0.1916
  131OSM    H2S14069   1.266   0.758   6.220  1.1130  1.3267  1.5232
  131OSM    C3S14070   1.068   0.719   6.290 -0.3631 -0.6412 -0.4737
  131OSM    H3S14071   1.018   0.646   6.357  0.1512  0.8937  1.6425
  131OSM     O314072   1.014   0.714   6.162  0.6590  0.0711 -0.0334
  131OSM    HO314073   1.070   0.660   6.107 -0.1274 -1.2367  0.4287
  131OSM    C4S14074   1.062   0.857   6.346 -0.9551  0.2341 -0.4529
  131OSM    H4S14075   1.149   0.917   6.318  0.5675 -1.5741  0.2651
  131OSM    C5S14076   0.964   0.902   6.428  0.3567 -0.0334  0.1956
  131OSM    H5S14077   0.890   0.831   6.468  0.4593  0.2276  0.8634
  131OSM    C6S14078   0.953   1.040   6.485  0.2732  0.1360 -0.3849
  131OSM    H6S14079   0.857   1.077   6.444  0.5801  1.4689  0.0751
  131OSM    H6T14080   1.035   1.109   6.457  0.2769  1.2738  2.3091
  131OSM    C7S14081   0.956   1.056   6.641 -0.2469  0.6758 -0.4438
  131OSM    H7S14082   0.869   0.999   6.679  0.5296 -0.2186  0.0068
  131OSM    H7T14083   0.930   1.163   6.655 -1.8088  0.3813 -0.9689
  131OSM    C8S14084   1.079   1.007   6.710  0.2171  0.3165 -0.1467
  131OSM    H8S14085   1.173   1.064   6.693  0.3695  0.1857  0.2451
  131OSM    H8T14086   1.089   0.901   6.678  4.5470  1.1466 -1.8624
  131OSM    C9S14087   1.054   1.003   6.862 -0.0297  0.3558 -0.3848
  131OSM    H9S14088   0.977   0.926   6.882  0.8284  0.2358  2.5697
  131OSM    H9T14089   0.994   1.094   6.885 -0.3710  0.0583 -0.0958
  131OSM   C10S14090   1.180   1.005   6.958  0.1639 -0.3370 -0.4218
  131OSM   H10S14091   1.231   1.104   6.955  0.6880 -0.3510  4.1006
  131OSM   H10T14092   1.255   0.929   6.930 -0.3519 -0.7459 -0.6965
  131OSM   C11S14093   1.153   0.993   7.100  0.8416 -1.3223 -0.2950
  131OSM   H11S14094   1.104   0.894   7.112  1.3633 -1.5372  0.0620
  131OSM   H11T14095   1.067   1.059   7.121  0.9230 -1.5420  0.7617
  131OSM   C12S14096   1.266   1.027   7.187 -0.4209  0.0479  0.2302
  131OSM   H12S14097   1.283   1.137   7.186  1.3863 -0.2270 -1.9622
  131OSM   H12T14098   1.361   0.978   7.157  0.0312  1.6007 -0.9191
  131OSM   C13S14099   1.258   0.977   7.335 -0.2833  0.4137 -0.8299
  131OSM   H13S14100   1.239   0.868   7.332 -1.3119  0.5593  0.1896
  131OSM   H13T14101   1.166   1.013   7.388 -1.2135 -2.0454 -0.7345
  131OSM   C14S14102   1.389   1.011   7.417  0.1657  0.3300 -0.3768
  131OSM   H14S14103   1.411   1.120   7.418  3.2374 -0.1926 -2.8602
  131OSM   H14T14104   1.476   0.975   7.358  1.5518  3.2566 -0.1777
  131OSM   C15S14105   1.400   0.969   7.566  0.2889  0.1462  0.5039
  131OSM   H15S14106   1.503   0.984   7.606  1.7566 -0.4294 -2.8909
  131OSM   H15T14107   1.366   0.864   7.568  0.2703  0.1514  0.4683
  131OSM   C16S14108   1.300   1.060   7.646  0.3234 -0.3071 -0.0467
  131OSM   H16S14109   1.206   1.040   7.591 -0.4378 -0.6055  1.3295
  131OSM   H16T14110   1.339   1.161   7.623  1.6002 -0.6171  0.7032
  131OSM   C17S14111   1.298   1.036   7.800 -0.2110  0.2860  0.7055
  131OSM   H17S14112   1.228   1.113   7.840  1.8513  2.6121 -0.0660
  131OSM   H17T14113   1.395   1.066   7.844 -0.5375  1.8732  0.3821
  131OSM   C18S14114   1.251   0.893   7.840 -0.4761  0.2170  0.3001
  131OSM   H18S14115   1.319   0.810   7.808  1.0900  0.8707  1.8573
  131OSM   H18T14116   1.153   0.881   7.789 -0.1534  0.2797 -0.3355
  131OSM   H18U14117   1.242   0.878   7.950  1.5108 -1.1937  0.3038
  131OSM    C1F14118   1.417   0.702   6.453  0.4890  0.0929 -0.7673
  131OSM     OF14119   1.494   0.734   6.366 -0.1785 -0.3552  0.0304
  131OSM    C2F14120   1.466   0.683   6.600  0.0415  0.2514  0.3644
  131OSM    H2F14121   1.524   0.769   6.640 -0.6621  0.8058  0.2070
  131OSM    H2G14122   1.530   0.592   6.592  0.2787  0.4428  0.0383
  131OSM    C3F14123   1.352   0.663   6.699  0.1910 -0.0244 -0.2847
  131OSM    H3F14124   1.283   0.584   6.661  0.8702  0.0632 -1.7267
  131OSM    H3G14125   1.284   0.751   6.708  1.1553  0.7271 -0.2480
  131OSM    C4F14126   1.393   0.639   6.850  0.3124  0.4073 -0.3305
  131OSM    H4F14127   1.302   0.648   6.913  0.3364 -0.7048 -0.1089
  131OSM    H4G14128   1.454   0.726   6.884  1.3062 -0.2445 -0.4045
  131OSM    C5F14129   1.474   0.514   6.875  0.5501  0.7301 -0.0372
  131OSM    H5F14130   1.582   0.539   6.882  0.0899  3.0625 -0.9719
  131OSM    H5G14131   1.462   0.441   6.792  1.3546  0.1113  0.3814
  131OSM    C6F14132   1.443   0.455   7.017  0.0956  0.7638 -0.2447
  131OSM    H6F14133   1.523   0.380   7.034 -0.6631 -0.0368 -0.1706
  131OSM    H6G14134   1.350   0.396   7.003  0.4458 -0.0458  0.7653
  131OSM    C7F14135   1.423   0.542   7.139 -0.2221 -0.4500 -0.1802
  131OSM    H7F14136   1.334   0.603   7.112 -0.6447 -0.2552  1.6086
  131OSM    H7G14137   1.510   0.611   7.152  0.4924 -1.6745  1.8405
  131OSM    C8F14138   1.399   0.475   7.273  0.4660 -0.0486  0.0936
  131OSM    H8F14139   1.338   0.384   7.262 -1.1195  0.8368  1.4327
  131OSM    H8G14140   1.335   0.549   7.325 -2.2439 -2.1225 -0.2083
  131OSM    C9F14141   1.523   0.443   7.346  0.5073  0.0932  0.4198
  131OSM    H9F14142   1.576   0.350   7.319  0.3848  0.5354 -1.3966
  131OSM   C10F14143   1.579   0.513   7.446  0.0822 -0.1922  0.2359
  131OSM   H10F14144   1.675   0.481   7.490  1.3310  3.5153  0.3477
  131OSM   C11F14145   1.535   0.637   7.510  0.1169 -0.4426 -0.3166
  131OSM   H11F14146   1.452   0.688   7.456  0.4314 -1.0305 -1.3903
  131OSM   H11G14147   1.623   0.702   7.529 -1.0658  1.3228 -0.7721
  131OSM   C12F14148   1.492   0.592   7.652 -0.1411  0.3652  0.5192
  131OSM   H12F14149   1.459   0.684   7.705 -1.1429  0.6194 -0.5336
  131OSM   H12G14150   1.575   0.563   7.721  1.3215  0.3548 -1.2122
  131OSM   C13F14151   1.380   0.487   7.661 -0.2274  0.5534 -0.3053
  131OSM   H13F14152   1.403   0.395   7.602 -0.1099  1.2176 -1.3190
  131OSM   H13G14153   1.292   0.528   7.606 -1.2390 -0.7751  0.3151
  131OSM   C14F14154   1.330   0.463   7.807  0.6613  0.4642  0.4104
  131OSM   H14F14155   1.316   0.561   7.857  1.2980  1.2223 -0.8691
  131OSM   H14G14156   1.410   0.405   7.858 -0.0268 -2.8830 -2.0957
  131OSM   C15F14157   1.198   0.389   7.803 -0.1294 -0.1770 -0.7993
  131OSM   H15F14158   1.220   0.290   7.756 -0.0315 -0.6006  0.1213
  131OSM   H15G14159   1.128   0.442   7.735 -0.6677  1.3942  0.9457
  131OSM   C16F14160   1.121   0.393   7.939 -0.0939  0.2307 -0.3147
  131OSM   H16F14161   1.018   0.351   7.929 -1.1428  2.5437  0.5749
  131OSM   H16G14162   1.120   0.498   7.973 -1.8329  0.8559 -2.1962
  131OSM   C17F14163   1.188   0.305   8.054 -0.8017 -0.5011 -0.2762
  131OSM   H17F14164   1.280   0.361   8.083 -0.8131 -0.9344  0.6132
  131OSM   H17G14165   1.229   0.213   8.007  0.9061 -0.0974  0.3749
  131OSM   C18F14166   1.098   0.286   8.171  0.0294  0.2139  0.7390
  131OSM   H18F14167   1.155   0.223   8.243  0.4725 -0.1106  0.1125
  131OSM   H18G14168   1.000   0.241   8.142 -0.9779  1.2646  2.4892
  131OSM   H18H14169   1.072   0.387   8.206 -2.7846 -0.1214 -0.2008
  132OSM      N14170   0.941   6.912   5.956  0.2804  0.3389  0.4429
  132OSM    C1514171   0.924   6.777   6.015  0.0239 -0.5057  1.3862
  132OSM   H15A14172   0.835   6.732   5.972  1.5869 -1.6439 -0.7265
  132OSM   H15B14173   0.906   6.801   6.118  0.1309  1.2487  1.0042
  132OSM   H15C14174   1.009   6.712   6.003  2.1484  2.7454 -2.5842
  132OSM    C1414175   0.969   6.911   5.811  0.1049  0.2036 -0.0372
  132OSM   H14A14176   1.076   6.908   5.792 -0.3353  0.8896 -2.8623
  132OSM   H14B14177   0.920   6.990   5.756 -0.0514 -0.4581 -0.8587
  132OSM   H14C14178   0.922   6.828   5.761  0.6236 -0.3564  0.3902
  132OSM    C1314179   0.814   6.992   5.964 -0.4863 -0.0570 -0.1137
  132OSM   H13A14180   0.742   6.935   5.908  1.6596 -2.0955 -0.9024
  132OSM   H13B14181   0.840   7.090   5.926  2.0483 -0.2168  1.1225
  132OSM   H13C14182   0.795   7.000   6.070 -2.2553 -2.2847 -0.2318
  132OSM    C1214183   1.056   6.984   6.029 -0.0354 -0.2076  1.0028
  132OSM   H12A14184   1.143   6.922   6.044 -0.2156  0.0558  3.3311
  132OSM   H12B14185   1.009   7.009   6.124  0.6773  1.4242  0.9508
  132OSM    C1114186   1.094   7.129   5.985 -0.4209  0.2417  0.5154
  132OSM   H11A14187   1.131   7.187   6.072  2.8585 -2.5876  1.1108
  132OSM   H11B14188   1.003   7.178   5.944 -1.7989 -2.0209  0.7551
  132OSM      P14189   1.345   7.147   5.909  0.2342  0.1355 -0.3696
  132OSM    O1314190   1.414   7.105   5.785 -0.1698  0.0181 -0.2109
  132OSM    O1414191   1.361   7.284   5.956 -0.3463 -1.0831 -0.1488
  132OSM    O1114192   1.374   7.048   6.031  0.2987  0.4796 -0.0923
  132OSM    O1214193   1.186   7.119   5.881 -0.3385  0.0350  0.1083
  132OSM    C1S14194   1.391   6.904   6.008  0.6574 -0.2321  0.1602
  132OSM    H1S14195   1.457   6.877   5.923  0.8303 -2.1843  0.8905
  132OSM    H1T14196   1.294   6.850   6.003  0.3438  0.2598  0.7940
  132OSM     NF14197   1.381   6.863   6.248 -0.0220  0.7089 -0.3125
  132OSM    HNF14198   1.420   6.934   6.305 -0.2023  1.0870 -0.6628
  132OSM    C2S14199   1.459   6.837   6.124 -0.1067 -0.0824 -0.1741
  132OSM    H2S14200   1.458   6.727   6.105  0.7031 -0.4969  2.0707
  132OSM    C3S14201   1.605   6.895   6.119 -0.3011  0.1855 -0.2083
  132OSM    H3S14202   1.607   7.005   6.105 -0.1166  0.0396 -1.3872
  132OSM     O314203   1.670   6.828   6.011  0.2538 -0.4378 -0.2302
  132OSM    HO314204   1.609   6.764   5.974 -1.0173  0.8711 -0.4237
  132OSM    C4S14205   1.681   6.874   6.247  0.3000  0.0294  0.1788
  132OSM    H4S14206   1.687   6.772   6.288 -1.4837  0.1573  0.7942
  132OSM    C5S14207   1.754   6.961   6.321  0.2838  0.1172  0.5243
  132OSM    H5S14208   1.749   7.063   6.280  0.0762 -0.8431 -1.8975
  132OSM    C6S14209   1.823   6.929   6.454 -0.0308 -0.0039  0.2119
  132OSM    H6S14210   1.796   7.007   6.528 -1.3340 -1.5712  1.4263
  132OSM    H6T14211   1.933   6.941   6.444  0.1793 -0.3420  2.0112
  132OSM    C7S14212   1.783   6.794   6.522  0.3069  0.0556 -0.0181
  132OSM    H7S14213   1.810   6.700   6.468 -1.0348 -0.8505  0.8704
  132OSM    H7T14214   1.675   6.784   6.546  0.2645 -1.2140 -0.7034
  132OSM    C8S14215   1.858   6.785   6.657 -0.2156  0.2404 -0.3164
  132OSM    H8S14216   1.892   6.884   6.692 -0.5519 -0.5161  2.2517
  132OSM    H8T14217   1.941   6.714   6.636 -0.6302  0.1445 -1.6880
  132OSM    C9S14218   1.769   6.724   6.769  0.7613  0.2161  0.3267
  132OSM    H9S14219   1.746   6.618   6.743  2.1406  0.4804 -2.2124
  132OSM    H9T14220   1.676   6.780   6.791  0.8568 -0.4297  2.4914
  132OSM   C10S14221   1.845   6.727   6.905 -0.5858 -0.1738  0.0771
  132OSM   H10S14222   1.881   6.831   6.925 -1.7817 -0.2187  2.5549
  132OSM   H10T14223   1.941   6.671   6.896 -0.0664  0.9619 -1.7702
  132OSM   C11S14224   1.758   6.682   7.016 -0.8267  0.0384 -0.2818
  132OSM   H11S14225   1.743   6.574   6.995 -0.0654  0.0464 -0.8735
  132OSM   H11T14226   1.669   6.748   7.022 -0.8059  0.0268  0.1954
  132OSM   C12S14227   1.840   6.706   7.145 -0.6570  0.5354  0.5765
  132OSM   H12S14228   1.859   6.815   7.142 -2.5463  0.8680  0.3101
  132OSM   H12T14229   1.940   6.659   7.138 -1.8444 -1.8376 -1.3768
  132OSM   C13S14230   1.765   6.672   7.272  1.0455 -0.1503 -0.2078
  132OSM   H13S14231   1.759   6.562   7.283  1.7967 -0.3005 -1.2978
  132OSM   H13T14232   1.657   6.698   7.268  0.6274 -1.8231 -0.1346
  132OSM   C14S14233   1.831   6.725   7.400 -0.1756  0.7559  0.3781
  132OSM   H14S14234   1.833   6.836   7.399 -0.2474  0.7594 -1.2616
  132OSM   H14T14235   1.934   6.687   7.417 -1.5556 -2.0075  2.8779
  132OSM   C15S14236   1.759   6.679   7.530 -0.3615  0.7439  0.8362
  132OSM   H15S14237   1.813   6.730   7.612  1.2565  0.4466 -0.0211
  132OSM   H15T14238   1.775   6.571   7.547  0.3236  0.5227 -1.0150
  132OSM   C16S14239   1.609   6.718   7.527  0.1091  0.4160  0.4420
  132OSM   H16S14240   1.567   6.645   7.454  2.8649  1.5593 -2.4414
  132OSM   H16T14241   1.590   6.818   7.481 -1.8392  0.2075  0.7719
  132OSM   C17S14242   1.539   6.698   7.658  0.1374  0.0260 -0.1576
  132OSM   H17S14243   1.594   6.750   7.739  0.5622  0.2224 -0.5706
  132OSM   H17T14244   1.547   6.595   7.699 -1.8598 -0.1912 -0.2466
  132OSM   C18S14245   1.392   6.747   7.673 -0.6226  0.7027 -0.4119
  132OSM   H18S14246   1.379   6.855   7.650 -0.1173  1.3193  2.1469
  132OSM   H18T14247   1.360   6.714   7.774  0.5809  1.0328  0.0848
  132OSM   H18U14248   1.321   6.704   7.599 -1.5344  1.6739 -0.1194
  132OSM    C1F14249   1.251   6.824   6.265  0.3594 -0.2055  0.3773
  132OSM     OF14250   1.209   6.735   6.195  0.8830 -0.0645 -0.0021
  132OSM    C2F14251   1.163   6.908   6.360 -0.9202  0.2029  0.6073
  132OSM    H2F14252   1.066   6.935   6.314 -1.3944  0.7916  1.9277
  132OSM    H2G14253   1.213   7.004   6.387 -1.9535  1.0190 -0.3211
  132OSM    C3F14254   1.129   6.821   6.487 -0.2055 -0.8437  0.0602
  132OSM    H3F14255   1.088   6.723   6.453  1.1229 -1.2550 -0.4046
  132OSM    H3G14256   1.051   6.880   6.539  1.8987  1.5082  0.6290
  132OSM    C4F14257   1.244   6.796   6.593 -0.2698 -0.1463  0.8941
  132OSM    H4F14258   1.266   6.893   6.643  1.7815 -0.6375  0.9744
  132OSM    H4G14259   1.332   6.751   6.543 -0.0587  2.2426 -0.9854
  132OSM    C5F14260   1.179   6.712   6.706 -0.5657 -0.6166  0.1642
  132OSM    H5F14261   1.172   6.609   6.666 -0.2910 -0.6150  0.1114
  132OSM    H5G14262   1.080   6.745   6.743  0.4024  0.8221  1.5234
  132OSM    C6F14263   1.277   6.714   6.833 -0.6650 -0.5598 -0.3909
  132OSM    H6F14264   1.276   6.815   6.880 -2.8657  0.1286 -1.7967
  132OSM    H6G14265   1.377   6.700   6.787  0.3464  1.4955  1.0775
  132OSM    C7F14266   1.260   6.599   6.941 -0.0341 -0.2096 -0.2641
  132OSM    H7F14267   1.230   6.502   6.897 -0.9140 -0.8639  1.6874
  132OSM    H7G14268   1.169   6.621   7.001 -0.9599 -0.8914 -1.4122
  132OSM    C8F14269   1.377   6.588   7.040  0.3398  0.7762 -0.3328
  132OSM    H8F14270   1.464   6.596   6.971  1.3878 -2.0652  0.6152
  132OSM    H8G14271   1.377   6.491   7.093 -0.9352  1.3566  0.7524
  132OSM    C9F14272   1.375   6.690   7.151 -0.2647 -0.2784  0.2012
  132OSM    H9F14273   1.419   6.791   7.142 -1.3883  0.3258  1.2582
  132OSM   C10F14274   1.321   6.680   7.275  0.2549  1.0304  0.3005
  132OSM   H10F14275   1.340   6.763   7.345  0.3492  0.5338  0.8587
  132OSM   C11F14276   1.248   6.560   7.333  0.3205  0.8669 -0.6412
  132OSM   H11F14277   1.173   6.515   7.265  1.9202 -2.2688 -0.4137
  132OSM   H11G14278   1.190   6.589   7.423 -2.1818 -2.3129 -1.1238
  132OSM   C12F14279   1.347   6.461   7.385  0.1169  0.8305  0.3883
  132OSM   H12F14280   1.408   6.504   7.467 -0.6440  3.5212 -0.3957
  132OSM   H12G14281   1.419   6.429   7.306  0.3630  0.0430  0.9289
  132OSM   C13F14282   1.271   6.339   7.436  0.6224 -0.6334 -0.0619
  132OSM   H13F14283   1.243   6.270   7.353 -0.6845  0.6727 -0.7295
  132OSM   H13G14284   1.172   6.371   7.474  1.3583 -0.6544  1.9298
  132OSM   C14F14285   1.353   6.257   7.542 -0.5123 -0.4677  0.3991
  132OSM   H14F14286   1.372   6.331   7.622  0.0479 -1.9880  1.6852
  132OSM   H14G14287   1.441   6.210   7.492 -0.8735 -0.0099 -0.6985
  132OSM   C15F14288   1.269   6.144   7.598  0.1012  0.0917 -0.1448
  132OSM   H15F14289   1.346   6.093   7.659 -0.1938  0.7475  0.7789
  132OSM   H15G14290   1.242   6.071   7.518  1.7857  0.0810 -0.7406
  132OSM   C16F14291   1.146   6.169   7.679  0.5714  0.1955 -0.5435
  132OSM   H16F14292   1.081   6.255   7.651 -0.9607 -0.0487  2.0745
  132OSM   H16G14293   1.168   6.206   7.782 -1.3340  0.4676 -0.2171
  132OSM   C17F14294   1.062   6.043   7.696 -0.1132 -0.7142 -0.0006
  132OSM   H17F14295   1.118   5.967   7.755 -2.8492 -1.1948  2.1292
  132OSM   H17G14296   1.046   6.004   7.593 -1.0723  2.3447 -1.0491
  132OSM   C18F14297   0.919   6.068   7.756 -0.1043  0.4331 -0.1444
  132OSM   H18F14298   0.919   6.154   7.826 -1.5018 -0.6244  1.1749
  132OSM   H18G14299   0.893   5.980   7.818  1.6222  0.1817  0.2410
  132OSM   H18H14300   0.842   6.112   7.689 -1.4398 -0.2731  0.9250
  133SAPE     N14301   2.914   3.657   9.964  0.2947 -0.0586 -0.5892
  133SAPE   HN114302   2.888   3.619   9.871  3.3118 -2.6953 -0.4400
  133SAPE   HN214303   2.932   3.760   9.956 -0.7722  0.1725 -0.1057
  133SAPE   HN314304   2.998   3.606   9.997 -1.1452 -1.1831  1.3937
  133SAPE   C1214305   2.796   3.644  10.059 -0.1670  0.0225 -0.1602
  133SAPE  H12A14306   2.704   3.677  10.006 -0.0849  3.3285  1.5779
  133SAPE  H12B14307   2.822   3.720  10.137  2.5985  0.0033 -0.9990
  133SAPE   C1114308   2.774   3.505  10.119  0.1566 -0.2186  0.3520
  133SAPE  H11A14309   2.693   3.510  10.194 -0.3136 -0.1324 -0.1560
  133SAPE  H11B14310   2.863   3.477  10.178 -0.5068 -0.0581  1.4388
  133SAPE     P14311   2.615   3.375   9.967 -0.0072  0.0744 -0.4308
  133SAPE   O1314312   2.636   3.281   9.855  0.3583 -1.0524  0.1409
  133SAPE   O1414313   2.546   3.327  10.088  0.5876  0.9137  0.3168
  133SAPE   O1214314   2.761   3.412  10.014  1.0851  0.2177  0.5072
  133SAPE   O1114315   2.555   3.514   9.921 -0.2137  0.2387  0.3472
  133SAPE    C114316   2.461   3.507   9.811  0.3256  0.2154  0.3536
  133SAPE    HA14317   2.481   3.427   9.737 -0.6705  0.7140 -0.4626
  133SAPE    HB14318   2.356   3.499   9.846 -0.5424  2.8094 -1.5553
  133SAPE    C214319   2.455   3.642   9.729 -0.2805 -0.1023 -0.5298
  133SAPE    HS14320   2.399   3.711   9.796 -0.2422 -1.3680  0.8469
  133SAPE   O2114321   2.379   3.625   9.612  0.1135 -0.5423 -0.2761
  133SAPE   C2114322   2.358   3.750   9.554 -0.5211  0.8072  0.3498
  133SAPE   O2214323   2.370   3.858   9.612  0.4106 -0.0918  0.1410
  133SAPE   C2214324   2.310   3.724   9.412  0.3819  0.0479  0.4064
  133SAPE   H2R14325   2.396   3.683   9.354  0.1579  0.3210 -0.1224
  133SAPE   H2S14326   2.235   3.642   9.418  1.9733 -1.5075 -0.4547
  133SAPE    C314327   2.595   3.686   9.693 -0.1678  0.1894 -0.2964
  133SAPE    HX14328   2.648   3.698   9.790  1.8988 -0.3417 -1.3311
  133SAPE    HY14329   2.603   3.782   9.638  1.0531 -1.1353 -2.5521
  133SAPE   O3114330   2.655   3.584   9.605 -0.7091  0.0869  0.2322
  133SAPE   C3114331   2.780   3.538   9.629  0.3641  0.1624  0.2235
  133SAPE   O3214332   2.849   3.562   9.727 -0.2527 -0.1855 -0.5283
  133SAPE   C3214333   2.811   3.445   9.512  1.4789  0.5676  0.8228
  133SAPE   H2X14334   2.772   3.343   9.531 -1.9487  1.1792 -2.4993
  133SAPE   H2Y14335   2.920   3.423   9.509  2.0832  3.5567 -2.2705
  133SAPE   C2314336   2.241   3.847   9.352 -0.1074 -0.1293  0.6776
  133SAPE   H3R14337   2.170   3.899   9.420 -0.0849  2.4752 -1.2319
  133SAPE   H3S14338   2.179   3.806   9.270  0.4379 -1.8689  1.1010
  133SAPE   C2414339   2.343   3.935   9.274  0.5901 -0.7422 -0.1514
  133SAPE   H4R14340   2.416   3.974   9.348 -0.8959 -0.8754  1.4154
  133SAPE   H4S14341   2.288   4.025   9.237 -1.5554 -2.2632 -0.7306
  133SAPE   C2514342   2.429   3.879   9.163  0.5585 -0.0259 -0.0323
  133SAPE   H5R14343   2.369   3.840   9.080 -1.2164  0.2363  1.1132
  133SAPE   C2614344   2.566   3.884   9.147 -0.0774 -0.0364 -0.6924
  133SAPE   H6R14345   2.609   3.853   9.051  0.8036  0.5634 -0.4925
  133SAPE   C2714346   2.667   3.952   9.239  0.5378  0.7936  0.6776
  133SAPE   H7R14347   2.650   4.062   9.230  0.8148  0.7887  0.0650
  133SAPE   H7S14348   2.766   3.945   9.189  0.0108 -0.3039 -0.2466
  133SAPE   C2814349   2.688   3.915   9.387  0.0075 -0.1842 -0.0866
  133SAPE   H8R14350   2.596   3.925   9.446 -0.2481 -1.2636 -0.2950
  133SAPE   C2914351   2.803   3.868   9.449 -0.0994 -0.0753 -0.0027
  133SAPE   H9R14352   2.796   3.840   9.555  0.4885  1.2093  0.3872
  133SAPE  C21014353   2.933   3.833   9.376 -0.3154 -0.5066 -0.3537
  133SAPE  H10R14354   2.966   3.908   9.301  0.0225  0.9854  1.2543
  133SAPE  H10S14355   2.911   3.744   9.313  0.1691 -0.2267 -0.9230
  133SAPE  C21114356   3.062   3.817   9.448 -0.1253  0.7449 -0.1079
  133SAPE  H11R14357   3.096   3.898   9.513  0.2196 -1.2373  2.2608
  133SAPE  C21214358   3.147   3.710   9.439  0.3023 -0.1378 -0.1444
  133SAPE  H12R14359   3.237   3.710   9.503  0.1274  0.5417  0.1088
  133SAPE  C21314360   3.140   3.583   9.359 -0.2113 -0.6434  0.1069
  133SAPE  H13R14361   3.063   3.598   9.281  0.7101 -0.5128 -0.7949
  133SAPE  H13S14362   3.102   3.509   9.432  0.0758 -0.2140  0.6999
  133SAPE  C21414363   3.269   3.525   9.312 -0.6417 -0.3927 -0.0527
  133SAPE  H14R14364   3.340   3.489   9.388 -2.3898 -1.3899  1.1485
  133SAPE  C21514365   3.298   3.488   9.186 -0.4473 -0.3242 -0.1638
  133SAPE  H15R14366   3.395   3.442   9.160  1.1374  1.7490  1.7988
  133SAPE  C21614367   3.202   3.516   9.073  0.6042 -0.6656 -0.3047
  133SAPE  H16R14368   3.096   3.484   9.083  0.3374  0.8183  1.8681
  133SAPE  H16S14369   3.235   3.467   8.979 -0.7842 -0.8766 -0.6995
  133SAPE  C21714370   3.191   3.666   9.024  0.7503  0.3873 -0.1899
  133SAPE  H17R14371   3.296   3.690   8.997  0.2560 -0.2703 -2.8608
  133SAPE  H17S14372   3.160   3.722   9.115 -3.1868 -1.7408 -0.1043
  133SAPE  C21814373   3.105   3.689   8.900 -0.6237  0.5920 -0.3545
  133SAPE  H18R14374   3.079   3.796   8.893 -1.6964  0.2729 -1.4904
  133SAPE  H18S14375   3.018   3.625   8.926 -0.0666  0.7928  2.1305
  133SAPE  C21914376   3.170   3.626   8.775  0.3779 -0.4806  0.3778
  133SAPE  H19R14377   3.195   3.518   8.784 -0.5715 -0.6574  1.0030
  133SAPE  H19S14378   3.268   3.672   8.750 -0.6996  1.7118  0.0882
  133SAPE  C22014379   3.070   3.635   8.651 -0.1437 -0.7167 -0.8795
  133SAPE  H20R14380   3.045   3.742   8.639 -1.4768 -0.7469  1.3204
  133SAPE  H20S14381   2.985   3.566   8.671  0.6645 -1.8388 -1.2519
  133SAPE  H20T14382   3.113   3.599   8.555  1.8289 -0.5423 -0.0979
  133SAPE   C3314383   2.739   3.491   9.384  0.3645 -0.3253 -0.2025
  133SAPE   H3X14384   2.758   3.596   9.355  0.3615  0.3541  2.1660
  133SAPE   H3Y14385   2.631   3.472   9.400  0.6374 -0.7446  1.2283
  133SAPE   C3414386   2.791   3.418   9.262 -0.0424  0.4625 -0.1293
  133SAPE   H4X14387   2.768   3.311   9.279  1.2944  0.6514  3.1453
  133SAPE   H4Y14388   2.901   3.429   9.258  0.0470 -0.6754 -0.8845
  133SAPE   C3514389   2.726   3.474   9.132 -0.2523  0.1427  0.3738
  133SAPE   H5X14390   2.726   3.585   9.125 -1.6899  0.0698 -1.1666
  133SAPE   H5Y14391   2.618   3.446   9.130  0.4057 -2.4512 -2.6586
  133SAPE   C3614392   2.799   3.420   9.007 -0.3934 -0.0500 -0.3929
  133SAPE   H6X14393   2.806   3.311   9.025  1.3988  0.0620 -0.3498
  133SAPE   H6Y14394   2.902   3.461   9.013 -0.5238  0.0603  1.3328
  133SAPE   C3714395   2.731   3.454   8.879  0.1531  0.0470 -0.4993
  133SAPE   H7X14396   2.776   3.547   8.839 -1.2592  1.2313  0.6358
  133SAPE   H7Y14397   2.625   3.474   8.906  0.1701  1.8063 -1.6409
  133SAPE   C3814398   2.749   3.340   8.770  0.0868  0.1620 -0.0340
  133SAPE   H8X14399   2.693   3.247   8.797  1.3067  0.1590  2.6306
  133SAPE   H8Y14400   2.857   3.315   8.769  0.1304  0.3428  0.3040
  133SAPE   C3914401   2.696   3.395   8.633 -0.0609  0.3752  0.1367
  133SAPE   H9X14402   2.735   3.494   8.599 -0.1374 -0.2467 -1.8453
  133SAPE   H9Y14403   2.587   3.397   8.651 -0.2350 -1.1957 -0.6162
  133SAPE  C31014404   2.742   3.294   8.521 -0.1854  0.1766 -0.2554
  133SAPE  H10X14405   2.702   3.193   8.545  0.2533  0.4884  1.8881
  133SAPE  H10Y14406   2.853   3.286   8.526 -0.3114 -1.6124  0.1189
  133SAPE  C31114407   2.696   3.354   8.383 -0.0474 -0.0491  0.5694
  133SAPE  H11X14408   2.703   3.464   8.395 -0.2748  0.2180 -1.6133
  133SAPE  H11Y14409   2.590   3.329   8.362 -0.1279  0.3491  0.4979
  133SAPE  C31214410   2.780   3.309   8.265 -0.4574  0.4691  0.4579
  133SAPE  H12X14411   2.726   3.299   8.168 -0.0883 -2.1656  0.5044
  133SAPE  H12Y14412   2.805   3.203   8.285  0.4111  0.7512  0.8750
  133SAPE  C31314413   2.898   3.400   8.236 -0.0812 -0.1161  0.1555
  133SAPE  H13X14414   2.946   3.412   8.335  0.8568 -1.7422 -0.0825
  133SAPE  H13Y14415   2.864   3.498   8.196  0.4699 -0.3823 -0.9766
  133SAPE  C31414416   2.996   3.338   8.135  0.1463  0.0672 -0.3946
  133SAPE  H14X14417   3.032   3.241   8.176  0.8187  1.3220  2.0975
  133SAPE  H14Y14418   3.088   3.394   8.107  0.4228  0.1606  0.6614
  133SAPE  C31514419   2.933   3.307   8.002  0.4303  0.3211 -0.8050
  133SAPE  H15X14420   2.870   3.215   8.001 -0.4981  0.9228  0.4852
  133SAPE  H15Y14421   3.018   3.280   7.936  0.6350 -1.1136  0.0150
  133SAPE  C31614422   2.840   3.413   7.927 -0.2733  0.0425 -0.3135
  133SAPE  H16X14423   2.905   3.503   7.926 -0.5579  0.2763  1.6633
  133SAPE  H16Y14424   2.756   3.436   7.996  0.1823  1.3056 -0.1678
  133SAPE  C31714425   2.800   3.378   7.785 -0.3230  0.1249  0.2517
  133SAPE  H17X14426   2.712   3.438   7.756 -0.2320  0.3551  0.4488
  133SAPE  H17Y14427   2.751   3.278   7.784 -1.4601  0.6113  2.7507
  133SAPE  C31814428   2.908   3.389   7.681 -0.8933  0.4098  0.2617
  133SAPE  H18X14429   2.922   3.497   7.655 -0.4865  0.1883 -0.4631
  133SAPE  H18Y14430   2.867   3.338   7.591 -0.0836  0.4584 -0.1452
  133SAPE  H18Z14431   3.003   3.338   7.708 -1.2478  0.0124  0.7520
  134SAPE     N14432   5.627   3.127  10.225  0.0361  0.2140  0.6350
  134SAPE   HN114433   5.565   3.060  10.177  2.8323 -2.2998  0.4341
  134SAPE   HN214434   5.722   3.119  10.184  0.3881  1.0978  1.2637
  134SAPE   HN314435   5.642   3.105  10.326  2.6424  1.5235  0.5699
  134SAPE   C1214436   5.582   3.269  10.207  0.2119  0.0351 -0.1159
  134SAPE  H12A14437   5.649   3.329  10.272  1.0677 -1.5440  0.4873
  134SAPE  H12B14438   5.477   3.280  10.242  0.6051  2.3210  0.4621
  134SAPE   C1114439   5.582   3.308  10.060  0.0353  0.2464 -0.2349
  134SAPE  H11A14440   5.688   3.307  10.027 -0.2964  0.8770 -1.3478
  134SAPE  H11B14441   5.549   3.413  10.045  0.1714  0.4327  0.7311
  134SAPE     P14442   5.361   3.274   9.920  0.3245 -0.1076  0.1676
  134SAPE   O1314443   5.310   3.184   9.815 -0.2168 -0.3442  0.3883
  134SAPE   O1414444   5.271   3.290  10.034 -0.1278  0.1609 -0.9140
  134SAPE   O1214445   5.501   3.222   9.980  0.0683 -0.3368  0.0295
  134SAPE   O1114446   5.394   3.416   9.867  0.8646  0.0251 -0.1868
  134SAPE    C114447   5.387   3.459   9.736  0.5356  0.0944  0.1940
  134SAPE    HA14448   5.312   3.402   9.676  1.5355  1.4335 -2.4298
  134SAPE    HB14449   5.367   3.568   9.725 -0.5372 -0.3391 -2.4698
  134SAPE    C214450   5.520   3.446   9.656 -0.1937  0.4881 -0.1757
  134SAPE    HS14451   5.506   3.504   9.562 -0.4025  0.8426  0.0751
  134SAPE   O2114452   5.549   3.308   9.635  0.1654  0.0045  0.2110
  134SAPE   C2114453   5.463   3.243   9.554  0.2984  0.0630 -0.1067
  134SAPE   O2214454   5.380   3.295   9.482 -0.1702  0.2326 -0.2768
  134SAPE   C2214455   5.512   3.099   9.547  0.1123  0.2404 -0.1618
  134SAPE   H2R14456   5.493   3.043   9.641  0.5945 -0.0508 -0.2350
  134SAPE   H2S14457   5.437   3.054   9.478 -0.5431  0.9115  0.1044
  134SAPE    C314458   5.630   3.523   9.742  1.0847  0.4333 -0.0677
  134SAPE    HX14459   5.648   3.468   9.837 -0.9100 -0.8868 -0.4240
  134SAPE    HY14460   5.590   3.625   9.761  0.8917  0.0315  1.8071
  134SAPE   O3114461   5.754   3.542   9.672  0.7181 -0.0459 -0.0479
  134SAPE   C3114462   5.849   3.447   9.690 -0.0836 -0.3480 -0.1696
  134SAPE   O3214463   5.840   3.346   9.756  0.2595  0.4388 -0.5657
  134SAPE   C3214464   5.980   3.486   9.612  0.5186 -0.2103  0.1807
  134SAPE   H2X14465   6.014   3.577   9.666 -1.5228  1.2425 -0.9050
  134SAPE   H2Y14466   5.945   3.517   9.511 -1.4700  0.8292  1.1554
  134SAPE   C2314467   5.656   3.093   9.482  0.2829 -0.1682  0.2951
  134SAPE   H3R14468   5.678   2.986   9.461  1.6981  0.3862 -1.1321
  134SAPE   H3S14469   5.727   3.143   9.551 -0.9037  2.4494 -0.3380
  134SAPE   C2414470   5.661   3.154   9.337 -0.0833 -0.1106 -0.2268
  134SAPE   H4R14471   5.764   3.158   9.296 -0.0399  1.1407 -0.0151
  134SAPE   H4S14472   5.637   3.262   9.351 -0.5192  0.0193 -1.8486
  134SAPE   C2514473   5.572   3.090   9.234 -1.1104  0.0677 -0.2838
  134SAPE   H5R14474   5.569   2.980   9.234 -2.1191  0.0857  0.9312
  134SAPE   C2614475   5.507   3.154   9.130  0.7842 -0.2482  0.2457
  134SAPE   H6R14476   5.461   3.095   9.049 -1.2563  0.2493  0.9921
  134SAPE   C2714477   5.517   3.300   9.094  1.2120 -0.0138  0.5332
  134SAPE   H7R14478   5.553   3.357   9.182 -0.2487  3.0441 -0.7823
  134SAPE   H7S14479   5.417   3.345   9.078  0.6848 -1.2829  0.1270
  134SAPE   C2814480   5.613   3.320   8.984  0.6994  0.1684  0.4217
  134SAPE   H8R14481   5.657   3.234   8.933 -0.2671  0.2565 -0.5762
  134SAPE   C2914482   5.645   3.442   8.939  0.1647  0.5322 -0.5314
  134SAPE   H9R14483   5.728   3.457   8.868  1.2331 -0.0494  0.5846
  134SAPE  C21014484   5.585   3.565   8.997  0.8815 -0.4796 -0.3738
  134SAPE  H10R14485   5.481   3.541   9.028  0.8829 -0.9514 -0.7459
  134SAPE  H10S14486   5.569   3.635   8.912 -1.9744 -0.5125  0.1156
  134SAPE  C21114487   5.667   3.630   9.103  0.1396 -0.6725  0.1413
  134SAPE  H11R14488   5.662   3.594   9.207 -2.2946  0.8374  0.5992
  134SAPE  C21214489   5.734   3.745   9.092 -0.2240 -0.8237 -0.3099
  134SAPE  H12R14490   5.788   3.772   9.184  1.3394 -1.1244 -1.1273
  134SAPE  C21314491   5.753   3.835   8.976  0.0900  0.0407 -0.7102
  134SAPE  H13R14492   5.726   3.774   8.887 -1.0106 -1.1132  0.3910
  134SAPE  H13S14493   5.863   3.852   8.967  0.8878 -3.2773  1.5742
  134SAPE  C21414494   5.677   3.956   8.980 -0.1531  0.0378  0.0339
  134SAPE  H14R14495   5.658   4.001   9.079  0.2484 -0.1917  0.2167
  134SAPE  C21514496   5.622   4.019   8.875  0.1642  0.6853  0.4062
  134SAPE  H15R14497   5.566   4.111   8.893 -0.7436  0.0152  1.0588
  134SAPE  C21614498   5.637   3.972   8.728 -0.1742 -0.5365 -0.2133
  134SAPE  H16R14499   5.539   3.929   8.697 -0.5250 -1.2520  1.8260
  134SAPE  H16S14500   5.723   3.906   8.708  0.5959  0.7318 -1.2000
  134SAPE  C21714501   5.672   4.092   8.625  0.3428  0.1291  0.2625
  134SAPE  H17R14502   5.742   4.155   8.683  3.0677 -2.9790  0.4659
  134SAPE  H17S14503   5.577   4.150   8.620  1.4875  2.1693  1.4905
  134SAPE  C21814504   5.719   4.061   8.484  0.2540  0.1049  0.2564
  134SAPE  H18R14505   5.810   3.998   8.474  0.1011  0.1103 -1.4412
  134SAPE  H18S14506   5.739   4.155   8.428  1.0999 -0.1121  0.1864
  134SAPE  C21914507   5.610   3.984   8.404 -0.7684 -0.1829  0.1380
  134SAPE  H19R14508   5.517   4.044   8.401 -0.5361  0.1549 -0.1616
  134SAPE  H19S14509   5.588   3.893   8.464 -2.0950  0.3466  0.4689
  134SAPE  C22014510   5.652   3.945   8.262  0.3860 -0.0275  0.4107
  134SAPE  H20R14511   5.739   3.877   8.251  0.4155  0.0418  0.2227
  134SAPE  H20S14512   5.662   4.030   8.191 -0.8611 -1.1028 -1.0829
  134SAPE  H20T14513   5.571   3.888   8.212 -0.3778 -0.9653  2.6539
  134SAPE   C3314514   6.093   3.379   9.599 -0.8470  0.3440  0.1764
  134SAPE   H3X14515   6.115   3.349   9.703  2.8197 -0.4139 -0.7661
  134SAPE   H3Y14516   6.182   3.432   9.558 -0.1996 -0.1810  0.9016
  134SAPE   C3414517   6.063   3.247   9.526  0.3765  0.2517 -0.1124
  134SAPE   H4X14518   6.042   3.258   9.418 -2.0031  1.8041  0.4887
  134SAPE   H4Y14519   5.972   3.193   9.560  1.2124 -0.2176  1.4531
  134SAPE   C3514520   6.172   3.137   9.548  0.3310  0.2021  0.3770
  134SAPE   H5X14521   6.142   3.043   9.499  0.0638  0.6939 -0.4191
  134SAPE   H5Y14522   6.165   3.119   9.658 -0.3993  0.2922  0.3476
  134SAPE   C3614523   6.314   3.169   9.503  0.9566  0.4467 -0.6651
  134SAPE   H6X14524   6.375   3.080   9.531 -0.4274  0.1492  1.4741
  134SAPE   H6Y14525   6.361   3.253   9.558  0.9850  0.6721 -1.0302
  134SAPE   C3714526   6.324   3.210   9.354  0.1233  0.0127  0.4324
  134SAPE   H7X14527   6.427   3.249   9.338  0.2887 -0.5845  0.0205
  134SAPE   H7Y14528   6.245   3.284   9.333  0.3685 -0.1506 -1.1657
  134SAPE   C3814529   6.291   3.093   9.262  0.3083 -0.3239  0.3181
  134SAPE   H8X14530   6.190   3.054   9.289 -1.1147  3.6306  1.0579
  134SAPE   H8Y14531   6.372   3.018   9.274  1.3412  0.3316 -2.3335
  134SAPE   C3914532   6.298   3.121   9.114 -0.0039  0.5644  0.1435
  134SAPE   H9X14533   6.274   3.028   9.058  1.3056  0.3903 -0.1353
  134SAPE   H9Y14534   6.401   3.145   9.082  0.2939  0.1750  0.7942
  134SAPE  C31014535   6.214   3.238   9.069  0.0948 -0.0056  0.3268
  134SAPE  H10X14536   6.266   3.336   9.067 -2.2383  1.2703 -0.9085
  134SAPE  H10Y14537   6.135   3.255   9.145 -0.2827  0.9792 -0.2745
  134SAPE  C31114538   6.147   3.215   8.934  0.0700 -0.5649  0.0971
  134SAPE  H11X14539   6.062   3.144   8.944 -0.5807 -0.1950 -2.4471
  134SAPE  H11Y14540   6.222   3.167   8.867 -0.6570 -2.0611  0.3350
  134SAPE  C31214541   6.103   3.341   8.861  0.3180  0.6747  0.2776
  134SAPE  H12X14542   6.197   3.387   8.826 -0.3907  1.2794 -0.8685
  134SAPE  H12Y14543   6.051   3.408   8.933  1.8099  0.7867  1.2688
  134SAPE  C31314544   6.004   3.301   8.746 -0.2389 -0.1110 -0.7293
  134SAPE  H13X14545   5.913   3.272   8.802 -0.2606 -1.2747 -1.3627
  134SAPE  H13Y14546   6.038   3.211   8.691  0.1315 -0.7307  0.4982
  134SAPE  C31414547   5.971   3.409   8.640 -0.7298 -0.5718  0.6517
  134SAPE  H14X14548   6.062   3.453   8.593 -1.5130  0.2092 -0.1459
  134SAPE  H14Y14549   5.924   3.495   8.692  1.0372 -0.2695  1.8214
  134SAPE  C31514550   5.883   3.350   8.529 -0.1790 -0.0511  0.2044
  134SAPE  H15X14551   5.777   3.351   8.565  0.5759  0.0626  2.5620
  134SAPE  H15Y14552   5.912   3.244   8.512 -0.4063  0.2747 -2.2912
  134SAPE  C31614553   5.913   3.419   8.396  0.1966 -0.3997 -0.0988
  134SAPE  H16X14554   5.850   3.373   8.317 -1.5806  3.3606 -0.9334
  134SAPE  H16Y14555   6.022   3.402   8.382  0.2249 -1.7310  1.5592
  134SAPE  C31714556   5.874   3.572   8.399 -0.7594 -0.5457  0.3285
  134SAPE  H17X14557   5.924   3.620   8.313  0.9776 -0.4157  1.3682
  134SAPE  H17Y14558   5.930   3.628   8.477 -0.0723  0.1532 -0.6549
  134SAPE  C31814559   5.726   3.597   8.400 -0.7163  0.3587  0.0890
  134SAPE  H18X14560   5.680   3.572   8.499 -0.8709  1.1774  0.2256
  134SAPE  H18Y14561   5.671   3.534   8.327  2.1467  0.6218 -2.3727
  134SAPE  H18Z14562   5.701   3.702   8.376  1.3007  0.4882 -1.5360
  135SAPE     N14563   4.870   2.270   9.859 -0.2068 -0.4797 -0.3057
  135SAPE   HN114564   4.930   2.247   9.778 -0.3010  0.4509 -0.6507
  135SAPE   HN214565   4.788   2.207   9.854  0.8907 -2.1204  1.4845
  135SAPE   HN314566   4.848   2.371   9.844 -1.3877 -0.9191 -1.5365
  135SAPE   C1214567   4.944   2.237   9.985  0.2666 -0.4996 -0.0089
  135SAPE  H12A14568   4.971   2.129   9.989 -1.7226 -0.9796  1.5397
  135SAPE  H12B14569   4.879   2.255  10.073  1.3371 -0.3172  0.7365
  135SAPE   C1114570   5.071   2.332   9.979 -0.0689 -0.9487  0.5202
  135SAPE  H11A14571   5.111   2.322  10.082 -1.5807 -0.4928  1.1651
  135SAPE  H11B14572   5.051   2.440   9.967  0.7995 -0.5423  2.4498
  135SAPE     P14573   5.324   2.264   9.897 -0.0779 -0.5750  0.0719
  135SAPE   O1314574   5.380   2.385   9.827  0.3373  0.2342  0.4524
  135SAPE   O1414575   5.371   2.230  10.030  0.0951  0.7585  0.3131
  135SAPE   O1214576   5.169   2.275   9.893 -0.1936  0.2056 -0.1214
  135SAPE   O1114577   5.349   2.142   9.805  0.1815 -0.3603 -0.8120
  135SAPE    C114578   5.257   2.098   9.708  0.0488 -0.7511  0.3618
  135SAPE    HA14579   5.293   2.008   9.653 -0.2268 -0.2740 -0.6107
  135SAPE    HB14580   5.154   2.086   9.747 -1.0009 -0.3327 -2.1749
  135SAPE    C214581   5.251   2.194   9.591 -0.0335 -0.4002 -0.0578
  135SAPE    HS14582   5.219   2.299   9.609 -1.4404 -0.6155 -1.2015
  135SAPE   O2114583   5.166   2.139   9.503 -0.1137  0.6893 -0.0381
  135SAPE   C2114584   5.040   2.182   9.515  0.3122  0.0123  0.2739
  135SAPE   O2214585   4.995   2.250   9.605 -0.3734  0.4345  0.2863
  135SAPE   C2214586   4.954   2.149   9.391 -0.7150 -0.0561 -0.3486
  135SAPE   H2R14587   5.019   2.093   9.320 -1.4384 -1.1946 -0.1224
  135SAPE   H2S14588   4.886   2.075   9.441 -0.7505  0.8516  0.9677
  135SAPE    C314589   5.398   2.208   9.526 -0.1145  0.4796 -0.3135
  135SAPE    HX14590   5.450   2.110   9.526  0.3454  0.7153 -1.2150
  135SAPE    HY14591   5.445   2.274   9.603 -0.6165 -0.5834  0.9212
  135SAPE   O3114592   5.391   2.265   9.395  0.0138  0.5518 -0.1963
  135SAPE   C3114593   5.509   2.280   9.342 -0.1282  0.1807  0.2863
  135SAPE   O3214594   5.615   2.263   9.399  0.3941  0.6566 -0.0936
  135SAPE   C3214595   5.502   2.298   9.184  0.1602 -0.4327  0.5475
  135SAPE   H2X14596   5.430   2.376   9.148  0.2822 -0.2793  0.6399
  135SAPE   H2Y14597   5.473   2.201   9.138 -1.0493 -0.4832  1.4032
  135SAPE   C2314598   4.882   2.269   9.330 -0.6295  0.1398 -0.3337
  135SAPE   H3R14599   4.805   2.306   9.401 -1.0526 -0.6837 -0.3487
  135SAPE   H3S14600   4.824   2.224   9.247 -0.6435 -0.7297  0.1374
  135SAPE   C2414601   4.973   2.376   9.280 -0.3920 -0.1660 -0.1999
  135SAPE   H4R14602   5.039   2.410   9.362  1.0980 -0.0956 -1.4074
  135SAPE   H4S14603   4.905   2.463   9.270 -0.7052 -0.4272 -0.3516
  135SAPE   C2514604   5.055   2.359   9.160  0.4817 -0.1278 -0.3200
  135SAPE   H5R14605   5.159   2.328   9.175  0.7386  0.8618 -0.0690
  135SAPE   C2614606   5.006   2.355   9.031  0.1043  0.5985 -0.3606
  135SAPE   H6R14607   5.085   2.346   8.955  0.4649 -1.6151  0.2469
  135SAPE   C2714608   4.863   2.368   8.982 -0.7413  0.5444  0.2418
  135SAPE   H7R14609   4.847   2.444   8.903 -2.3755 -1.4672 -1.3991
  135SAPE   H7S14610   4.799   2.403   9.067  0.7597 -0.4809  1.8361
  135SAPE   C2814611   4.813   2.228   8.938 -0.1269  0.3373  0.9812
  135SAPE   H8R14612   4.821   2.139   9.002  1.3407 -0.1971  0.1041
  135SAPE   C2914613   4.769   2.203   8.808 -0.3278 -0.1548 -0.1556
  135SAPE   H9R14614   4.747   2.099   8.778 -0.1994 -0.2273 -0.0041
  135SAPE  C21014615   4.756   2.294   8.691 -0.3533  0.2174  0.2310
  135SAPE  H10R14616   4.844   2.360   8.703 -0.8175  0.6010  1.5777
  135SAPE  H10S14617   4.661   2.352   8.695 -0.0605  0.7636 -0.7214
  135SAPE  C21114618   4.768   2.231   8.553 -0.2866 -0.4127 -0.3168
  135SAPE  H11R14619   4.824   2.137   8.541 -0.0550 -0.3869  0.4996
  135SAPE  C21214620   4.718   2.281   8.446  0.6133  0.1124  0.0575
  135SAPE  H12R14621   4.718   2.208   8.363 -2.3508 -1.5660  1.4816
  135SAPE  C21314622   4.633   2.400   8.423 -0.0694  0.2120 -0.2652
  135SAPE  H13R14623   4.556   2.409   8.503 -0.2780  1.3689 -0.5850
  135SAPE  H13S14624   4.569   2.401   8.332  0.0807  0.6039 -0.3676
  135SAPE  C21414625   4.714   2.522   8.454 -0.4892 -0.4790 -0.3575
  135SAPE  H14R14626   4.813   2.517   8.503 -0.9310  1.4938  0.7402
  135SAPE  C21514627   4.681   2.648   8.416 -0.4822 -0.0747 -0.7018
  135SAPE  H15R14628   4.741   2.728   8.461  0.6948 -0.1324 -2.1334
  135SAPE  C21614629   4.560   2.688   8.342 -0.0456  0.1592 -0.1262
  135SAPE  H16R14630   4.486   2.609   8.319  0.3628 -0.1253 -0.4621
  135SAPE  H16S14631   4.595   2.730   8.245  0.9189  0.8105  0.5002
  135SAPE  C21714632   4.481   2.790   8.426  0.8684 -0.0920  0.1322
  135SAPE  H17R14633   4.402   2.838   8.364  0.7318 -1.9208 -1.1421
  135SAPE  H17S14634   4.544   2.872   8.467  1.8182  0.6071 -2.6381
  135SAPE  C21814635   4.396   2.720   8.543  0.3836  0.2469 -0.1421
  135SAPE  H18R14636   4.470   2.689   8.619  0.1080  0.8788  0.3915
  135SAPE  H18S14637   4.344   2.629   8.506 -1.2716  0.1490  2.2875
  135SAPE  C21914638   4.298   2.823   8.602 -0.1958 -0.5391 -0.5138
  135SAPE  H19R14639   4.222   2.857   8.529 -2.2765  0.2068  1.9173
  135SAPE  H19S14640   4.354   2.914   8.631 -2.5978  1.5665 -2.2675
  135SAPE  C22014641   4.216   2.769   8.722  0.4542  0.0307  0.2666
  135SAPE  H20R14642   4.157   2.682   8.686  2.8742 -1.6471  0.2341
  135SAPE  H20S14643   4.155   2.851   8.765  1.2678  1.1767 -0.7334
  135SAPE  H20T14644   4.288   2.738   8.800 -1.5514 -1.6234  1.5383
  135SAPE   C3314645   5.641   2.342   9.126  0.3632  0.6383  0.1248
  135SAPE   H3X14646   5.705   2.254   9.147  0.6737  1.1337  1.2430
  135SAPE   H3Y14647   5.690   2.426   9.180 -0.7233  1.0870  0.4246
  135SAPE   C3414648   5.636   2.388   8.977 -0.5979 -0.1582  0.2528
  135SAPE   H4X14649   5.730   2.444   8.954 -1.1308 -0.2165 -2.2347
  135SAPE   H4Y14650   5.555   2.463   8.966 -0.4693 -0.0337  0.1377
  135SAPE   C3514651   5.597   2.289   8.870  0.3623  0.1113  0.1839
  135SAPE   H5X14652   5.516   2.226   8.912  0.7262 -1.9250 -2.0612
  135SAPE   H5Y14653   5.687   2.231   8.841 -0.4289 -1.5102  0.9368
  135SAPE   C3614654   5.538   2.353   8.747  0.3972 -0.9698  1.0010
  135SAPE   H6X14655   5.564   2.292   8.658  0.8234  1.3702 -0.5294
  135SAPE   H6Y14656   5.586   2.452   8.733 -1.8296  0.0560  0.4419
  135SAPE   C3714657   5.378   2.358   8.749 -0.9272  0.0364 -0.9403
  135SAPE   H7X14658   5.334   2.447   8.799 -0.7866 -0.2726 -0.2530
  135SAPE   H7Y14659   5.338   2.270   8.804  1.7157  0.2779  1.4820
  135SAPE   C3814660   5.320   2.343   8.608  0.3607  0.1373  0.0636
  135SAPE   H8X14661   5.209   2.341   8.622  0.5397 -0.5871  1.5513
  135SAPE   H8Y14662   5.354   2.258   8.545 -0.5040  2.6829 -3.9892
  135SAPE   C3914663   5.355   2.465   8.515  0.7771  0.3498  0.3811
  135SAPE   H9X14664   5.465   2.461   8.501  0.8337  3.0393 -0.2938
  135SAPE   H9Y14665   5.325   2.559   8.567  0.1075 -0.7148  1.9674
  135SAPE  C31014666   5.300   2.453   8.369  0.2234 -0.3805 -0.2987
  135SAPE  H10X14667   5.335   2.360   8.318 -1.2193 -0.6554 -0.8181
  135SAPE  H10Y14668   5.342   2.540   8.316 -0.1515 -0.0984 -0.1334
  135SAPE  C31114669   5.147   2.452   8.361 -0.6873  0.3087 -0.8824
  135SAPE  H11X14670   5.092   2.538   8.404  0.6634 -0.0234  1.6502
  135SAPE  H11Y14671   5.111   2.370   8.427  0.1949 -0.6342 -1.5532
  135SAPE  C31214672   5.097   2.450   8.214  0.5337 -0.3712  0.0863
  135SAPE  H12X14673   5.139   2.360   8.164  0.4968  0.4740 -1.4972
  135SAPE  H12Y14674   5.127   2.542   8.158  1.2619 -0.1354  0.8419
  135SAPE  C31314675   4.947   2.462   8.202 -0.1152  0.8284 -0.4058
  135SAPE  H13X14676   4.912   2.546   8.266  0.8801 -1.3489  3.1229
  135SAPE  H13Y14677   4.917   2.373   8.261  0.3348  0.1944 -1.1175
  135SAPE  C31414678   4.889   2.469   8.058 -0.6552  0.0881  0.8585
  135SAPE  H14X14679   4.916   2.384   7.993 -1.2981  0.3856  0.1973
  135SAPE  H14Y14680   4.929   2.558   8.005  0.7620 -1.4772 -0.7562
  135SAPE  C31514681   4.734   2.486   8.078  0.0975 -0.1378 -0.1347
  135SAPE  H15X14682   4.709   2.582   8.126  1.1185  0.8942 -1.6395
  135SAPE  H15Y14683   4.694   2.418   8.157  2.3493 -2.8879 -1.2509
  135SAPE  C31614684   4.662   2.491   7.942  0.3495  0.6795 -0.7022
  135SAPE  H16X14685   4.662   2.388   7.900 -2.0164  0.2874  0.2192
  135SAPE  H16Y14686   4.729   2.550   7.875  0.6303  0.3360 -0.7250
  135SAPE  C31714687   4.516   2.533   7.934  0.3649  0.1158 -0.3547
  135SAPE  H17X14688   4.454   2.526   8.026 -2.2635  0.1125 -2.0511
  135SAPE  H17Y14689   4.472   2.454   7.870  1.6863  1.3326 -2.8341
  135SAPE  C31814690   4.511   2.670   7.867 -0.4579  0.6407  0.0393
  135SAPE  H18X14691   4.405   2.699   7.851 -0.9025 -1.7087 -1.6594
  135SAPE  H18Y14692   4.562   2.657   7.769  2.5915  3.0858  1.2179
  135SAPE  H18Z14693   4.566   2.745   7.927  1.7515  1.7499 -3.2358
  136SAPE     N14694   1.754   3.040   9.938 -0.6585  0.1454 -0.7734
  136SAPE   HN114695   1.730   3.030   9.838 -1.5388  1.0571 -0.6727
  136SAPE   HN214696   1.807   3.130   9.929  0.1298 -0.5863 -4.1512
  136SAPE   HN314697   1.809   2.961   9.977  0.1068  0.0306 -2.0528
  136SAPE   C1214698   1.632   3.056  10.027 -0.6106 -0.0142 -0.4093
  136SAPE  H12A14699   1.559   3.124   9.978 -0.3258 -0.2035 -1.1157
  136SAPE  H12B14700   1.672   3.109  10.116 -2.2903  0.6729 -0.0361
  136SAPE   C1114701   1.573   2.924  10.073  1.0160 -0.0844 -0.3680
  136SAPE  H11A14702   1.506   2.892   9.990 -0.6412  2.4619 -0.0893
  136SAPE  H11B14703   1.510   2.940  10.164  2.0712  1.3881  0.1237
  136SAPE     P14704   1.631   2.674  10.124  0.1550  0.2071 -0.0349
  136SAPE   O1314705   1.737   2.604  10.199  0.7694  0.5972  0.1907
  136SAPE   O1414706   1.495   2.674  10.182  0.2483  0.7700 -0.0407
  136SAPE   O1214707   1.678   2.827  10.101  0.1769  0.2231 -0.4357
  136SAPE   O1114708   1.623   2.632   9.970  0.0222 -0.3724  0.2418
  136SAPE    C114709   1.710   2.695   9.864 -0.0553  0.1977 -0.0240
  136SAPE    HA14710   1.664   2.792   9.834  0.9109  0.2559 -1.3539
  136SAPE    HB14711   1.806   2.712   9.917 -1.0402 -1.8578  2.5702
  136SAPE    C214712   1.737   2.599   9.744  0.1788 -0.6780  0.0383
  136SAPE    HS14713   1.807   2.640   9.669 -0.8711  1.1084  0.0101
  136SAPE   O2114714   1.616   2.566   9.674  0.5354 -0.4864  0.4925
  136SAPE   C2114715   1.543   2.670   9.631 -0.1908  0.5605 -0.0901
  136SAPE   O2214716   1.581   2.787   9.634  0.3405 -0.5678  0.0954
  136SAPE   C2214717   1.406   2.619   9.589 -0.7857 -0.7447 -0.0424
  136SAPE   H2R14718   1.422   2.537   9.516 -0.4632  0.2206 -1.0732
  136SAPE   H2S14719   1.346   2.584   9.675 -1.0848 -3.4078 -1.3069
  136SAPE    C314720   1.809   2.468   9.792 -0.0636  0.7631  0.3031
  136SAPE    HX14721   1.760   2.447   9.890  0.8655 -1.4651  0.3002
  136SAPE    HY14722   1.915   2.482   9.820  0.6103  0.8998 -2.1859
  136SAPE   O3114723   1.791   2.364   9.694 -1.0850  0.3335 -0.4188
  136SAPE   C3114724   1.880   2.374   9.593  0.5888 -0.0167 -0.4964
  136SAPE   O3214725   1.959   2.467   9.578 -0.0023  0.3081 -0.7276
  136SAPE   C3214726   1.841   2.269   9.489 -0.2793  0.0275  0.1900
  136SAPE   H2X14727   1.731   2.266   9.475 -0.1105 -2.6003 -0.9409
  136SAPE   H2Y14728   1.862   2.170   9.536 -0.6714  0.3299  1.0165
  136SAPE   C2314729   1.322   2.731   9.523 -0.1757  0.7468 -0.6107
  136SAPE   H3R14730   1.312   2.799   9.610  2.5124 -0.1667  0.4357
  136SAPE   H3S14731   1.217   2.705   9.496 -0.5756 -0.0395  1.6014
  136SAPE   C2414732   1.377   2.807   9.402  0.4995  0.5187 -1.1128
  136SAPE   H4R14733   1.484   2.822   9.428 -0.3552  2.1238  1.6748
  136SAPE   H4S14734   1.319   2.902   9.393 -0.0338  0.1574 -1.5307
  136SAPE   C2514735   1.358   2.730   9.276  0.5752 -0.3146  0.1539
  136SAPE   H5R14736   1.363   2.621   9.287  1.5620 -0.7245 -3.6365
  136SAPE   C2614737   1.375   2.786   9.155 -0.0971 -1.2639  0.6520
  136SAPE   H6R14738   1.355   2.728   9.063  1.2974  0.3381 -0.6932
  136SAPE   C2714739   1.412   2.930   9.133 -0.0229 -0.1840  0.6689
  136SAPE   H7R14740   1.504   2.945   9.193  1.0150 -0.2450 -0.8612
  136SAPE   H7S14741   1.333   2.991   9.181  0.5259  1.2944 -0.2560
  136SAPE   C2814742   1.428   2.973   8.994  0.4356  0.7767  0.0350
  136SAPE   H8R14743   1.387   2.907   8.916  1.1278  0.9775 -0.5080
  136SAPE   C2914744   1.506   3.082   8.961 -0.2437 -0.2778 -0.0047
  136SAPE   H9R14745   1.504   3.101   8.852  0.4089  0.2222  0.0650
  136SAPE  C21014746   1.575   3.172   9.060 -0.0452  0.1578 -0.0653
  136SAPE  H10R14747   1.667   3.121   9.096  1.1426  2.1119 -0.2499
  136SAPE  H10S14748   1.511   3.189   9.149  0.0137 -0.6010  0.1267
  136SAPE  C21114749   1.611   3.309   9.008  0.8288 -0.4120 -0.3587
  136SAPE  H11R14750   1.551   3.394   9.042 -0.4354 -0.9421 -1.2101
  136SAPE  C21214751   1.714   3.340   8.929 -0.1707 -0.9308  0.5951
  136SAPE  H12R14752   1.724   3.441   8.887 -0.2795 -0.1136  2.5327
  136SAPE  C21314753   1.815   3.236   8.878 -0.4689 -0.0108  0.5875
  136SAPE  H13R14754   1.793   3.134   8.916  0.0612 -0.3513 -0.0208
  136SAPE  H13S14755   1.915   3.250   8.925 -0.7487  0.0845  1.1566
  136SAPE  C21414756   1.816   3.230   8.728  0.5155 -0.6406 -0.1676
  136SAPE  H14R14757   1.863   3.323   8.692 -3.3439  0.8365 -1.6218
  136SAPE  C21514758   1.785   3.129   8.644 -0.0347  0.1949  0.0788
  136SAPE  H15R14759   1.790   3.151   8.536  1.8200  2.1355  0.5184
  136SAPE  C21614760   1.734   2.986   8.667 -0.6467 -0.3222  0.7496
  136SAPE  H16R14761   1.628   2.988   8.633 -1.1452  0.1978  2.2725
  136SAPE  H16S14762   1.732   2.960   8.775  1.2605  1.9969  1.4081
  136SAPE  C21714763   1.821   2.870   8.608  0.1403  0.3377  0.6600
  136SAPE  H17R14764   1.821   2.896   8.500  0.5833  3.0319  1.2588
  136SAPE  H17S14765   1.769   2.773   8.624 -1.0763  0.7260 -0.7444
  136SAPE  C21814766   1.965   2.863   8.650 -0.3816  0.0253 -0.6163
  136SAPE  H18R14767   1.980   2.823   8.753 -2.4537  2.3473  0.6434
  136SAPE  H18S14768   2.008   2.965   8.654  0.8926 -0.5178 -0.1454
  136SAPE  C21914769   2.053   2.776   8.550  0.3197  0.3914  1.0688
  136SAPE  H19R14770   2.160   2.793   8.575  1.2568  1.6705 -3.3920
  136SAPE  H19S14771   2.036   2.818   8.449 -2.1906 -1.2240  0.7890
  136SAPE  C22014772   2.003   2.624   8.538 -0.6808 -0.2216 -0.5498
  136SAPE  H20R14773   1.899   2.633   8.500 -1.3379  0.4306  1.3462
  136SAPE  H20S14774   2.020   2.573   8.635  2.9402 -0.3675 -1.1884
  136SAPE  H20T14775   2.068   2.559   8.476 -0.3681 -0.0924 -0.3616
  136SAPE   C3314776   1.922   2.283   9.359 -0.4266 -0.2476  0.2229
  136SAPE   H3X14777   1.921   2.190   9.298  0.7014  0.6732 -1.2463
  136SAPE   H3Y14778   2.031   2.292   9.378 -0.2587 -2.0257  0.1500
  136SAPE   C3414779   1.883   2.414   9.276  0.5260  0.0472 -0.3798
  136SAPE   H4X14780   1.948   2.409   9.186 -0.0283 -0.0411 -0.7772
  136SAPE   H4Y14781   1.911   2.492   9.349  2.1497 -1.6810  0.9015
  136SAPE   C3514782   1.729   2.422   9.238 -0.1014 -0.8858 -0.1136
  136SAPE   H5X14783   1.683   2.473   9.325 -0.1788 -0.7437 -0.2369
  136SAPE   H5Y14784   1.696   2.318   9.216 -0.3903 -0.4260 -1.9466
  136SAPE   C3614785   1.702   2.508   9.117  0.3959 -0.2221 -0.0371
  136SAPE   H6X14786   1.783   2.503   9.041  0.2858  4.7152 -0.6547
  136SAPE   H6Y14787   1.690   2.616   9.140 -1.1822 -0.4924  0.4964
  136SAPE   C3714788   1.573   2.456   9.043  0.2592  0.1778 -0.7754
  136SAPE   H7X14789   1.491   2.454   9.118  0.5010 -0.4348 -0.5241
  136SAPE   H7Y14790   1.588   2.356   8.997 -3.7163 -0.2952 -1.2345
  136SAPE   C3814791   1.534   2.556   8.929 -0.0750 -0.2466 -0.0332
  136SAPE   H8X14792   1.617   2.555   8.856  0.5890  0.1710  0.7059
  136SAPE   H8Y14793   1.546   2.662   8.959  1.6172 -0.2749 -0.5923
  136SAPE   C3914794   1.400   2.514   8.859 -0.5513  0.2580  0.3076
  136SAPE   H9X14795   1.322   2.486   8.933 -0.4619 -0.2871  0.2022
  136SAPE   H9Y14796   1.430   2.422   8.803  0.5265  0.2445  0.9093
  136SAPE  C31014797   1.344   2.622   8.760  0.0054  0.5109  0.0168
  136SAPE  H10X14798   1.284   2.696   8.816  1.3132  1.1090  0.6438
  136SAPE  H10Y14799   1.278   2.577   8.683 -3.0232 -0.0327  2.8017
  136SAPE  C31114800   1.466   2.691   8.688 -0.1271  0.3891 -0.2269
  136SAPE  H11X14801   1.548   2.619   8.669 -2.1312 -1.6316 -1.4421
  136SAPE  H11Y14802   1.505   2.767   8.759 -2.9423  3.0888 -1.4317
  136SAPE  C31214803   1.441   2.751   8.554  0.1729 -0.5610  0.0646
  136SAPE  H12X14804   1.498   2.842   8.527 -1.0106 -0.3159 -1.6838
  136SAPE  H12Y14805   1.338   2.793   8.556  1.3924  2.4468  1.3667
  136SAPE  C31314806   1.456   2.656   8.433 -0.5372 -0.4505 -0.3750
  136SAPE  H13X14807   1.391   2.699   8.354  0.0532  0.8751 -0.1453
  136SAPE  H13Y14808   1.414   2.558   8.464 -3.0766  0.3327 -1.2249
  136SAPE  C31414809   1.598   2.654   8.373  0.5739 -0.4201  0.3910
  136SAPE  H14X14810   1.660   2.599   8.446  0.7367 -0.1401  0.4650
  136SAPE  H14Y14811   1.640   2.757   8.366 -3.0689  1.1514  0.5611
  136SAPE  C31514812   1.598   2.591   8.231 -0.6264 -0.2570 -0.0479
  136SAPE  H15X14813   1.533   2.654   8.165 -1.7141 -1.2495  0.0622
  136SAPE  H15Y14814   1.536   2.499   8.236  0.2253 -0.7959  0.5024
  136SAPE  C31614815   1.733   2.583   8.167  0.3185  0.0251 -0.1219
  136SAPE  H16X14816   1.782   2.680   8.187  0.4411  0.3756 -2.0151
  136SAPE  H16Y14817   1.725   2.575   8.056  1.9487  1.3938 -0.3656
  136SAPE  C31714818   1.811   2.458   8.201 -0.4767 -0.0582  0.3718
  136SAPE  H17X14819   1.750   2.373   8.164 -1.1027  0.7325 -0.4446
  136SAPE  H17Y14820   1.811   2.441   8.311 -0.0648 -0.4767  0.3112
  136SAPE  C31814821   1.956   2.448   8.147 -0.3674 -0.1554 -0.6258
  136SAPE  H18X14822   1.974   2.530   8.074 -0.2973 -0.9350 -1.4975
  136SAPE  H18Y14823   1.963   2.350   8.094  0.4433  0.1028 -1.0049
  136SAPE  H18Z14824   2.044   2.442   8.214 -0.7807  1.6746  0.0989
  137SAPE     N14825   5.901   5.683   9.775  0.3867 -0.8233 -0.2026
  137SAPE   HN114826   5.991   5.730   9.752 -0.5264  0.4348 -1.3148
  137SAPE   HN214827   5.883   5.695   9.876 -0.4278 -1.4594 -0.2684
  137SAPE   HN314828   5.925   5.584   9.757  0.3223 -0.5239 -2.0346
  137SAPE   C1214829   5.773   5.742   9.709 -0.3841 -0.0058 -0.0800
  137SAPE  H12A14830   5.688   5.672   9.727 -1.2135  1.3269  1.3557
  137SAPE  H12B14831   5.794   5.745   9.600  2.7046  2.3768  0.5164
  137SAPE   C1114832   5.742   5.883   9.755  0.1635  0.3509 -0.1135
  137SAPE  H11A14833   5.656   5.918   9.694 -1.4956 -0.8137  1.4972
  137SAPE  H11B14834   5.827   5.950   9.730  1.1535 -0.5304  0.8581
  137SAPE     P14835   5.570   5.866   9.958  0.4107  0.3167  0.0638
  137SAPE   O1314836   5.578   5.767  10.068  0.1501 -0.1578 -0.1467
  137SAPE   O1414837   5.533   6.004   9.992  0.4111  0.2312 -0.0484
  137SAPE   O1214838   5.713   5.883   9.893  0.2504 -0.0456  0.4881
  137SAPE   O1114839   5.475   5.821   9.846  0.2579 -0.0216  0.2968
  137SAPE    C114840   5.342   5.864   9.825  0.6766 -0.7203  0.2349
  137SAPE    HA14841   5.347   5.974   9.831 -1.8389 -0.4811 -1.1771
  137SAPE    HB14842   5.305   5.848   9.721 -2.2487  0.1336  1.0744
  137SAPE    C214843   5.247   5.799   9.926  0.2645 -0.2181 -0.4346
  137SAPE    HS14844   5.274   5.855  10.018  1.0036  1.3525 -1.5693
  137SAPE   O2114845   5.288   5.661   9.939  0.1449  0.4349  0.3654
  137SAPE   C2114846   5.255   5.591  10.039  0.1881  0.3482 -0.2345
  137SAPE   O2214847   5.186   5.632  10.135  0.0093  0.0958 -0.2517
  137SAPE   C2214848   5.323   5.456  10.022 -0.0292  0.5874 -0.0714
  137SAPE   H2R14849   5.424   5.462  10.067  0.0492 -0.5405 -0.0838
  137SAPE   H2S14850   5.267   5.386  10.088  0.8924  0.9635  1.1245
  137SAPE    C314851   5.096   5.823   9.890  0.9838 -0.4237 -0.3876
  137SAPE    HX14852   5.089   5.933   9.873 -2.1164 -1.1123 -4.0003
  137SAPE    HY14853   5.031   5.795   9.976 -1.0166 -0.2608 -1.8199
  137SAPE   O3114854   5.077   5.755   9.765 -0.5639 -0.5892  0.4730
  137SAPE   C3114855   5.025   5.638   9.774  0.2879  0.2690 -0.0088
  137SAPE   O3214856   4.980   5.588   9.874  0.2359  0.4797  0.4320
  137SAPE   C3214857   5.010   5.585   9.636 -0.6000  0.3486 -0.1026
  137SAPE   H2X14858   5.070   5.646   9.565 -2.0292  2.7054  0.6586
  137SAPE   H2Y14859   4.904   5.602   9.609 -0.6380 -0.1350 -0.2694
  137SAPE   C2314860   5.334   5.399   9.879  0.3467 -0.2590 -0.3212
  137SAPE   H3R14861   5.240   5.421   9.823  0.7809  1.0608 -0.5493
  137SAPE   H3S14862   5.343   5.289   9.887  0.6007 -0.2771 -0.8743
  137SAPE   C2414863   5.449   5.447   9.800 -0.0865 -0.5759 -0.8260
  137SAPE   H4R14864   5.539   5.426   9.862  0.0008  1.3378 -0.2609
  137SAPE   H4S14865   5.445   5.558   9.793 -0.7091 -0.6396 -1.4778
  137SAPE   C2514866   5.464   5.387   9.664 -0.2296 -0.6869 -0.5067
  137SAPE   H5R14867   5.515   5.290   9.654 -0.9818 -1.2887  1.2898
  137SAPE   C2614868   5.436   5.439   9.550 -0.3310  0.2122  1.1436
  137SAPE   H6R14869   5.442   5.369   9.465 -0.3816  0.5863  0.8298
  137SAPE   C2714870   5.373   5.574   9.516  0.5328 -0.5638 -0.3967
  137SAPE   H7R14871   5.303   5.601   9.598  0.8698 -0.9229  0.0174
  137SAPE   H7S14872   5.316   5.568   9.421 -1.7777  2.1096  0.7548
  137SAPE   C2814873   5.480   5.676   9.500  0.4382  0.0234  0.0727
  137SAPE   H8R14874   5.498   5.732   9.592  3.5216  0.6298 -0.8352
  137SAPE   C2914875   5.535   5.713   9.383 -0.0825 -0.1495  0.0918
  137SAPE   H9R14876   5.603   5.800   9.380  0.1322 -0.2702  1.0474
  137SAPE  C21014877   5.503   5.650   9.249  0.0961  0.6068  0.7438
  137SAPE  H10R14878   5.472   5.544   9.252 -1.7582  0.9876 -2.5623
  137SAPE  H10S14879   5.599   5.656   9.193 -1.2470  1.8522 -1.4881
  137SAPE  C21114880   5.394   5.734   9.173 -0.2594  0.3324 -0.4243
  137SAPE  H11R14881   5.294   5.687   9.177 -0.5565  0.9937  0.1216
  137SAPE  C21214882   5.408   5.855   9.121  0.0759 -0.5827 -0.3845
  137SAPE  H12R14883   5.320   5.910   9.083  0.1908 -1.7075 -2.3005
  137SAPE  C21314884   5.535   5.940   9.132  0.8878 -0.2934  1.0918
  137SAPE  H13R14885   5.612   5.868   9.097  0.4076 -1.0175  1.4852
  137SAPE  H13S14886   5.558   5.968   9.237  1.2577 -0.4325  1.0469
  137SAPE  C21414887   5.532   6.058   9.038  0.0752 -0.1100 -0.4140
  137SAPE  H14R14888   5.527   6.149   9.100  0.8900  1.1433 -2.1212
  137SAPE  C21514889   5.539   6.070   8.906  0.6658 -0.3954 -0.5507
  137SAPE  H15R14890   5.536   6.173   8.867  0.5679 -0.4485 -0.6821
  137SAPE  C21614891   5.555   5.956   8.806 -0.3280 -0.1667 -0.2138
  137SAPE  H16R14892   5.474   5.957   8.730 -0.3723  0.2543 -0.1597
  137SAPE  H16S14893   5.532   5.859   8.857  2.4251 -0.9116 -0.2992
  137SAPE  C21714894   5.688   5.956   8.731  0.1716  0.2855 -0.8166
  137SAPE  H17R14895   5.675   5.877   8.654 -0.3910 -0.7933  0.3710
  137SAPE  H17S14896   5.763   5.924   8.806 -1.5456  0.0403  0.8461
  137SAPE  C21814897   5.733   6.086   8.663 -0.7438  0.0588 -0.3885
  137SAPE  H18R14898   5.712   6.179   8.720 -0.1410  0.8220 -1.3986
  137SAPE  H18S14899   5.663   6.100   8.578 -2.0024 -0.8537  0.4867
  137SAPE  C21914900   5.879   6.080   8.608 -1.2123 -0.0377  0.1281
  137SAPE  H19R14901   5.896   5.999   8.534 -0.6494 -0.2102  0.4510
  137SAPE  H19S14902   5.934   6.062   8.703  0.9547 -1.3696 -1.3466
  137SAPE  C22014903   5.932   6.210   8.540  0.4044  0.0654 -0.3296
  137SAPE  H20R14904   5.913   6.220   8.430  0.4761  0.6507 -0.2936
  137SAPE  H20S14905   6.042   6.216   8.554  0.0207  0.0935  3.0654
  137SAPE  H20T14906   5.900   6.303   8.592  4.0216  1.6989 -0.9207
  137SAPE   C3314907   5.031   5.436   9.617 -0.6036  0.7607  0.1834
  137SAPE   H3X14908   4.962   5.392   9.693 -0.5882  0.8422  0.2445
  137SAPE   H3Y14909   5.132   5.408   9.654 -0.9082  1.9101  1.9779
  137SAPE   C3414910   4.999   5.376   9.477  0.0265  0.3297  0.1622
  137SAPE   H4X14911   4.894   5.401   9.451 -0.1503 -0.5486  0.0119
  137SAPE   H4Y14912   5.016   5.268   9.492  0.8230  0.5772  1.0809
  137SAPE   C3514913   5.093   5.421   9.365 -0.4485 -0.1909 -0.2105
  137SAPE   H5X14914   5.193   5.380   9.392 -0.6015 -0.2048  0.3204
  137SAPE   H5Y14915   5.092   5.531   9.353  3.1866  0.1191  1.6472
  137SAPE   C3614916   5.052   5.343   9.241  0.2340 -0.1684 -1.0524
  137SAPE   H6X14917   4.955   5.379   9.198 -0.9082 -0.0379  1.5623
  137SAPE   H6Y14918   5.049   5.233   9.256 -1.0080 -0.1753 -1.2765
  137SAPE   C3714919   5.158   5.371   9.128  0.3021 -0.3312  0.0680
  137SAPE   H7X14920   5.260   5.353   9.169  1.3759 -0.1016 -2.4349
  137SAPE   H7Y14921   5.164   5.474   9.089 -2.5363  0.0980  0.6390
  137SAPE   C3814922   5.152   5.273   9.007 -0.2583  0.2798 -0.3144
  137SAPE   H8X14923   5.045   5.277   8.978 -1.4150 -1.1628  3.4960
  137SAPE   H8Y14924   5.140   5.170   9.047  0.2790  0.8579  1.3726
  137SAPE   C3914925   5.248   5.280   8.889  0.3056 -0.6612 -0.0789
  137SAPE   H9X14926   5.352   5.287   8.929  0.6495 -0.4236 -1.0038
  137SAPE   H9Y14927   5.227   5.372   8.832 -1.1293 -1.8324 -1.4959
  137SAPE  C31014928   5.258   5.153   8.802 -0.3818 -0.4346 -0.2173
  137SAPE  H10X14929   5.317   5.183   8.713 -0.4541  0.3598 -0.0003
  137SAPE  H10Y14930   5.156   5.128   8.767  0.0901  0.5977 -2.4304
  137SAPE  C31114931   5.331   5.034   8.861 -0.0434  0.4699  0.2222
  137SAPE  H11X14932   5.280   5.013   8.957  0.9378 -1.6779  0.3232
  137SAPE  H11Y14933   5.438   5.046   8.890  0.5363  2.3868 -2.5684
  137SAPE  C31214934   5.325   4.909   8.778  0.5573 -0.1726 -0.1884
  137SAPE  H12X14935   5.221   4.870   8.770  0.3276  0.8484 -2.7372
  137SAPE  H12Y14936   5.393   4.837   8.828 -2.4138 -2.0545  1.2680
  137SAPE  C31314937   5.388   4.927   8.640  0.0179  0.7529  0.6939
  137SAPE  H13X14938   5.485   4.978   8.655  1.1594 -1.4271  0.8960
  137SAPE  H13Y14939   5.330   4.989   8.568  0.8733  0.2354 -0.4602
  137SAPE  C31414940   5.417   4.786   8.569 -0.3876  0.1402  0.4661
  137SAPE  H14X14941   5.314   4.743   8.569 -1.0502  1.6818  1.9568
  137SAPE  H14Y14942   5.484   4.720   8.628  0.4298 -0.9243 -1.6053
  137SAPE  C31514943   5.466   4.813   8.420 -0.6193  0.2829  0.2991
  137SAPE  H15X14944   5.541   4.893   8.431 -1.6842  1.1414  1.5435
  137SAPE  H15Y14945   5.384   4.850   8.355  0.1527 -0.8652 -1.3670
  137SAPE  C31614946   5.514   4.689   8.345 -0.2961 -0.0226  0.5366
  137SAPE  H16X14947   5.422   4.626   8.334  0.6786 -1.3300 -0.3038
  137SAPE  H16Y14948   5.593   4.627   8.392  1.9609  1.3605 -1.3941
  137SAPE  C31714949   5.568   4.715   8.204 -0.3912  0.6280  0.7436
  137SAPE  H17X14950   5.665   4.769   8.206 -0.0280 -0.0290  1.2718
  137SAPE  H17Y14951   5.491   4.776   8.154 -1.1640 -0.7056  0.2655
  137SAPE  C31814952   5.574   4.585   8.119 -0.0126 -0.5086 -0.1466
  137SAPE  H18X14953   5.479   4.574   8.062  0.8346 -0.4475 -1.5815
  137SAPE  H18Y14954   5.580   4.506   8.196 -0.2455 -0.4924 -0.1134
  137SAPE  H18Z14955   5.652   4.575   8.041  2.6991  2.4359  2.0403
  138SAPE     N14956   2.648   6.031  10.059 -0.1357  0.4294 -0.0069
  138SAPE   HN114957   2.690   6.071   9.973  0.9180 -0.3175  0.1535
  138SAPE   HN214958   2.627   5.933  10.034  1.2255 -0.1364  0.9819
  138SAPE   HN314959   2.556   6.078  10.072 -0.5615 -0.4100  0.0761
  138SAPE   C1214960   2.738   6.045  10.178  0.1824 -0.2881  1.2843
  138SAPE  H12A14961   2.779   5.947  10.210  1.9016 -0.0620 -0.1303
  138SAPE  H12B14962   2.676   6.080  10.263 -1.3445 -2.8129  1.2466
  138SAPE   C1114963   2.857   6.144  10.161 -1.0964 -0.3035 -0.1556
  138SAPE  H11A14964   2.928   6.082  10.101 -0.4964 -0.1271  0.3668
  138SAPE  H11B14965   2.913   6.157  10.256 -0.1739 -1.3405 -0.5470
  138SAPE     P14966   2.831   6.317   9.974 -0.2841  0.0209  0.1972
  138SAPE   O1314967   2.761   6.214   9.891 -0.6357  0.3001  0.2097
  138SAPE   O1414968   2.786   6.463   9.977  0.1285  0.1440 -0.8197
  138SAPE   O1214969   2.819   6.273  10.120  0.4758  0.6889 -0.1773
  138SAPE   O1114970   2.977   6.300   9.946  0.0306 -1.1135  0.0507
  138SAPE    C114971   3.020   6.245   9.820 -0.1903  0.0739 -0.8102
  138SAPE    HA14972   3.001   6.136   9.811  5.2297 -1.0000 -0.9942
  138SAPE    HB14973   2.963   6.300   9.741  0.2797 -3.6416 -3.8883
  138SAPE    C214974   3.167   6.281   9.788 -0.2861 -0.2307 -0.1207
  138SAPE    HS14975   3.236   6.243   9.867  0.6806  0.1086 -0.7865
  138SAPE   O2114976   3.184   6.424   9.782 -0.0481 -0.1699 -0.0800
  138SAPE   C2114977   3.302   6.462   9.767  0.4261  0.4255  0.0557
  138SAPE   O2214978   3.404   6.396   9.786 -0.1174 -0.0689  0.1491
  138SAPE   C2214979   3.308   6.612   9.727  0.1672 -0.6583  0.1009
  138SAPE   H2R14980   3.213   6.634   9.674 -1.4063 -3.1323  1.7654
  138SAPE   H2S14981   3.319   6.682   9.813  1.8342 -0.4181 -0.3060
  138SAPE    C314982   3.202   6.202   9.661 -0.5994 -0.3226  0.9828
  138SAPE    HX14983   3.199   6.093   9.683  1.3596 -0.4401  0.6953
  138SAPE    HY14984   3.306   6.222   9.629 -1.5856  1.9015 -0.9342
  138SAPE   O3114985   3.114   6.225   9.553  0.0462 -0.1621  0.6555
  138SAPE   C3114986   3.148   6.313   9.462 -0.3885 -0.3132 -0.5394
  138SAPE   O3214987   3.245   6.385   9.455  0.0600 -0.5328  0.8905
  138SAPE   C3214988   3.055   6.287   9.340 -0.2525 -0.6946  0.3254
  138SAPE   H2X14989   3.076   6.185   9.301 -2.1069 -1.0092  0.1399
  138SAPE   H2Y14990   3.075   6.355   9.255  0.2796 -3.1569 -1.5887
  138SAPE   C2314991   3.424   6.640   9.626 -0.4218 -0.2947 -0.4664
  138SAPE   H3R14992   3.454   6.548   9.571  1.5142  0.7141 -1.1555
  138SAPE   H3S14993   3.517   6.670   9.679 -1.2374 -1.5460  1.7611
  138SAPE   C2414994   3.384   6.757   9.538  1.1784 -0.7481  0.3361
  138SAPE   H4R14995   3.419   6.858   9.569  2.0117 -0.5985 -1.0872
  138SAPE   H4S14996   3.273   6.759   9.532  1.2272 -1.4948 -1.1027
  138SAPE   C2514997   3.436   6.717   9.407 -0.2928 -0.0767  1.0365
  138SAPE   H5R14998   3.415   6.615   9.371  2.5185  0.2743 -1.7669
  138SAPE   C2614999   3.514   6.786   9.313  0.0176  0.3626 -0.5605
  138SAPE   H6R15000   3.552   6.728   9.228 -0.3678  0.2945 -0.6858
  138SAPE   C2715001   3.565   6.926   9.314 -0.3736 -0.2880  0.7363
  138SAPE   H7R15002   3.676   6.916   9.316 -0.4514 -1.3901 -0.0977
  138SAPE   H7S15003   3.532   6.972   9.410 -2.8213 -0.7992  0.1801
  138SAPE   C2815004   3.536   7.003   9.190  0.1025 -0.3684  0.0817
  138SAPE   H8R15005   3.446   7.064   9.209 -0.3310 -0.8939 -0.2618
  138SAPE   C2915006   3.612   7.011   9.075 -0.5492  0.1593  0.1810
  138SAPE   H9R15007   3.554   7.054   8.992  0.7359  0.8181 -0.3758
  138SAPE  C21015008   3.740   6.938   9.043  0.2082 -0.4624 -0.0999
  138SAPE  H10R15009   3.724   6.874   8.954 -2.0614 -0.3401  0.2132
  138SAPE  H10S15010   3.773   6.877   9.130 -0.3245  0.6264  0.8798
  138SAPE  C21115011   3.859   7.031   9.018 -0.6511 -0.0969  0.3139
  138SAPE  H11R15012   3.918   7.046   9.109 -0.6043 -0.0048  0.2679
  138SAPE  C21215013   3.913   7.062   8.896  0.4678 -0.1537  0.1104
  138SAPE  H12R15014   4.009   7.116   8.892 -0.6972  1.8527 -3.7748
  138SAPE  C21315015   3.863   7.011   8.766 -0.5094  0.1941  0.6132
  138SAPE  H13R15016   3.757   7.044   8.763 -0.8634 -0.6772  2.5814
  138SAPE  H13S15017   3.857   6.900   8.756  1.0005  0.1431  0.2414
  138SAPE  C21415018   3.935   7.087   8.659 -1.4999 -0.1491  0.1568
  138SAPE  H14R15019   3.920   7.196   8.667 -1.1319 -0.0361 -0.6562
  138SAPE  C21515020   4.022   7.037   8.573  0.3404 -0.2466  0.9483
  138SAPE  H15R15021   4.059   7.100   8.490 -1.2706 -1.1787 -0.5183
  138SAPE  C21615022   4.070   6.894   8.569  0.1566 -0.1734 -0.9439
  138SAPE  H16R15023   4.057   6.850   8.670 -1.4350  2.8417  0.2294
  138SAPE  H16S15024   4.170   6.873   8.525 -0.3694 -1.2564 -1.6545
  138SAPE  C21715025   3.977   6.814   8.474 -0.1117  0.0710 -0.2447
  138SAPE  H17R15026   4.001   6.857   8.375  1.6499 -1.5184 -0.5533
  138SAPE  H17S15027   3.869   6.832   8.493 -0.2700  0.8450 -1.8396
  138SAPE  C21815028   3.996   6.657   8.477 -0.3634 -0.0114 -0.1434
  138SAPE  H18R15029   3.984   6.629   8.584 -1.2142 -0.3930 -0.3412
  138SAPE  H18S15030   4.099   6.649   8.436 -1.0692  0.8043 -2.1459
  138SAPE  C21915031   3.899   6.593   8.381  0.1396  0.5068  0.0467
  138SAPE  H19R15032   3.901   6.641   8.281  1.4071 -3.5854 -2.0382
  138SAPE  H19S15033   3.800   6.614   8.427 -0.3506  0.3872 -0.9410
  138SAPE  C22015034   3.924   6.446   8.372 -1.0183 -0.9386 -0.2932
  138SAPE  H20R15035   3.999   6.436   8.291 -0.5487  1.1998 -0.1428
  138SAPE  H20S15036   3.834   6.388   8.341 -0.7746 -1.6474  0.2886
  138SAPE  H20T15037   3.965   6.413   8.470 -1.2181 -0.6202 -0.1008
  138SAPE   C3315038   2.912   6.295   9.379  0.6484 -0.3206 -1.0502
  138SAPE   H3X15039   2.890   6.236   9.470  0.3223  0.8948 -0.3227
  138SAPE   H3Y15040   2.856   6.252   9.293  1.6638 -0.5702 -1.5987
  138SAPE   C3415041   2.850   6.438   9.379 -0.8020  0.2211  0.4226
  138SAPE   H4X15042   2.744   6.413   9.358 -1.0825  1.7380 -0.0373
  138SAPE   H4Y15043   2.897   6.501   9.300 -0.4266 -0.8649 -0.2232
  138SAPE   C3515044   2.856   6.509   9.512  0.1519 -0.3711  0.6117
  138SAPE   H5X15045   2.963   6.509   9.543  0.1307 -1.1047  0.6793
  138SAPE   H5Y15046   2.807   6.448   9.590  0.2514 -0.9078  0.2543
  138SAPE   C3615047   2.813   6.655   9.516 -0.1129 -0.6981  1.0670
  138SAPE   H6X15048   2.833   6.696   9.618 -1.9666  0.3757  1.0280
  138SAPE   H6Y15049   2.703   6.663   9.509  0.0595  1.1886  0.1001
  138SAPE   C3715050   2.868   6.760   9.410  0.1425 -0.2490 -0.5028
  138SAPE   H7X15051   2.808   6.853   9.421  1.8971  0.8880 -0.3861
  138SAPE   H7Y15052   2.848   6.718   9.309  1.4893  0.7377 -1.2035
  138SAPE   C3815053   3.019   6.794   9.418 -0.3981 -0.1343 -0.1821
  138SAPE   H8X15054   3.072   6.698   9.430 -1.3772 -0.7474 -0.7280
  138SAPE   H8Y15055   3.044   6.832   9.520 -2.3491  1.2858 -0.1923
  138SAPE   C3915056   3.084   6.885   9.320  0.0270 -0.4787 -0.2428
  138SAPE   H9X15057   3.154   6.959   9.363 -2.6032  0.8488  1.8834
  138SAPE   H9Y15058   2.996   6.947   9.294  1.0763  0.4354 -1.6031
  138SAPE  C31015059   3.149   6.820   9.196  0.1069 -0.1374  0.2030
  138SAPE  H10X15060   3.149   6.713   9.227  2.2548 -0.3235 -0.3627
  138SAPE  H10Y15061   3.241   6.881   9.182  0.1158  0.0180  0.9178
  138SAPE  C31115062   3.063   6.846   9.070  0.4851 -0.7471  0.1358
  138SAPE  H11X15063   3.038   6.953   9.051  1.0782 -0.8433 -1.2834
  138SAPE  H11Y15064   2.967   6.793   9.084  0.3212 -0.1071  1.4569
  138SAPE  C31215065   3.121   6.790   8.941  0.1597 -1.1315  0.5094
  138SAPE  H12X15066   3.208   6.848   8.904 -0.3583  1.1382  2.7306
  138SAPE  H12Y15067   3.043   6.807   8.864 -2.4630  3.5432  3.9203
  138SAPE  C31315068   3.176   6.649   8.964  0.6603  0.1615 -0.5326
  138SAPE  H13X15069   3.097   6.599   9.023 -1.1611  2.0562 -1.2900
  138SAPE  H13Y15070   3.260   6.652   9.036  0.1033  1.1011  0.0956
  138SAPE  C31415071   3.205   6.566   8.844 -0.3030  0.2271 -0.5002
  138SAPE  H14X15072   3.122   6.556   8.771 -1.4901  1.6813  0.6211
  138SAPE  H14Y15073   3.237   6.465   8.879  1.5015  1.8605  2.8087
  138SAPE  C31515074   3.326   6.626   8.755  0.5954  0.0735 -0.0612
  138SAPE  H15X15075   3.306   6.721   8.700  0.1785  0.3904  0.6384
  138SAPE  H15Y15076   3.345   6.541   8.686 -0.5865 -1.5436  1.5499
  138SAPE  C31615077   3.455   6.635   8.836  0.3848 -0.7967  0.3879
  138SAPE  H16X15078   3.470   6.537   8.885  1.1070 -0.3550  1.0707
  138SAPE  H16Y15079   3.433   6.703   8.922  1.1314 -0.2821  0.1851
  138SAPE  C31715080   3.588   6.696   8.781  0.1534 -0.1889  0.0554
  138SAPE  H17X15081   3.660   6.687   8.865 -1.0809 -1.0776  1.0532
  138SAPE  H17Y15082   3.573   6.805   8.765  0.9482  0.0380  0.8212
  138SAPE  C31815083   3.640   6.621   8.658  0.2979 -0.1694  0.8679
  138SAPE  H18X15084   3.654   6.512   8.678 -1.8545 -0.7386 -0.5874
  138SAPE  H18Y15085   3.739   6.653   8.619  0.2642 -1.0914 -0.0024
  138SAPE  H18Z15086   3.574   6.637   8.571  2.8907 -1.3564 -1.3881
  139SAPE     N15087   2.122   6.442  10.105  0.2047  0.1312  0.5909
  139SAPE   HN115088   2.218   6.418  10.074  1.4125  2.5207  2.3622
  139SAPE   HN215089   2.100   6.534  10.063  2.7946  1.2733  1.6400
  139SAPE   HN315090   2.120   6.457  10.208 -0.8412  2.6409  0.2443
  139SAPE   C1215091   2.032   6.331  10.044  0.3315 -0.2397 -0.0588
  139SAPE  H12A15092   1.943   6.388  10.011 -0.3152 -0.6800  0.9072
  139SAPE  H12B15093   2.018   6.253  10.122 -0.8997  1.6239  1.6394
  139SAPE   C1115094   2.110   6.276   9.927 -0.4243 -0.2196 -0.2632
  139SAPE  H11A15095   2.126   6.354   9.850 -0.8167  0.7737  0.6470
  139SAPE  H11B15096   2.050   6.196   9.880 -2.2967  1.8537 -1.4684
  139SAPE     P15097   2.299   6.107   9.983  0.1853  0.3217  0.0873
  139SAPE   O1315098   2.383   6.097  10.104  0.5778  0.2845  0.2676
  139SAPE   O1415099   2.184   6.015   9.978  0.1889  0.2103 -0.0060
  139SAPE   O1215100   2.246   6.250   9.967  0.5675  0.6507  0.4994
  139SAPE   O1115101   2.381   6.083   9.855  0.3366 -0.2645 -0.4225
  139SAPE    C115102   2.476   6.179   9.803 -0.0454 -0.6636 -0.6401
  139SAPE    HA15103   2.529   6.244   9.876 -0.6873 -1.7016  0.7702
  139SAPE    HB15104   2.557   6.123   9.752  0.9218  0.7690 -0.6893
  139SAPE    C215105   2.415   6.263   9.687  0.4476 -0.2897  0.4740
  139SAPE    HS15106   2.353   6.340   9.739 -3.8874 -1.9415 -1.9797
  139SAPE   O2115107   2.338   6.169   9.608  0.2670 -0.0201  0.3902
  139SAPE   C2115108   2.216   6.215   9.583  0.2043  0.0339 -0.6915
  139SAPE   O2215109   2.177   6.329   9.601  0.1232  0.1639 -0.6369
  139SAPE   C2215110   2.139   6.115   9.498  0.0547  0.1534 -0.4418
  139SAPE   H2R15111   2.115   6.028   9.563 -0.8972 -0.5030 -1.6498
  139SAPE   H2S15112   2.043   6.166   9.472  0.3069  2.3562  2.7310
  139SAPE    C315113   2.517   6.325   9.592 -0.1168 -0.2119  0.0365
  139SAPE    HX15114   2.592   6.249   9.560  0.2225  1.1322 -2.5224
  139SAPE    HY15115   2.573   6.403   9.647 -1.1893  2.8872 -3.0740
  139SAPE   O3115116   2.457   6.379   9.473  0.4329  0.0160 -0.0706
  139SAPE   C3115117   2.414   6.505   9.488 -0.3835  0.1539  0.5673
  139SAPE   O3215118   2.434   6.581   9.583 -0.3689  0.2714  0.3814
  139SAPE   C3215119   2.325   6.533   9.366  0.6492  0.6912  0.3694
  139SAPE   H2X15120   2.229   6.576   9.401  0.2864  0.3995 -0.2439
  139SAPE   H2Y15121   2.306   6.433   9.321 -1.1583  0.1611  2.2558
  139SAPE   C2315122   2.216   6.087   9.370  0.1211 -0.3951 -0.9866
  139SAPE   H3R15123   2.256   5.983   9.374  3.5938  0.8853 -0.2729
  139SAPE   H3S15124   2.307   6.151   9.362 -0.9203  1.1944 -0.2244
  139SAPE   C2415125   2.123   6.085   9.245  0.3195  1.0154 -0.2458
  139SAPE   H4R15126   2.083   6.188   9.240 -2.7048 -0.0339  1.1940
  139SAPE   H4S15127   2.039   6.025   9.286  0.5487  1.1030  0.3567
  139SAPE   C2515128   2.179   6.027   9.119  0.5126  0.5929  0.0136
  139SAPE   H5R15129   2.206   5.921   9.126 -0.9478  0.0616 -1.8135
  139SAPE   C2615130   2.198   6.076   8.998 -0.2968  0.0799  0.4694
  139SAPE   H6R15131   2.266   6.009   8.943 -2.0879 -1.5516  0.1916
  139SAPE   C2715132   2.164   6.214   8.937 -0.4817  0.4795 -0.6591
  139SAPE   H7R15133   2.250   6.284   8.939 -0.1416  0.0515  0.4386
  139SAPE   H7S15134   2.092   6.267   9.003 -1.9977 -2.7754  0.4134
  139SAPE   C2815135   2.111   6.210   8.792  0.5499  0.6512  0.0829
  139SAPE   H8R15136   2.006   6.242   8.781  1.2277  2.9646  0.1703
  139SAPE   C2915137   2.186   6.178   8.686 -0.1943 -0.5157  0.2185
  139SAPE   H9R15138   2.146   6.172   8.584  1.1023 -2.0724 -0.2327
  139SAPE  C21015139   2.327   6.137   8.697  0.0342 -0.3670 -0.2993
  139SAPE  H10R15140   2.358   6.042   8.649  0.2025 -0.4919  0.0593
  139SAPE  H10S15141   2.368   6.122   8.799  0.5967 -0.5830 -0.5565
  139SAPE  C21115142   2.421   6.244   8.653 -0.4459  0.0037  0.5726
  139SAPE  H11R15143   2.471   6.291   8.739  0.6949 -1.2843  0.6261
  139SAPE  C21215144   2.465   6.277   8.530 -0.1468 -0.6533 -0.2883
  139SAPE  H12R15145   2.547   6.350   8.530 -0.0862 -0.7242 -0.6106
  139SAPE  C21315146   2.424   6.207   8.402  0.1371 -0.1268  0.0319
  139SAPE  H13R15147   2.390   6.284   8.330 -2.8916 -0.2893  1.2021
  139SAPE  H13S15148   2.337   6.139   8.413 -0.6088  0.2698 -3.0276
  139SAPE  C21415149   2.534   6.112   8.347 -0.3460  0.0594 -0.0245
  139SAPE  H14R15150   2.543   6.018   8.403 -0.4246 -0.4713 -0.8932
  139SAPE  C21515151   2.615   6.128   8.241 -0.0763  0.3924 -0.5358
  139SAPE  H15R15152   2.681   6.046   8.208 -1.0287  0.1993 -1.9924
  139SAPE  C21615153   2.613   6.254   8.150  0.0342 -0.5439  0.8866
  139SAPE  H16R15154   2.719   6.271   8.121  0.7117 -1.7781  2.5731
  139SAPE  H16S15155   2.588   6.337   8.219 -1.1890 -0.6921  0.6357
  139SAPE  C21715156   2.519   6.257   8.029 -0.5097  0.0716  0.4562
  139SAPE  H17R15157   2.428   6.305   8.071  1.0338  1.3137  2.4665
  139SAPE  H17S15158   2.498   6.153   7.996 -1.3644  0.3188  0.2052
  139SAPE  C21815159   2.564   6.335   7.912  0.1720 -0.5536 -0.4282
  139SAPE  H18R15160   2.485   6.330   7.834 -0.7196 -1.0840  0.4926
  139SAPE  H18S15161   2.656   6.288   7.871  1.3371  1.7310 -0.5041
  139SAPE  C21915162   2.585   6.487   7.936  0.0731 -0.6256  0.2111
  139SAPE  H19R15163   2.659   6.497   8.019  0.0154  0.1007  0.1796
  139SAPE  H19S15164   2.486   6.524   7.971  0.0029 -1.1511  0.5682
  139SAPE  C22015165   2.634   6.572   7.817  0.1503  0.4745  0.4796
  139SAPE  H20R15166   2.554   6.589   7.742 -1.9657  1.5314  2.8864
  139SAPE  H20S15167   2.723   6.530   7.766 -0.7593  0.8045 -1.4290
  139SAPE  H20T15168   2.650   6.676   7.852 -0.0353  0.4335  0.6893
  139SAPE   C3315169   2.398   6.631   9.280 -0.6776  0.0834 -0.2854
  139SAPE   H3X15170   2.412   6.727   9.334 -1.5154 -1.0865  2.0640
  139SAPE   H3Y15171   2.331   6.656   9.196  1.1947  3.2150 -0.9423
  139SAPE   C3415172   2.531   6.591   9.221  0.0925 -0.4795  0.0288
  139SAPE   H4X15173   2.608   6.573   9.298 -0.2673 -2.5547 -0.0836
  139SAPE   H4Y15174   2.567   6.673   9.155  1.4119 -0.1675  1.1233
  139SAPE   C3515175   2.540   6.467   9.135 -0.0955 -0.3057 -0.0227
  139SAPE   H5X15176   2.448   6.466   9.074  1.3652 -1.7361 -2.2854
  139SAPE   H5Y15177   2.537   6.381   9.205  1.8372 -2.1302 -2.1176
  139SAPE   C3615178   2.666   6.444   9.043  0.7797  0.2473  0.1235
  139SAPE   H6X15179   2.656   6.343   8.997 -0.2283  0.3548  0.0962
  139SAPE   H6Y15180   2.751   6.440   9.115  0.1102  2.0748  1.0391
  139SAPE   C3715181   2.690   6.537   8.927 -0.5480  0.0121  0.0569
  139SAPE   H7X15182   2.749   6.624   8.964  1.1290 -1.9418  2.0949
  139SAPE   H7Y15183   2.588   6.571   8.898 -0.4023  1.3131  0.9963
  139SAPE   C3815184   2.752   6.482   8.799  0.0235  0.3689 -0.0150
  139SAPE   H8X15185   2.680   6.413   8.749  1.6561  0.6577 -2.9314
  139SAPE   H8Y15186   2.844   6.425   8.827 -0.3270  0.2344  0.8638
  139SAPE   C3915187   2.789   6.584   8.695 -0.2416 -0.1098  0.1978
  139SAPE   H9X15188   2.875   6.633   8.746 -0.3516 -0.5451  0.8054
  139SAPE   H9Y15189   2.712   6.659   8.668  1.4165  1.6093  0.1106
  139SAPE  C31015190   2.845   6.514   8.573 -0.0659  0.1946 -0.2595
  139SAPE  H10X15191   2.766   6.439   8.548 -0.5034  0.2077  1.0486
  139SAPE  H10Y15192   2.930   6.451   8.607  2.7811  1.7248 -4.1646
  139SAPE  C31115193   2.895   6.611   8.465 -0.7390 -0.0947 -0.1341
  139SAPE  H11X15194   2.990   6.661   8.494 -0.6018 -0.6313  0.3407
  139SAPE  H11Y15195   2.813   6.685   8.456 -0.9429 -0.3889 -0.6955
  139SAPE  C31215196   2.904   6.549   8.326 -0.8810 -0.4088  0.6307
  139SAPE  H12X15197   2.811   6.497   8.293 -1.0109  0.5377 -0.5336
  139SAPE  H12Y15198   2.987   6.475   8.330  0.7872  1.4583  0.8611
  139SAPE  C31315199   2.937   6.663   8.228  0.0763 -0.1599 -0.1369
  139SAPE  H13X15200   3.030   6.716   8.258 -1.0344  1.9253 -0.2600
  139SAPE  H13Y15201   2.854   6.737   8.232  0.7001  0.5362  0.2045
  139SAPE  C31415202   2.962   6.611   8.093 -0.3865  0.3795  0.2271
  139SAPE  H14X15203   2.874   6.548   8.068 -0.0969 -0.7926  2.0895
  139SAPE  H14Y15204   3.051   6.544   8.095 -0.1152  0.7199 -0.4351
  139SAPE  C31515205   2.999   6.727   7.998  0.4761 -0.1666 -0.2167
  139SAPE  H15X15206   3.099   6.760   8.035  1.2682 -1.5353 -1.0525
  139SAPE  H15Y15207   2.925   6.807   8.013 -1.2563 -1.7813  0.0689
  139SAPE  C31615208   3.007   6.686   7.847 -0.0571 -0.0435  1.0436
  139SAPE  H16X15209   3.114   6.681   7.817 -0.1596 -0.2547  0.7042
  139SAPE  H16Y15210   2.960   6.587   7.828 -0.2210  0.3344 -0.5998
  139SAPE  C31715211   2.938   6.793   7.766  0.2092  0.0043 -0.4653
  139SAPE  H17X15212   2.992   6.889   7.782 -1.8628  1.1260  0.0230
  139SAPE  H17Y15213   2.839   6.806   7.816  0.1571 -1.4153 -0.1582
  139SAPE  C31815214   2.919   6.765   7.612  0.2110  0.1571  0.5162
  139SAPE  H18X15215   2.872   6.847   7.555 -1.4400 -2.7940 -2.5608
  139SAPE  H18Y15216   2.866   6.668   7.596 -0.0894  0.1464  1.5388
  139SAPE  H18Z15217   3.021   6.734   7.579 -0.1569  1.2697 -1.7570
  140SAPE     N15218   5.220   1.266  10.177 -0.3482 -0.0804  0.3907
  140SAPE   HN115219   5.196   1.313  10.088 -1.3354 -1.0676  0.1194
  140SAPE   HN215220   5.143   1.203  10.208 -0.6501 -0.4129 -1.0049
  140SAPE   HN315221   5.233   1.342  10.247  1.0917 -1.4383  1.6577
  140SAPE   C1215222   5.360   1.203  10.174  0.0505 -0.3955  0.1917
  140SAPE  H12A15223   5.380   1.147  10.268 -0.2241 -2.2352 -0.8220
  140SAPE  H12B15224   5.430   1.288  10.158  0.3900 -1.2240 -2.9099
  140SAPE   C1115225   5.357   1.102  10.058 -0.0144 -0.3970 -0.1626
  140SAPE  H11A15226   5.447   1.037  10.063  0.8857  0.7923 -0.7290
  140SAPE  H11B15227   5.372   1.163   9.966 -2.1079 -0.9881 -0.9174
  140SAPE     P15228   5.203   0.890  10.086  0.2316  0.1951 -0.1142
  140SAPE   O1315229   5.221   0.904  10.229 -0.3522  0.1930 -0.1118
  140SAPE   O1415230   5.078   0.844  10.039 -0.4680 -0.0339 -0.0166
  140SAPE   O1215231   5.229   1.035  10.030 -0.2924  0.2691 -0.0676
  140SAPE   O1115232   5.328   0.809  10.024 -0.0778 -0.4118  0.6512
  140SAPE    C115233   5.359   0.679  10.084 -0.0098 -0.0085  0.2043
  140SAPE    HA15234   5.449   0.698  10.147  0.5034 -1.8674  0.0534
  140SAPE    HB15235   5.281   0.631  10.146 -1.2225 -0.6467 -1.7678
  140SAPE    C215236   5.401   0.566   9.984  0.1213  0.1538  0.2459
  140SAPE    HS15237   5.441   0.486  10.050 -1.3322 -0.1987  0.7107
  140SAPE   O2115238   5.502   0.627   9.901  0.2425 -0.1528 -0.3032
  140SAPE   C2115239   5.580   0.539   9.847 -0.0488 -0.8720  0.8750
  140SAPE   O2215240   5.575   0.418   9.855 -0.0648  0.4450 -0.3051
  140SAPE   C2215241   5.700   0.620   9.784 -0.4814  0.1050  0.2366
  140SAPE   H2R15242   5.664   0.719   9.751  2.0699  1.8727  2.5353
  140SAPE   H2S15243   5.763   0.631   9.875  1.2260 -0.1922 -0.8823
  140SAPE    C315244   5.284   0.518   9.898  0.3291 -0.2746  0.4951
  140SAPE    HX15245   5.200   0.495   9.967 -0.8248 -0.5946 -0.9844
  140SAPE    HY15246   5.309   0.420   9.852 -1.4364 -0.3694 -0.3051
  140SAPE   O3115247   5.251   0.617   9.798  0.4977 -0.5878  0.4523
  140SAPE   C3115248   5.177   0.574   9.696  0.2469 -0.5521  0.1850
  140SAPE   O3215249   5.110   0.471   9.697 -0.2512 -0.2989  0.1298
  140SAPE   C3215250   5.167   0.682   9.585 -0.3967  0.4742  0.5497
  140SAPE   H2X15251   5.195   0.775   9.640  0.5065 -0.6912  2.1154
  140SAPE   H2Y15252   5.061   0.682   9.553 -0.0621 -1.0762 -0.6005
  140SAPE   C2315253   5.780   0.545   9.675  0.5566  0.3369  0.1275
  140SAPE   H3R15254   5.712   0.539   9.587  1.2679  4.8864 -0.8685
  140SAPE   H3S15255   5.822   0.445   9.700  3.2154  0.6120 -2.8805
  140SAPE   C2415256   5.904   0.619   9.615 -0.3978 -0.5409 -0.3311
  140SAPE   H4R15257   5.956   0.542   9.554  0.3679  0.6880 -1.2343
  140SAPE   H4S15258   5.964   0.653   9.702 -0.5620 -0.0663 -0.4052
  140SAPE   C2515259   5.863   0.733   9.531  1.3012 -0.4158 -0.0501
  140SAPE   H5R15260   5.844   0.827   9.585  1.5124 -1.1423  1.3118
  140SAPE   C2615261   5.845   0.718   9.395  0.1448  0.3788  0.0490
  140SAPE   H6R15262   5.831   0.811   9.337 -0.0485 -0.0503 -0.6005
  140SAPE   C2715263   5.855   0.591   9.310  0.3677  0.1350  0.3360
  140SAPE   H7R15264   5.876   0.496   9.363  1.8391  0.0412 -0.4162
  140SAPE   H7S15265   5.934   0.605   9.233 -1.5757  0.2233 -1.6919
  140SAPE   C2815266   5.719   0.570   9.242 -0.7449  0.5960  0.1696
  140SAPE   H8R15267   5.640   0.542   9.313  0.7538 -1.9026  0.8848
  140SAPE   C2915268   5.676   0.599   9.116  0.5529 -0.4806 -0.3301
  140SAPE   H9R15269   5.569   0.591   9.091  0.2634  1.6781  0.0903
  140SAPE  C21015270   5.768   0.668   9.012  0.7463 -0.3492  0.0453
  140SAPE  H10R15271   5.724   0.652   8.911  1.2799  0.7946 -0.3809
  140SAPE  H10S15272   5.865   0.614   9.012  1.1115  0.3016 -0.2429
  140SAPE  C21115273   5.801   0.817   9.038 -0.6951  0.2267 -0.4491
  140SAPE  H11R15274   5.853   0.843   9.131 -0.1330 -0.5882 -0.5322
  140SAPE  C21215275   5.759   0.913   8.955 -0.4329 -0.4032  0.4276
  140SAPE  H12R15276   5.772   1.018   8.986  1.7754 -0.1705 -1.1048
  140SAPE  C21315277   5.672   0.900   8.825  0.3213 -0.3234 -0.9426
  140SAPE  H13R15278   5.620   0.804   8.809 -0.3730  0.2393 -2.1125
  140SAPE  H13S15279   5.737   0.916   8.736  1.2659 -2.5246 -0.6862
  140SAPE  C21415280   5.582   1.024   8.819  0.0649  0.5131  0.1640
  140SAPE  H14R15281   5.614   1.108   8.754 -2.2196  0.2403 -1.3509
  140SAPE  C21515282   5.465   1.049   8.883  1.0996  0.2414  0.1419
  140SAPE  H15R15283   5.395   1.127   8.848 -0.5443 -0.3351  2.0331
  140SAPE  C21615284   5.402   0.946   8.975  0.6200  0.3342 -0.4856
  140SAPE  H16R15285   5.356   0.989   9.067 -0.8010  0.8184 -1.4008
  140SAPE  H16S15286   5.484   0.877   9.001 -0.2565 -0.2941  0.6848
  140SAPE  C21715287   5.291   0.841   8.930 -1.2107  0.2131 -0.7860
  140SAPE  H17R15288   5.324   0.744   8.972  0.1441  0.6186 -0.9074
  140SAPE  H17S15289   5.295   0.840   8.819 -2.4630 -0.5020 -0.8309
  140SAPE  C21815290   5.153   0.883   8.971 -1.0055  0.5287 -0.2852
  140SAPE  H18R15291   5.146   0.871   9.082 -2.4032  1.2676 -0.2820
  140SAPE  H18S15292   5.080   0.814   8.924 -2.1815  1.0564  0.7395
  140SAPE  C21915293   5.109   1.020   8.934  0.5022  0.7023  0.7719
  140SAPE  H19R15294   5.182   1.094   8.973 -0.2721  1.0112  1.6376
  140SAPE  H19S15295   5.011   1.035   8.982  0.1691 -4.6245  2.0668
  140SAPE  C22015296   5.083   1.057   8.784 -0.1294 -0.4204  0.0576
  140SAPE  H20R15297   5.052   1.164   8.776 -0.0769 -0.2987  1.4008
  140SAPE  H20S15298   5.014   0.980   8.742 -0.8436 -0.5137  1.3559
  140SAPE  H20T15299   5.173   1.045   8.720  1.2202 -0.3981  1.9142
  140SAPE   C3315300   5.247   0.652   9.458 -0.4796  0.4226  0.5005
  140SAPE   H3X15301   5.232   0.731   9.381 -0.4967 -0.6343 -0.5805
  140SAPE   H3Y15302   5.214   0.556   9.414 -0.0736  0.1649  0.7528
  140SAPE   C3415303   5.406   0.646   9.488  0.1639  0.5655  0.1636
  140SAPE   H4X15304   5.463   0.605   9.401 -0.6175  0.5640 -0.3506
  140SAPE   H4Y15305   5.420   0.579   9.576 -1.5605 -0.2854 -0.1990
  140SAPE   C3515306   5.474   0.782   9.518  0.1104  0.9224 -0.1644
  140SAPE   H5X15307   5.582   0.761   9.528 -0.3410 -1.7107 -0.4283
  140SAPE   H5Y15308   5.425   0.825   9.609 -3.4711 -0.9786 -1.0922
  140SAPE   C3615309   5.450   0.883   9.408 -0.5288 -0.1689  0.4517
  140SAPE   H6X15310   5.341   0.899   9.394 -0.5899 -1.2933 -0.4331
  140SAPE   H6Y15311   5.487   0.837   9.314 -2.1558  1.0098 -0.7855
  140SAPE   C3715312   5.529   1.018   9.435 -0.1976  0.9643  0.1813
  140SAPE   H7X15313   5.635   0.987   9.429  0.0521  2.1918 -2.1398
  140SAPE   H7Y15314   5.508   1.057   9.537 -0.3775 -1.3967  1.0929
  140SAPE   C3815315   5.488   1.129   9.332 -0.1236 -0.1188  0.1802
  140SAPE   H8X15316   5.400   1.169   9.385  0.8185  0.3141  1.4478
  140SAPE   H8Y15317   5.461   1.076   9.238 -0.4392 -1.4136  0.9926
  140SAPE   C3915318   5.601   1.225   9.296 -0.5241  0.0950 -0.7189
  140SAPE   H9X15319   5.680   1.164   9.246 -0.5883 -1.4889  1.0710
  140SAPE   H9Y15320   5.647   1.256   9.392 -0.8816 -0.6034 -0.3218
  140SAPE  C31015321   5.553   1.342   9.217 -0.9593 -0.0387 -0.2648
  140SAPE  H10X15322   5.642   1.404   9.194  0.5888 -1.0686  2.6289
  140SAPE  H10Y15323   5.481   1.396   9.282  1.2345 -0.1961  2.3999
  140SAPE  C31115324   5.503   1.316   9.074  0.0569 -0.1918 -0.3546
  140SAPE  H11X15325   5.440   1.225   9.073  2.2593 -1.7577 -1.3157
  140SAPE  H11Y15326   5.593   1.304   9.010  0.4887 -0.7891  0.3544
  140SAPE  C31215327   5.431   1.440   9.018 -0.5791  0.2039  0.6939
  140SAPE  H12X15328   5.496   1.530   9.018 -0.2826  0.0476  3.9233
  140SAPE  H12Y15329   5.349   1.464   9.088 -2.2052 -1.0151 -0.7593
  140SAPE  C31315330   5.382   1.433   8.874 -0.0694  0.1341 -0.1628
  140SAPE  H13X15331   5.325   1.524   8.845  0.3584  0.3738 -0.2656
  140SAPE  H13Y15332   5.313   1.348   8.853 -0.9183  0.5316  0.9802
  140SAPE  C31415333   5.508   1.418   8.785  0.4756  0.5318  0.1199
  140SAPE  H14X15334   5.565   1.326   8.809 -0.3271  0.2965  1.1550
  140SAPE  H14Y15335   5.582   1.498   8.803  2.4269 -0.9854 -0.9948
  140SAPE  C31515336   5.465   1.417   8.644  0.1829 -0.7088 -0.3911
  140SAPE  H15X15337   5.377   1.351   8.628 -0.2479  0.4534 -3.1728
  140SAPE  H15Y15338   5.548   1.380   8.580 -1.0635 -0.3081 -2.3225
  140SAPE  C31615339   5.413   1.548   8.585 -0.1659 -0.5603  0.0932
  140SAPE  H16X15340   5.495   1.624   8.586 -1.8834  1.3222  1.8189
  140SAPE  H16Y15341   5.326   1.588   8.641 -0.3684  1.1097 -1.3513
  140SAPE  C31715342   5.370   1.530   8.438 -0.1067  0.4570 -0.7478
  140SAPE  H17X15343   5.289   1.454   8.426 -1.3033  1.5509  0.2229
  140SAPE  H17Y15344   5.452   1.487   8.377  0.8306 -0.8390  1.3695
  140SAPE  C31815345   5.324   1.660   8.380 -0.2222  0.3562 -0.7289
  140SAPE  H18X15346   5.293   1.641   8.275  0.5744 -1.5716 -0.6207
  140SAPE  H18Y15347   5.412   1.728   8.382  0.1640 -0.1063 -1.5077
  140SAPE  H18Z15348   5.233   1.699   8.430 -0.8325 -1.7169 -0.1998
  141SAPE     N15349   6.121   2.938  10.415  0.3629 -0.2945 -0.4767
  141SAPE   HN115350   6.057   2.878  10.359  1.9352 -0.7612 -1.8095
  141SAPE   HN215351   6.197   2.879  10.453  1.6094  0.8191 -1.1746
  141SAPE   HN315352   6.069   2.987  10.490  0.3372  1.1834 -1.4295
  141SAPE   C1215353   6.182   3.038  10.323 -0.6671  0.0892 -0.1171
  141SAPE  H12A15354   6.249   3.105  10.381  0.0388 -0.4191 -0.3273
  141SAPE  H12B15355   6.099   3.102  10.288 -1.1508 -0.6248 -0.2971
  141SAPE   C1115356   6.267   2.975  10.206  0.8352 -0.4153 -0.2101
  141SAPE  H11A15357   6.366   2.938  10.242  1.3289 -1.0418 -2.1576
  141SAPE  H11B15358   6.297   3.055  10.135 -2.2469  0.8476 -0.1573
  141SAPE     P15359   6.154   2.880   9.981  0.4166 -0.4814  0.1452
  141SAPE   O1315360   6.088   2.750   9.960 -0.8093  0.9521 -0.1018
  141SAPE   O1415361   6.073   3.007   9.976  0.3369 -0.9880 -0.3535
  141SAPE   O1215362   6.192   2.871  10.138  0.8479  0.2179 -0.1336
  141SAPE   O1115363   6.301   2.897   9.930 -0.7264  0.1400 -0.4064
  141SAPE    C115364   6.376   2.777   9.876  0.7216  0.3177  0.4014
  141SAPE    HA15365   6.324   2.681   9.895 -1.0604  0.5469 -2.9639
  141SAPE    HB15366   6.385   2.800   9.768  2.4096 -0.7987  0.2848
  141SAPE    C215367   6.519   2.772   9.926  0.5359 -0.9275 -0.1972
  141SAPE    HS15368   6.507   2.774  10.036  2.1876 -0.3455 -0.0151
  141SAPE   O2115369   6.587   2.894   9.871 -0.1993 -0.1297 -0.3704
  141SAPE   C2115370   6.707   2.911   9.922  0.0641  0.4008  0.7108
  141SAPE   O2215371   6.754   2.862  10.025 -0.0987  0.5360  0.3548
  141SAPE   C2215372   6.779   3.004   9.833  0.3300  0.2489 -0.3990
  141SAPE   H2R15373   6.720   3.056   9.754 -0.2528  3.7175  2.1726
  141SAPE   H2S15374   6.822   3.079   9.903  0.1530 -1.5590  1.6912
  141SAPE    C315375   6.596   2.639   9.892 -0.0772  0.6603 -0.0079
  141SAPE    HX15376   6.533   2.560   9.937 -1.6827  2.1065  0.3396
  141SAPE    HY15377   6.694   2.634   9.945 -0.2560  1.9110  0.4606
  141SAPE   O3115378   6.601   2.628   9.749 -0.2816  1.3600 -0.5224
  141SAPE   C3115379   6.719   2.579   9.697  0.7529 -0.1759 -0.1719
  141SAPE   O3215380   6.819   2.541   9.753  0.1798  0.2745 -0.9861
  141SAPE   C3215381   6.696   2.565   9.539 -0.0710  0.9157 -0.3928
  141SAPE   H2X15382   6.594   2.601   9.517 -1.0221 -2.0965 -1.1089
  141SAPE   H2Y15383   6.701   2.462   9.498 -2.2013  0.6831 -0.0822
  141SAPE   C2315384   6.907   2.930   9.772  0.2655 -0.2372  0.7176
  141SAPE   H3R15385   6.889   2.821   9.757  1.5745 -0.6380  1.9571
  141SAPE   H3S15386   6.991   2.943   9.843  1.2844  2.3330 -0.8892
  141SAPE   C2415387   6.949   2.978   9.629 -0.3201 -0.3114 -0.2241
  141SAPE   H4R15388   6.855   2.971   9.570  0.2340 -2.3307 -0.8849
  141SAPE   H4S15389   7.025   2.905   9.594 -0.1299 -0.6900  0.9563
  141SAPE   C2515390   7.002   3.126   9.626  0.2588 -0.0877  0.2143
  141SAPE   H5R15391   7.063   3.159   9.711 -1.1274  0.9438  0.8275
  141SAPE   C2615392   6.963   3.215   9.537  0.3589 -0.2741 -0.0706
  141SAPE   H6R15393   6.998   3.316   9.561  1.4165 -0.8858  1.0054
  141SAPE   C2715394   6.869   3.202   9.421 -0.0923 -0.5992 -0.3004
  141SAPE   H7R15395   6.779   3.268   9.421 -2.9055 -4.2983 -1.7797
  141SAPE   H7S15396   6.824   3.101   9.430  0.2303 -0.6501  0.8064
  141SAPE   C2815397   6.950   3.211   9.293  0.2420 -0.4353  0.6138
  141SAPE   H8R15398   7.053   3.250   9.305 -1.1147  3.0826  1.3261
  141SAPE   C2915399   6.916   3.166   9.172  0.6873  0.1628 -0.1181
  141SAPE   H9R15400   6.975   3.200   9.085  1.1817 -0.3423  0.0190
  141SAPE  C21015401   6.791   3.095   9.132 -0.3895  0.3679  0.2688
  141SAPE  H10R15402   6.736   3.040   9.211 -0.7858 -0.8440 -0.8336
  141SAPE  H10S15403   6.813   3.005   9.070 -1.8702 -0.8423  1.4604
  141SAPE  C21115404   6.709   3.189   9.047  0.6451  0.3480 -0.1376
  141SAPE  H11R15405   6.729   3.294   9.075 -2.0368  0.7042  0.6054
  141SAPE  C21215406   6.628   3.165   8.945 -0.3842 -0.0647  0.1299
  141SAPE  H12R15407   6.562   3.248   8.916  0.1086  0.8384  1.5641
  141SAPE  C21315408   6.592   3.021   8.889 -0.4651 -0.1161 -0.5787
  141SAPE  H13R15409   6.518   2.968   8.952 -0.9523  0.9582 -0.2409
  141SAPE  H13S15410   6.682   2.956   8.896 -0.2058  0.4230  1.5108
  141SAPE  C21415411   6.535   3.040   8.753 -0.7057 -0.3125  0.2818
  141SAPE  H14R15412   6.428   3.067   8.750 -0.2244  1.4284 -3.1416
  141SAPE  C21515413   6.596   3.006   8.632 -0.3344  0.1103  0.4360
  141SAPE  H15R15414   6.538   3.024   8.540  1.4705 -0.7612 -0.8934
  141SAPE  C21615415   6.732   2.949   8.611  0.0176 -0.4731  0.1119
  141SAPE  H16R15416   6.737   2.853   8.555  1.6022  0.9833 -2.3476
  141SAPE  H16S15417   6.776   2.935   8.712 -1.1518  0.7150  0.7938
  141SAPE  C21715418   6.819   3.050   8.536  0.3305 -0.5418 -0.6153
  141SAPE  H17R15419   6.775   3.085   8.440  2.5278  1.4424 -0.9554
  141SAPE  H17S15420   6.916   2.998   8.523  0.9865  0.2691  0.9634
  141SAPE  C21815421   6.853   3.173   8.629 -0.4815 -0.0062 -0.1550
  141SAPE  H18R15422   6.868   3.137   8.733  0.1979 -0.8701 -0.5412
  141SAPE  H18S15423   6.763   3.237   8.617  0.7017  1.4821 -1.3207
  141SAPE  C21915424   6.973   3.264   8.588 -0.3943  0.6851 -0.0928
  141SAPE  H19R15425   6.979   3.287   8.480  2.5786 -0.2392 -0.1674
  141SAPE  H19S15426   7.065   3.202   8.597  0.1539  1.2321 -1.8665
  141SAPE  C22015427   6.982   3.392   8.651  0.5542  0.7084  0.0402
  141SAPE  H20R15428   7.006   3.389   8.759 -0.9929  1.0424  0.4147
  141SAPE  H20S15429   6.885   3.442   8.629  1.3662  1.5318 -1.8186
  141SAPE  H20T15430   7.064   3.454   8.608  1.5704 -0.2784  0.5576
  141SAPE   C3315431   6.799   2.642   9.447  0.2367  0.1745  1.1609
  141SAPE   H3X15432   6.902   2.601   9.456 -0.6902 -2.0907  1.7692
  141SAPE   H3Y15433   6.787   2.751   9.469  0.3569  0.5384 -0.5189
  141SAPE   C3415434   6.763   2.618   9.304 -0.4910 -1.3169  0.2981
  141SAPE   H4X15435   6.655   2.630   9.285 -0.3344 -0.9337 -0.3452
  141SAPE   H4Y15436   6.799   2.517   9.274 -0.2207 -1.3507  0.7242
  141SAPE   C3515437   6.838   2.713   9.207  0.9337 -0.2176 -0.0915
  141SAPE   H5X15438   6.941   2.674   9.189  1.3464  0.1161  1.4491
  141SAPE   H5Y15439   6.848   2.819   9.239 -0.2166 -0.9745  2.8998
  141SAPE   C3615440   6.774   2.714   9.065  0.1850 -0.0032  1.3901
  141SAPE   H6X15441   6.804   2.809   9.015  2.0338 -0.1152  2.2149
  141SAPE   H6Y15442   6.664   2.700   9.070 -0.0993  1.6926  0.2733
  141SAPE   C3715443   6.830   2.614   8.957  0.2507 -0.2778 -0.1968
  141SAPE   H7X15444   6.814   2.511   8.996 -0.6807 -0.7886 -1.8794
  141SAPE   H7Y15445   6.940   2.625   8.947  0.0763 -0.2377 -2.2158
  141SAPE   C3815446   6.760   2.619   8.824  0.2953 -0.0213  0.4171
  141SAPE   H8X15447   6.773   2.722   8.783 -1.4541 -1.4031 -3.9445
  141SAPE   H8Y15448   6.652   2.602   8.842  0.2432  0.9870  1.0679
  141SAPE   C3915449   6.816   2.513   8.725 -0.2814 -0.2763 -0.5040
  141SAPE   H9X15450   6.730   2.498   8.656 -0.4450 -1.5049 -0.0494
  141SAPE   H9Y15451   6.820   2.410   8.766 -0.0286  0.4884  1.4411
  141SAPE  C31015452   6.934   2.559   8.641 -0.5632 -0.6259  0.3020
  141SAPE  H10X15453   7.020   2.567   8.710 -0.3740  2.5835 -0.2405
  141SAPE  H10Y15454   6.921   2.663   8.604  0.6611 -0.3373  0.6769
  141SAPE  C31115455   6.957   2.469   8.520  0.6333 -0.5935  0.2221
  141SAPE  H11X15456   6.938   2.365   8.554  0.7105 -0.5805  0.3081
  141SAPE  H11Y15457   7.059   2.474   8.475 -0.6559  0.9820 -2.7130
  141SAPE  C31215458   6.866   2.492   8.397  0.3906  0.4264  0.4607
  141SAPE  H12X15459   6.761   2.482   8.432  0.5391  1.6636  1.3068
  141SAPE  H12Y15460   6.892   2.420   8.316  1.1603 -0.0499  1.1253
  141SAPE  C31315461   6.884   2.630   8.327  0.1844  0.1278 -0.4668
  141SAPE  H13X15462   6.993   2.641   8.308 -0.1610 -0.6112 -2.9967
  141SAPE  H13Y15463   6.849   2.706   8.401  1.2177 -1.0134  1.2315
  141SAPE  C31415464   6.802   2.648   8.196 -0.3689 -0.7514 -0.0458
  141SAPE  H14X15465   6.702   2.608   8.222  0.6633 -2.1628  1.8927
  141SAPE  H14Y15466   6.839   2.582   8.115 -0.6475  0.6391 -1.3378
  141SAPE  C31515467   6.802   2.789   8.145  0.4697 -0.3473  0.5672
  141SAPE  H15X15468   6.758   2.853   8.224 -1.2568  0.5776 -1.1037
  141SAPE  H15Y15469   6.732   2.786   8.059  0.3437 -0.1754  0.6646
  141SAPE  C31615470   6.936   2.853   8.111 -0.4315  0.3824  0.0947
  141SAPE  H16X15471   6.997   2.802   8.034  0.0229  2.8432 -1.2437
  141SAPE  H16Y15472   6.988   2.846   8.209  1.2026  1.4615 -0.6701
  141SAPE  C31715473   6.920   3.002   8.065  0.7011 -0.4395 -0.4908
  141SAPE  H17X15474   7.025   3.035   8.047  0.9126 -0.4550  0.6874
  141SAPE  H17Y15475   6.893   3.066   8.152 -0.1754  1.4538 -2.1206
  141SAPE  C31815476   6.835   3.030   7.937 -0.0269  0.3743 -0.5074
  141SAPE  H18X15477   6.873   2.971   7.850 -0.2579 -0.4565 -0.0500
  141SAPE  H18Y15478   6.831   3.136   7.903  0.1584  0.4146 -0.4072
  141SAPE  H18Z15479   6.736   2.988   7.965  0.1742 -1.7758 -2.7764
  142SAPE     N15480   6.780   2.003  10.127 -0.2040  0.4526 -0.1383
  142SAPE   HN115481   6.814   2.044  10.037  2.9605 -1.3792  0.1528
  142SAPE   HN215482   6.845   2.027  10.205 -0.9154 -0.5326  0.7725
  142SAPE   HN315483   6.799   1.901  10.121 -1.5485  0.0009  2.7825
  142SAPE   C1215484   6.642   2.039  10.159  0.5744  0.6217  0.1433
  142SAPE  H12A15485   6.635   2.147  10.182 -0.1339  0.1154  2.3656
  142SAPE  H12B15486   6.618   1.991  10.256 -0.5949 -3.4917 -2.0381
  142SAPE   C1115487   6.542   1.994  10.049  0.4175  0.3862  0.0014
  142SAPE  H11A15488   6.581   2.045   9.958 -2.3432  1.7275 -0.5027
  142SAPE  H11B15489   6.442   2.040  10.064 -0.3197 -1.3977  0.7290
  142SAPE     P15490   6.481   1.772   9.905 -0.4333 -0.3058  0.4411
  142SAPE   O1315491   6.531   1.631   9.916 -0.1525 -0.0763 -0.2453
  142SAPE   O1415492   6.336   1.781   9.915  0.2248  0.6694  0.1074
  142SAPE   O1215493   6.543   1.848  10.025  0.0827  0.7421 -1.0732
  142SAPE   O1115494   6.538   1.842   9.781 -0.1778  0.1495 -0.1336
  142SAPE    C115495   6.677   1.855   9.760 -0.1401  0.2625  0.6975
  142SAPE    HA15496   6.718   1.948   9.806  3.9666 -0.6611 -0.9222
  142SAPE    HB15497   6.742   1.781   9.810  1.4918  0.4105 -1.1314
  142SAPE    C215498   6.724   1.855   9.612 -0.5347 -0.6422 -0.5409
  142SAPE    HS15499   6.822   1.904   9.596 -1.3770  1.3616  0.1266
  142SAPE   O2115500   6.626   1.924   9.531 -0.3638 -0.3431 -0.0992
  142SAPE   C2115501   6.615   2.053   9.548 -0.0755 -0.2112 -0.0886
  142SAPE   O2215502   6.676   2.120   9.633  0.5758 -0.3271 -0.2463
  142SAPE   C2215503   6.499   2.110   9.464  0.3375 -0.7166 -0.5107
  142SAPE   H2R15504   6.457   2.023   9.408  1.9233 -1.9539  0.1549
  142SAPE   H2S15505   6.424   2.160   9.527  3.2193 -1.6273  3.8663
  142SAPE    C315506   6.736   1.711   9.554 -0.5480  0.3766  0.0352
  142SAPE    HX15507   6.641   1.662   9.584 -1.4087  2.9509  1.7561
  142SAPE    HY15508   6.813   1.665   9.620 -1.0685 -2.5715 -1.3471
  142SAPE   O3115509   6.775   1.703   9.412  0.2413 -0.4888  0.0390
  142SAPE   C3115510   6.753   1.592   9.368 -0.5954 -0.2552  1.1666
  142SAPE   O3215511   6.703   1.501   9.431  0.3041  0.1294 -0.1479
  142SAPE   C3215512   6.813   1.578   9.226 -0.1716  0.4136  0.0456
  142SAPE   H2X15513   6.911   1.630   9.229 -0.1807  0.3856  1.4828
  142SAPE   H2Y15514   6.745   1.631   9.156 -1.5802 -2.0199 -0.4940
  142SAPE   C2315515   6.544   2.204   9.348 -0.6617 -0.0903 -0.4580
  142SAPE   H3R15516   6.651   2.182   9.331 -1.5506 -3.7110 -1.6784
  142SAPE   H3S15517   6.519   2.309   9.376 -0.5136 -0.8648  2.7720
  142SAPE   C2415518   6.490   2.166   9.207  0.3167 -0.3504  0.6095
  142SAPE   H4R15519   6.379   2.169   9.211  0.3676  1.6858  0.8320
  142SAPE   H4S15520   6.527   2.067   9.173  2.1256  0.1914  0.9677
  142SAPE   C2515521   6.545   2.271   9.116 -0.2310  0.2476  0.2415
  142SAPE   H5R15522   6.501   2.371   9.102 -2.3914 -0.7436 -0.1793
  142SAPE   C2615523   6.650   2.253   9.030 -1.6892  0.4249 -0.3948
  142SAPE   H6R15524   6.684   2.338   8.968  0.9573 -0.8327 -0.7360
  142SAPE   C2715525   6.733   2.125   9.006 -0.0171  0.2266 -0.3150
  142SAPE   H7R15526   6.662   2.042   8.986  1.6873 -1.4449  0.4607
  142SAPE   H7S15527   6.773   2.089   9.103 -0.3373  1.3171  0.2291
  142SAPE   C2815528   6.844   2.126   8.905 -0.2675 -0.5738 -0.1521
  142SAPE   H8R15529   6.933   2.185   8.931 -0.4467 -0.7012  0.7511
  142SAPE   C2915530   6.846   2.073   8.782  0.0148  0.1423  0.6603
  142SAPE   H9R15531   6.928   2.110   8.718 -0.3973 -0.0445  0.0139
  142SAPE  C21015532   6.728   1.999   8.722  0.1047  0.3631  0.8372
  142SAPE  H10R15533   6.637   2.029   8.778 -0.8610 -1.1873  0.1318
  142SAPE  H10S15534   6.726   1.894   8.757 -1.9365 -0.2486 -1.0329
  142SAPE  C21115535   6.701   2.011   8.575 -0.0878  0.2589 -0.5045
  142SAPE  H11R15536   6.730   1.924   8.514 -0.6257  0.1364 -0.5941
  142SAPE  C21215537   6.651   2.121   8.517 -0.0064 -0.0709  0.2252
  142SAPE  H12R15538   6.644   2.115   8.407  1.7862  2.1376 -0.0610
  142SAPE  C21315539   6.607   2.251   8.575  0.6759 -0.1463 -0.0066
  142SAPE  H13R15540   6.599   2.328   8.495 -2.2077 -0.4726 -0.1057
  142SAPE  H13S15541   6.693   2.285   8.636  0.8610 -1.9993  0.8130
  142SAPE  C21415542   6.479   2.255   8.657 -0.1047 -0.6797  0.7241
  142SAPE  H14R15543   6.454   2.160   8.706 -0.8128 -1.1467 -0.5064
  142SAPE  C21515544   6.406   2.365   8.686 -0.1082  0.0083 -0.0121
  142SAPE  H15R15545   6.314   2.355   8.744 -0.3441 -0.3752 -0.4554
  142SAPE  C21615546   6.435   2.511   8.645 -0.6486  0.1912  0.2549
  142SAPE  H16R15547   6.516   2.517   8.570  0.0310 -2.8767  0.6531
  142SAPE  H16S15548   6.465   2.571   8.734 -0.2529  1.1836 -0.5356
  142SAPE  C21715549   6.324   2.586   8.574  0.2449 -0.5202  0.6502
  142SAPE  H17R15550   6.233   2.572   8.635 -1.3407  1.8016 -1.1071
  142SAPE  H17S15551   6.314   2.525   8.482 -3.1646 -0.1011  0.6938
  142SAPE  C21815552   6.367   2.726   8.538  0.0144 -0.3281  0.1419
  142SAPE  H18R15553   6.467   2.722   8.490  1.0941 -2.8209  2.4568
  142SAPE  H18S15554   6.383   2.790   8.627 -0.4135  1.4088 -0.9968
  142SAPE  C21915555   6.261   2.799   8.439 -0.2309  0.3218  0.5267
  142SAPE  H19R15556   6.160   2.786   8.484 -1.4779  1.2043 -1.9073
  142SAPE  H19S15557   6.263   2.741   8.344 -1.0261 -1.0131  1.3179
  142SAPE  C22015558   6.282   2.948   8.420 -0.6656 -0.2443 -0.2785
  142SAPE  H20R15559   6.378   2.963   8.365  1.6643 -1.1302  3.4061
  142SAPE  H20S15560   6.273   3.009   8.512  0.8839 -3.1491  1.8714
  142SAPE  H20T15561   6.199   2.983   8.354 -0.9506 -2.2862 -1.0381
  142SAPE   C3315562   6.841   1.438   9.171 -0.2689 -0.4956 -0.6061
  142SAPE   H3X15563   6.753   1.371   9.170 -0.9152  0.2991  1.3131
  142SAPE   H3Y15564   6.908   1.395   9.248 -0.2391  0.8405  0.1325
  142SAPE   C3415565   6.913   1.433   9.034 -0.4586  1.2227  0.5065
  142SAPE   H4X15566   6.959   1.332   9.029 -1.4221  0.7828  0.4225
  142SAPE   H4Y15567   6.989   1.514   9.042 -0.0487  0.7935  1.0335
  142SAPE   C3515568   6.820   1.461   8.919 -0.2515  0.0221 -0.8224
  142SAPE   H5X15569   6.724   1.511   8.942 -1.6011 -2.1162 -1.5990
  142SAPE   H5Y15570   6.782   1.361   8.888 -0.8512 -0.1780  0.5092
  142SAPE   C3615571   6.885   1.539   8.809 -0.5283 -0.2474 -0.1438
  142SAPE   H6X15572   6.978   1.488   8.777 -0.9835  0.3284 -2.4800
  142SAPE   H6Y15573   6.901   1.642   8.845 -3.9259  0.4261 -0.3409
  142SAPE   C3715574   6.791   1.546   8.680 -0.2491  0.1335  0.2156
  142SAPE   H7X15575   6.685   1.571   8.705 -0.2205  0.2708  0.2014
  142SAPE   H7Y15576   6.797   1.443   8.637  0.9195  0.4389 -0.3578
  142SAPE   C3815577   6.839   1.649   8.567 -0.1610 -0.3377  0.2296
  142SAPE   H8X15578   6.945   1.623   8.546 -0.4253 -1.6684  0.4719
  142SAPE   H8Y15579   6.827   1.750   8.610 -0.1528 -0.9542  1.6946
  142SAPE   C3915580   6.766   1.636   8.429  0.2071  1.1025 -0.6048
  142SAPE   H9X15581   6.782   1.531   8.396  0.3116  0.9874 -0.1991
  142SAPE   H9Y15582   6.786   1.716   8.356  5.1434  0.1457 -0.5057
  142SAPE  C31015583   6.610   1.653   8.442 -0.1203  0.3260  0.2733
  142SAPE  H10X15584   6.589   1.756   8.478  0.8725  1.0599 -1.1976
  142SAPE  H10Y15585   6.581   1.574   8.515  0.3342 -0.4648 -0.3975
  142SAPE  C31115586   6.540   1.621   8.311 -0.6115  0.1260 -0.6633
  142SAPE  H11X15587   6.589   1.527   8.280  1.0621  0.6856  0.2080
  142SAPE  H11Y15588   6.580   1.694   8.236  0.9457  1.6737  1.5992
  142SAPE  C31215589   6.392   1.604   8.302  0.0200 -0.2833  0.1870
  142SAPE  H12X15590   6.342   1.703   8.313 -0.0620 -0.4807  1.7646
  142SAPE  H12Y15591   6.359   1.543   8.389 -1.1649 -1.9191 -1.3737
  142SAPE  C31315592   6.357   1.535   8.168  0.4754  0.1427 -0.1716
  142SAPE  H13X15593   6.261   1.481   8.182 -0.1006  1.0473 -0.5607
  142SAPE  H13Y15594   6.432   1.463   8.130  1.2414  1.3169 -0.9436
  142SAPE  C31415595   6.334   1.646   8.053 -0.6743 -0.3107 -0.4815
  142SAPE  H14X15596   6.424   1.707   8.076 -2.0475  1.3828  0.4818
  142SAPE  H14Y15597   6.248   1.694   8.102 -0.5838 -1.8743  1.2674
  142SAPE  C31515598   6.315   1.596   7.914 -0.3153  0.3809  0.1798
  142SAPE  H15X15599   6.234   1.520   7.908  1.2877 -1.3592  0.1684
  142SAPE  H15Y15600   6.411   1.546   7.888  0.4929  1.6661  0.6641
  142SAPE  C31615601   6.300   1.719   7.820 -0.2675  0.1870  0.6969
  142SAPE  H16X15602   6.213   1.783   7.846  0.1824  0.1700  2.2458
  142SAPE  H16Y15603   6.279   1.671   7.722  3.4215 -1.6791  0.7250
  142SAPE  C31715604   6.429   1.805   7.793  0.5939 -0.4143  0.0886
  142SAPE  H17X15605   6.517   1.744   7.764  0.0687 -0.8863 -0.5141
  142SAPE  H17Y15606   6.447   1.852   7.892 -1.6813  0.0576  0.2945
  142SAPE  C31815607   6.405   1.910   7.685  0.1474  0.4616 -0.5375
  142SAPE  H18X15608   6.502   1.961   7.667  0.8316 -0.7984 -0.4405
  142SAPE  H18Y15609   6.316   1.973   7.708 -0.4801 -0.2208 -1.0417
  142SAPE  H18Z15610   6.392   1.861   7.586  1.9067  1.1053 -1.1016
  143SAPE     N15611   1.771   1.528   9.967 -0.3280  0.6412 -0.4263
  143SAPE   HN115612   1.863   1.533  10.017 -0.7832 -0.8939  0.5880
  143SAPE   HN215613   1.778   1.577   9.875 -0.4359 -0.1750 -0.8731
  143SAPE   HN315614   1.699   1.578  10.022 -1.1064  0.5787 -1.3744
  143SAPE   C1215615   1.727   1.384   9.941 -0.1567 -0.3380  0.4756
  143SAPE  H12A15616   1.704   1.336  10.039  0.1583 -1.9385 -0.2129
  143SAPE  H12B15617   1.814   1.325   9.903  0.9569  0.3838  1.8560
  143SAPE   C1115618   1.612   1.367   9.845 -0.1565 -0.4067 -0.1678
  143SAPE  H11A15619   1.595   1.260   9.821  0.2458 -0.3488 -0.7379
  143SAPE  H11B15620   1.645   1.405   9.746 -0.9999  1.2078  0.1611
  143SAPE     P15621   1.384   1.358   9.962 -0.5131 -0.1860  0.2177
  143SAPE   O1315622   1.439   1.225   9.979 -0.1627  0.7009  0.1639
  143SAPE   O1415623   1.322   1.415  10.082 -0.9211  0.1285 -0.3500
  143SAPE   O1215624   1.495   1.444   9.892  0.2558 -0.7706 -0.3145
  143SAPE   O1115625   1.276   1.350   9.854  0.8086 -0.1509  0.3514
  143SAPE    C115626   1.272   1.286   9.730  0.1340 -0.0284 -0.5398
  143SAPE    HA15627   1.260   1.364   9.651  0.8602  0.3558 -0.2774
  143SAPE    HB15628   1.363   1.225   9.716  1.0596  0.8270  1.4855
  143SAPE    C215629   1.156   1.181   9.736  0.6388  0.1130 -0.2391
  143SAPE    HS15630   1.178   1.117   9.825 -0.0375 -0.9254 -0.8025
  143SAPE   O2115631   1.165   1.100   9.613  0.2762 -0.2272 -0.4328
  143SAPE   C2115632   1.113   0.977   9.617  0.8857 -0.7262  0.0113
  143SAPE   O2215633   1.051   0.926   9.713  0.4967  0.6332 -0.0176
  143SAPE   C2215634   1.145   0.895   9.495 -0.5823 -0.2789 -0.4007
  143SAPE   H2R15635   1.108   0.791   9.505 -2.3318  0.5260  1.9517
  143SAPE   H2S15636   1.092   0.941   9.409 -0.0685 -0.7615 -0.9801
  143SAPE    C315637   1.016   1.241   9.757 -0.1726  0.0337  0.0231
  143SAPE    HX15638   1.005   1.281   9.860  1.3829 -0.9457  0.5821
  143SAPE    HY15639   0.942   1.159   9.764 -1.5999  1.1732 -1.4734
  143SAPE   O3115640   0.992   1.338   9.653  0.4932 -0.3739  0.5292
  143SAPE   C3115641   0.911   1.285   9.552  0.2420  0.0416  0.1555
  143SAPE   O3215642   0.855   1.178   9.557 -0.5737  0.6430 -0.4096
  143SAPE   C3215643   0.917   1.383   9.435 -0.6638 -0.2526  0.9456
  143SAPE   H2X15644   1.012   1.361   9.381 -1.0344 -0.1412  0.2342
  143SAPE   H2Y15645   0.927   1.486   9.477  2.5272 -1.1892  2.6523
  143SAPE   C2315646   1.297   0.887   9.457 -0.4970 -0.2085 -0.1095
  143SAPE   H3R15647   1.355   0.856   9.546 -0.7576  0.4280  0.2791
  143SAPE   H3S15648   1.335   0.987   9.426  1.8338 -0.3094  2.2852
  143SAPE   C2415649   1.314   0.795   9.333 -0.5670  0.3820 -0.2201
  143SAPE   H4R15650   1.268   0.821   9.235  3.3168  2.0862 -1.7011
  143SAPE   H4S15651   1.277   0.693   9.357 -0.7641  0.6093  0.4440
  143SAPE   C2515652   1.464   0.780   9.321 -0.0002 -0.1321 -0.4034
  143SAPE   H5R15653   1.514   0.723   9.400 -0.1018 -0.1483 -0.3513
  143SAPE   C2615654   1.541   0.825   9.223 -0.1994 -0.3672  0.3789
  143SAPE   H6R15655   1.647   0.797   9.220 -0.4853 -1.3708 -2.0515
  143SAPE   C2715656   1.502   0.896   9.094 -0.3164  0.4445  0.5504
  143SAPE   H7R15657   1.561   0.989   9.093 -2.3454  1.7799 -2.5044
  143SAPE   H7S15658   1.401   0.937   9.115 -1.4036 -2.2266  0.7857
  143SAPE   C2815659   1.522   0.822   8.967  0.0479  0.1168 -0.4224
  143SAPE   H8R15660   1.594   0.738   8.972 -1.0486 -0.8342 -0.4042
  143SAPE   C2915661   1.454   0.838   8.853  0.2783 -0.7465  0.1296
  143SAPE   H9R15662   1.478   0.774   8.767  1.2688 -2.4894  1.6601
  143SAPE  C21015663   1.338   0.930   8.830 -0.2507 -0.0153 -0.0490
  143SAPE  H10R15664   1.355   1.008   8.753 -1.9581 -0.8672 -1.3476
  143SAPE  H10S15665   1.335   0.994   8.920  2.8201  1.2440 -0.7820
  143SAPE  C21115666   1.214   0.850   8.805 -0.1146 -0.2222  0.1465
  143SAPE  H11R15667   1.153   0.813   8.889 -1.8816 -0.0949 -1.0591
  143SAPE  C21215668   1.157   0.829   8.688  0.0435 -0.7492 -0.1224
  143SAPE  H12R15669   1.068   0.765   8.679 -1.2844  1.3482 -2.3979
  143SAPE  C21315670   1.214   0.882   8.552  0.1230  0.5251 -0.5228
  143SAPE  H13R15671   1.290   0.813   8.511 -2.3113 -0.4382 -3.5891
  143SAPE  H13S15672   1.276   0.971   8.574 -1.1852  0.5193  3.5981
  143SAPE  C21415673   1.110   0.927   8.459 -0.1391  0.4007 -0.1876
  143SAPE  H14R15674   1.024   0.972   8.511 -0.1917  1.8424 -1.4755
  143SAPE  C21515675   1.118   0.927   8.324 -0.1364  0.3491  0.4745
  143SAPE  H15R15676   1.050   0.985   8.259 -0.1440  2.7026  2.5389
  143SAPE  C21615677   1.242   0.881   8.250  0.0461  0.4199  0.1366
  143SAPE  H16R15678   1.233   0.796   8.180 -0.7319  0.6423 -0.0379
  143SAPE  H16S15679   1.320   0.833   8.314  1.1896 -2.0504 -3.0085
  143SAPE  C21715680   1.309   1.009   8.186  0.0191 -0.0529  0.9267
  143SAPE  H17R15681   1.251   1.040   8.096  1.6126 -0.5158 -0.2689
  143SAPE  H17S15682   1.405   0.971   8.146 -0.2140  2.3729 -2.0716
  143SAPE  C21815683   1.333   1.127   8.286 -0.5744 -0.5898  0.5015
  143SAPE  H18R15684   1.423   1.110   8.348  0.0823  0.1183 -0.2451
  143SAPE  H18S15685   1.239   1.144   8.343 -1.5249  0.9429 -1.4643
  143SAPE  C21915686   1.357   1.263   8.218  0.1467  0.0331 -0.0361
  143SAPE  H19R15687   1.362   1.354   8.283  2.0967  1.9694 -2.7916
  143SAPE  H19S15688   1.268   1.288   8.156  0.9683  1.3975 -0.6888
  143SAPE  C22015689   1.468   1.276   8.112 -0.4238  0.0776 -0.3856
  143SAPE  H20R15690   1.565   1.288   8.164  0.4061 -2.1278 -1.3634
  143SAPE  H20S15691   1.447   1.371   8.058 -3.3641  0.9189  2.0800
  143SAPE  H20T15692   1.467   1.186   8.047  0.6274 -0.2742  0.0689
  143SAPE   C3315693   0.797   1.369   9.334 -0.6402  0.0665  0.0804
  143SAPE   H3X15694   0.712   1.399   9.398  1.4524  2.9044  1.6610
  143SAPE   H3Y15695   0.790   1.267   9.291 -0.3355  0.4624 -0.9264
  143SAPE   C3415696   0.808   1.457   9.209  0.0868 -0.1634  0.1946
  143SAPE   H4X15697   0.909   1.436   9.168  0.8220  2.6915  0.4916
  143SAPE   H4Y15698   0.813   1.558   9.255  1.0016  0.1944 -0.6820
  143SAPE   C3515699   0.704   1.426   9.099  0.3237 -0.1447  0.3708
  143SAPE   H5X15700   0.606   1.445   9.146  1.3200  1.9141  1.7001
  143SAPE   H5Y15701   0.711   1.323   9.058 -0.1507 -0.8296  2.0157
  143SAPE   C3615702   0.721   1.515   8.979 -0.0848 -0.3358 -0.4366
  143SAPE   H6X15703   0.730   1.622   9.009 -2.5332 -0.2514  0.1271
  143SAPE   H6Y15704   0.632   1.517   8.911  0.0155 -1.2657 -0.5965
  143SAPE   C3715705   0.847   1.491   8.887  0.1471  0.5670  0.7441
  143SAPE   H7X15706   0.936   1.497   8.953  1.0340  0.6026 -0.4474
  143SAPE   H7Y15707   0.854   1.571   8.810  0.0119 -1.0083 -0.9340
  143SAPE   C3815708   0.842   1.353   8.810  0.2989 -0.8185 -0.3170
  143SAPE   H8X15709   0.757   1.352   8.737  1.1413  2.3646 -1.4197
  143SAPE   H8Y15710   0.816   1.274   8.884 -2.2543  0.9397  0.7513
  143SAPE   C3915711   0.980   1.325   8.745 -0.2515  0.1489  0.2086
  143SAPE   H9X15712   1.001   1.218   8.724  0.8423  0.6512 -1.3247
  143SAPE   H9Y15713   1.048   1.361   8.825  2.3028 -2.7706 -0.5786
  143SAPE  C31015714   1.007   1.404   8.620 -0.8964  0.2970  0.3667
  143SAPE  H10X15715   1.012   1.513   8.644 -1.4403  0.0616  1.5573
  143SAPE  H10Y15716   0.923   1.395   8.547 -0.0351  1.8691 -0.8536
  143SAPE  C31115717   1.135   1.355   8.551 -0.1621 -0.4479 -0.0741
  143SAPE  H11X15718   1.150   1.411   8.456 -2.3336 -1.0707 -0.8144
  143SAPE  H11Y15719   1.107   1.256   8.511  0.0498 -1.1200  1.3888
  143SAPE  C31215720   1.246   1.344   8.655  0.1971  0.3177 -0.2164
  143SAPE  H12X15721   1.227   1.262   8.727 -3.3991  0.7982 -0.5189
  143SAPE  H12Y15722   1.250   1.437   8.715  0.1773  1.0296 -1.2916
  143SAPE  C31315723   1.378   1.316   8.583  0.2700 -0.5723 -0.2567
  143SAPE  H13X15724   1.410   1.395   8.513  0.3621  0.4017  0.8655
  143SAPE  H13Y15725   1.365   1.219   8.530  0.5400  0.1866 -1.7120
  143SAPE  C31415726   1.499   1.314   8.687  1.0049  0.2534  0.2363
  143SAPE  H14X15727   1.474   1.243   8.768 -2.3177  0.4800 -0.5091
  143SAPE  H14Y15728   1.520   1.409   8.741  1.6181 -0.9750  2.1830
  143SAPE  C31515729   1.625   1.265   8.620  0.2470 -0.5753 -0.0732
  143SAPE  H15X15730   1.719   1.279   8.678 -0.7143 -0.8235  1.5586
  143SAPE  H15Y15731   1.646   1.331   8.533 -1.2631  0.0158 -0.0020
  143SAPE  C31615732   1.622   1.108   8.589  0.9197 -0.2409  0.2489
  143SAPE  H16X15733   1.540   1.082   8.520  0.9320  0.6110 -0.0960
  143SAPE  H16Y15734   1.596   1.060   8.685 -2.3246 -1.1288 -1.0161
  143SAPE  C31715735   1.746   1.045   8.534 -0.1626  0.0214  0.1543
  143SAPE  H17X15736   1.727   0.936   8.527  1.8856 -0.3798  0.5141
  143SAPE  H17Y15737   1.822   1.061   8.613 -1.2230 -0.8669  1.3615
  143SAPE  C31815738   1.785   1.078   8.384  0.0998  0.1823 -0.1241
  143SAPE  H18X15739   1.878   1.023   8.360  0.1246  0.4213 -0.5874
  143SAPE  H18Y15740   1.791   1.187   8.364 -2.8415  0.1515 -1.4042
  143SAPE  H18Z15741   1.701   1.032   8.327 -0.6959  0.1849  1.0323
  144SAPE     N15742   4.892   0.304   9.949  0.0925  0.3435  0.0660
  144SAPE   HN115743   4.972   0.246   9.982  1.2487  2.4450  1.0370
  144SAPE   HN215744   4.867   0.266   9.856  0.3491  1.7093 -0.5808
  144SAPE   HN315745   4.915   0.405   9.935 -0.1952  0.8797  3.1736
  144SAPE   C1215746   4.768   0.273  10.034 -0.4487 -0.6543  0.1623
  144SAPE  H12A15747   4.789   0.312  10.135 -0.9604  0.5654 -0.1917
  144SAPE  H12B15748   4.756   0.163  10.032 -2.5045 -0.4362 -0.7733
  144SAPE   C1115749   4.636   0.333   9.982  0.1588 -0.0526  0.3100
  144SAPE  H11A15750   4.549   0.304  10.045 -0.7062  0.9767 -0.3959
  144SAPE  H11B15751   4.616   0.272   9.892  1.1974 -0.2574  0.2101
  144SAPE     P15752   4.622   0.584  10.067 -0.1785  0.5551 -0.1430
  144SAPE   O1315753   4.535   0.530  10.176 -0.0589  0.6547  0.5363
  144SAPE   O1415754   4.758   0.620  10.107 -0.5235  1.1638 -0.4187
  144SAPE   O1215755   4.635   0.474   9.958  0.2390  0.0440  0.1892
  144SAPE   O1115756   4.567   0.701   9.992  0.3205 -0.5252 -0.0803
  144SAPE    C115757   4.473   0.683   9.880 -0.2449  0.4241  0.3323
  144SAPE    HA15758   4.414   0.592   9.903 -1.4935  1.2043  0.2540
  144SAPE    HB15759   4.387   0.753   9.877 -0.7075 -0.1880 -1.1119
  144SAPE    C215760   4.545   0.666   9.739 -0.4650  0.5916 -0.6268
  144SAPE    HS15761   4.590   0.565   9.731 -2.4501 -0.2910 -0.8376
  144SAPE   O2115762   4.642   0.771   9.733  0.4877  0.5718  0.3195
  144SAPE   C2115763   4.612   0.901   9.747  0.0889  0.0581 -0.4436
  144SAPE   O2215764   4.501   0.949   9.747 -0.2767 -0.1585 -0.3804
  144SAPE   C2215765   4.742   0.964   9.780  0.6548  0.9735  0.5193
  144SAPE   H2R15766   4.719   1.052   9.844  3.4576  1.2211  1.2449
  144SAPE   H2S15767   4.806   0.893   9.837  0.6078  0.3343 -0.2077
  144SAPE    C315768   4.441   0.674   9.625 -0.2164  0.8947  0.7441
  144SAPE    HX15769   4.380   0.766   9.615  0.3535  1.2055  0.0951
  144SAPE    HY15770   4.363   0.596   9.639  1.8680 -1.4722 -0.4053
  144SAPE   O3115771   4.512   0.654   9.501  0.2588 -0.2165  0.1014
  144SAPE   C3115772   4.429   0.671   9.392  0.2032  0.8800 -0.1087
  144SAPE   O3215773   4.309   0.673   9.396  0.4946 -0.0600  0.0489
  144SAPE   C3215774   4.505   0.670   9.261 -0.4964 -0.7585  0.0147
  144SAPE   H2X15775   4.615   0.660   9.270 -0.5258 -0.5050  0.6085
  144SAPE   H2Y15776   4.491   0.772   9.220 -1.2259 -0.7902  0.1786
  144SAPE   C2315777   4.796   1.012   9.646  0.5267 -1.0584 -0.4456
  144SAPE   H3R15778   4.862   1.100   9.659 -0.6545 -0.5264  2.2349
  144SAPE   H3S15779   4.724   1.058   9.575  0.5777  0.0373  0.1997
  144SAPE   C2415780   4.858   0.891   9.571  0.1018 -0.2816 -0.6754
  144SAPE   H4R15781   4.774   0.828   9.536  0.7612 -0.9439 -1.0664
  144SAPE   H4S15782   4.918   0.831   9.642  0.4106  1.3530  0.4707
  144SAPE   C2515783   4.952   0.943   9.456 -0.6242  0.2186  0.6729
  144SAPE   H5R15784   5.054   0.963   9.494 -0.9826 -0.4419  2.0043
  144SAPE   C2615785   4.934   0.943   9.323 -0.4334  1.3668  0.2762
  144SAPE   H6R15786   5.010   0.991   9.259  3.1336 -2.9754  0.9871
  144SAPE   C2715787   4.809   0.888   9.255  0.2691 -0.0870  0.2201
  144SAPE   H7R15788   4.731   0.963   9.280  1.5584  1.7547 -1.1805
  144SAPE   H7S15789   4.766   0.805   9.316  1.2680 -0.0033  1.0441
  144SAPE   C2815790   4.807   0.842   9.113  0.1249 -0.1888  0.3131
  144SAPE   H8R15791   4.757   0.910   9.042  1.1937  2.2548  1.7936
  144SAPE   C2915792   4.843   0.721   9.062  0.1672  0.2333 -0.1588
  144SAPE   H9R15793   4.812   0.699   8.958 -0.4109  1.7765 -0.3287
  144SAPE  C21015794   4.903   0.605   9.139 -0.1974  0.1127 -0.2854
  144SAPE  H10R15795   4.827   0.527   9.157  0.7844 -0.5479  1.1622
  144SAPE  H10S15796   4.929   0.634   9.244  2.8960 -0.3817 -0.8563
  144SAPE  C21115797   5.024   0.540   9.066 -0.1996 -0.5724 -0.6174
  144SAPE  H11R15798   5.113   0.597   9.095 -0.5588  0.3138 -1.2408
  144SAPE  C21215799   5.024   0.435   8.980 -0.4006  0.8702 -0.1633
  144SAPE  H12R15800   5.118   0.410   8.929 -0.5090  0.4957 -0.1822
  144SAPE  C21315801   4.908   0.352   8.924  0.0171  0.2436 -0.3218
  144SAPE  H13R15802   4.953   0.305   8.834  0.6780  1.2971 -0.5409
  144SAPE  H13S15803   4.831   0.427   8.898  0.3697  0.5686 -0.4207
  144SAPE  C21415804   4.844   0.249   9.014 -0.0129  0.7452  0.3430
  144SAPE  H14R15805   4.886   0.212   9.109 -0.6899 -0.9578  0.0133
  144SAPE  C21515806   4.731   0.189   8.975 -0.3240 -0.3263 -0.1767
  144SAPE  H15R15807   4.691   0.132   9.060 -2.3520 -0.2353 -1.0389
  144SAPE  C21615808   4.663   0.217   8.843 -0.0090  0.1078  0.0757
  144SAPE  H16R15809   4.683   0.317   8.799 -1.8720  0.8299  0.7821
  144SAPE  H16S15810   4.552   0.215   8.841 -0.0156  0.3434  0.1720
  144SAPE  C21715811   4.697   0.115   8.739  1.1220 -0.2195  0.0282
  144SAPE  H17R15812   4.666   0.017   8.781  1.0812 -0.6428 -0.9750
  144SAPE  H17S15813   4.808   0.115   8.746  1.0085  2.3076  3.1150
  144SAPE  C21815814   4.640   0.127   8.600 -0.0234 -0.2618  0.5262
  144SAPE  H18R15815   4.529   0.126   8.606  0.0514 -0.0923  1.9863
  144SAPE  H18S15816   4.675   0.044   8.534  2.4673  0.9146  0.3211
  144SAPE  C21915817   4.667   0.257   8.517 -0.7039 -0.0969  0.4764
  144SAPE  H19R15818   4.777   0.271   8.503 -0.4176 -0.6120  2.1129
  144SAPE  H19S15819   4.622   0.334   8.584 -1.7604  0.2786 -0.6450
  144SAPE  C22015820   4.592   0.247   8.387 -0.3989  0.2133  0.2385
  144SAPE  H20R15821   4.656   0.209   8.304  2.6329 -2.1488  3.5437
  144SAPE  H20S15822   4.557   0.346   8.349  1.0541 -0.3036 -2.5974
  144SAPE  H20T15823   4.500   0.184   8.390  0.5852 -1.2624 -0.0177
  144SAPE   C3315824   4.441   0.568   9.164  0.8008  0.4810  0.4541
  144SAPE   H3X15825   4.330   0.569   9.171  0.6453  1.2368 -1.6986
  144SAPE   H3Y15826   4.489   0.469   9.176  2.4248  1.1691 -0.2188
  144SAPE   C3415827   4.484   0.589   9.015  0.0717  0.0696  0.0393
  144SAPE   H4X15828   4.437   0.517   8.944 -0.3078  2.1855 -1.9348
  144SAPE   H4Y15829   4.594   0.579   9.006 -0.1350 -1.8927 -0.6636
  144SAPE   C3515830   4.449   0.729   8.955  0.6651  0.7359 -0.3282
  144SAPE   H5X15831   4.506   0.806   9.012  0.8068  1.3669 -1.3118
  144SAPE   H5Y15832   4.344   0.754   8.984  1.1861  0.8626  1.5323
  144SAPE   C3615833   4.474   0.736   8.812 -0.6360  0.2698  0.4021
  144SAPE   H6X15834   4.447   0.836   8.773  2.7353  0.5237 -1.4285
  144SAPE   H6Y15835   4.406   0.669   8.753 -2.0423  0.0915  2.1798
  144SAPE   C3715836   4.613   0.691   8.766  0.4072  0.0863 -0.8495
  144SAPE   H7X15837   4.640   0.588   8.796 -0.6919  0.4518  1.4962
  144SAPE   H7Y15838   4.691   0.759   8.807 -0.0876  0.2782 -0.2174
  144SAPE   C3815839   4.627   0.697   8.610  0.1851 -0.1526 -0.1024
  144SAPE   H8X15840   4.612   0.803   8.579  1.1925  0.3607  1.1265
  144SAPE   H8Y15841   4.546   0.639   8.560  0.6326 -0.0365 -0.9799
  144SAPE   C3915842   4.747   0.631   8.543 -0.6105  0.7650  0.6973
  144SAPE   H9X15843   4.728   0.607   8.436  0.9649  2.9381 -0.1072
  144SAPE   H9Y15844   4.771   0.538   8.599  0.8544  0.5373 -0.2616
  144SAPE  C31015845   4.867   0.727   8.552 -0.4383 -0.0213 -0.1617
  144SAPE  H10X15846   4.891   0.735   8.660 -1.2296 -0.6971  0.0621
  144SAPE  H10Y15847   4.826   0.822   8.512  1.7248  1.6855  1.5237
  144SAPE  C31115848   4.987   0.695   8.460 -0.0743 -0.0247 -0.0334
  144SAPE  H11X15849   4.948   0.698   8.356  1.5780  1.9999 -0.6529
  144SAPE  H11Y15850   5.030   0.594   8.474  0.5578  0.2093 -0.2559
  144SAPE  C31215851   5.095   0.809   8.490  0.0384  0.0481  1.2095
  144SAPE  H12X15852   5.110   0.818   8.599 -1.9865 -1.8144  1.6701
  144SAPE  H12Y15853   5.039   0.898   8.454  0.7769 -0.3518 -1.0488
  144SAPE  C31315854   5.234   0.786   8.418 -0.1169  0.3454 -0.6661
  144SAPE  H13X15855   5.226   0.742   8.316  4.2757 -1.0685 -0.5385
  144SAPE  H13Y15856   5.290   0.721   8.489 -0.2946 -2.4968 -3.0346
  144SAPE  C31415857   5.312   0.922   8.402 -0.1452 -0.0136  0.3630
  144SAPE  H14X15858   5.417   0.902   8.373  0.0671 -0.1604  1.2030
  144SAPE  H14Y15859   5.310   0.969   8.503  0.6389  0.1157  0.3206
  144SAPE  C31515860   5.248   1.019   8.299  0.2719 -0.0023 -0.1067
  144SAPE  H15X15861   5.138   1.017   8.318  0.4707 -1.4051  0.9345
  144SAPE  H15Y15862   5.266   0.987   8.195  0.4789 -1.5651  0.3952
  144SAPE  C31615863   5.297   1.166   8.301 -0.3736 -0.3386 -0.0995
  144SAPE  H16X15864   5.285   1.217   8.399 -0.2490 -1.5895  0.5860
  144SAPE  H16Y15865   5.253   1.232   8.224  2.7011 -0.8249 -2.3436
  144SAPE  C31715866   5.448   1.171   8.285 -0.8278 -0.0417  0.9388
  144SAPE  H17X15867   5.501   1.128   8.372  0.7006  2.5987  1.3318
  144SAPE  H17Y15868   5.465   1.280   8.280 -2.9926  0.2600 -0.6183
  144SAPE  C31815869   5.501   1.108   8.156  0.6294 -1.0330 -1.3118
  144SAPE  H18X15870   5.609   1.128   8.142  0.9736 -1.3385  0.7691
  144SAPE  H18Y15871   5.433   1.125   8.069  0.9274 -1.2967 -1.5957
  144SAPE  H18Z15872   5.499   0.997   8.164 -1.6240 -1.0019 -1.0802
  145SAPE     N15873   1.799   0.215  10.037  0.0644  0.8081 -0.2717
  145SAPE   HN115874   1.815   0.118  10.071 -2.1891  0.5590  0.0975
  145SAPE   HN215875   1.840   0.273  10.114  1.7822  1.5258 -1.6897
  145SAPE   HN315876   1.699   0.242  10.047  0.1772  0.5550  1.8419
  145SAPE   C1215877   1.851   0.244   9.903 -0.3855  0.7277 -0.3063
  145SAPE  H12A15878   1.777   0.200   9.832  2.8402 -2.4732 -1.8474
  145SAPE  H12B15879   1.944   0.192   9.872 -1.0867 -0.7588  0.0713
  145SAPE   C1115880   1.840   0.400   9.883  1.0040 -0.0284  0.4112
  145SAPE  H11A15881   1.860   0.418   9.776  2.1602  0.0764  0.6357
  145SAPE  H11B15882   1.922   0.450   9.939  3.3047 -2.5262 -0.6131
  145SAPE     P15883   1.689   0.603   9.953  0.1950  0.4266 -0.2934
  145SAPE   O1315884   1.544   0.635   9.955 -0.7180  0.3413  0.0256
  145SAPE   O1415885   1.748   0.630  10.083 -0.1936  0.2014  0.0898
  145SAPE   O1215886   1.707   0.455   9.911 -0.4464 -1.1222 -0.2484
  145SAPE   O1115887   1.765   0.685   9.831  0.2021  0.1566 -0.4112
  145SAPE    C115888   1.700   0.673   9.703 -0.4122  0.4584  0.1520
  145SAPE    HA15889   1.679   0.566   9.678  1.1441 -0.0069  0.7536
  145SAPE    HB15890   1.612   0.739   9.693  0.1572  0.9829 -1.6345
  145SAPE    C215891   1.790   0.728   9.582 -0.2379  1.1634  0.1834
  145SAPE    HS15892   1.887   0.762   9.624 -0.0013 -0.1475  0.7220
  145SAPE   O2115893   1.722   0.824   9.499  0.2424  0.2776 -0.0813
  145SAPE   C2115894   1.737   0.951   9.536 -0.0364  0.4237 -0.5746
  145SAPE   O2215895   1.808   0.989   9.631  0.3932 -0.5789 -0.0547
  145SAPE   C2215896   1.640   1.043   9.461 -0.5857 -0.0648  0.6379
  145SAPE   H2R15897   1.666   1.044   9.353  0.8275  0.5942  0.9799
  145SAPE   H2S15898   1.542   0.991   9.469  0.8003 -2.8787 -0.0266
  145SAPE    C315899   1.818   0.610   9.482  0.1814 -0.8695 -0.3759
  145SAPE    HX15900   1.866   0.524   9.534  0.2210 -1.2735 -1.0847
  145SAPE    HY15901   1.878   0.658   9.402  1.7473 -3.1226 -0.6037
  145SAPE   O3115902   1.698   0.568   9.422  0.0945  0.3224  0.3530
  145SAPE   C3115903   1.680   0.441   9.405 -0.7397 -0.3079 -0.6426
  145SAPE   O3215904   1.755   0.353   9.431 -0.2893  0.1741 -0.2650
  145SAPE   C3215905   1.538   0.413   9.350 -0.5960 -0.4646  0.8161
  145SAPE   H2X15906   1.482   0.507   9.371  0.9214  0.4593  0.8078
  145SAPE   H2Y15907   1.492   0.335   9.414  0.5194 -1.2033  0.7268
  145SAPE   C2315908   1.626   1.185   9.525 -0.3311  0.0910  0.2984
  145SAPE   H3R15909   1.725   1.235   9.527  0.5181 -1.5721  2.4215
  145SAPE   H3S15910   1.599   1.168   9.631 -3.0059 -1.0473 -0.5116
  145SAPE   C2415911   1.513   1.264   9.466  0.2053  0.3085 -0.2350
  145SAPE   H4R15912   1.485   1.356   9.523  0.1210  0.2034 -0.1067
  145SAPE   H4S15913   1.421   1.203   9.472  1.3819 -1.4022  0.9519
  145SAPE   C2515914   1.537   1.303   9.319 -0.2110 -0.8772 -0.3220
  145SAPE   H5R15915   1.641   1.299   9.284 -0.4044 -0.8278 -0.9007
  145SAPE   C2615916   1.438   1.341   9.235  0.5151  0.3464  0.1360
  145SAPE   H6R15917   1.469   1.350   9.130  1.5198  1.2763  0.4902
  145SAPE   C2715918   1.291   1.348   9.265  0.0954 -0.0109  0.2041
  145SAPE   H7R15919   1.272   1.445   9.316 -0.1379 -1.1048  2.2576
  145SAPE   H7S15920   1.250   1.276   9.339  0.8333 -1.9550 -1.2514
  145SAPE   C2815921   1.194   1.348   9.142 -0.3537  0.4852 -0.2759
  145SAPE   H8R15922   1.170   1.449   9.106 -2.0069  0.1920 -0.0706
  145SAPE   C2915923   1.129   1.240   9.097  0.8157  0.2040 -0.0236
  145SAPE   H9R15924   1.063   1.264   9.012 -0.6578  1.1355  1.3389
  145SAPE  C21015925   1.127   1.096   9.149  0.8833  0.2073 -0.1542
  145SAPE  H10R15926   1.204   1.077   9.227 -0.6606 -0.4656  1.2188
  145SAPE  H10S15927   1.139   1.026   9.064  0.3982  2.1749 -1.8960
  145SAPE  C21115928   0.986   1.074   9.200 -0.1898 -0.3095 -0.3725
  145SAPE  H11R15929   0.945   1.133   9.283  0.9224 -1.3297  0.9250
  145SAPE  C21215930   0.903   0.969   9.170  0.2179  0.3539 -0.1359
  145SAPE  H12R15931   0.796   0.983   9.192  0.4698  0.8115  0.8361
  145SAPE  C21315932   0.940   0.851   9.078 -0.7968  0.0668  0.1007
  145SAPE  H13R15933   1.039   0.815   9.115 -0.0752  0.7296 -1.1685
  145SAPE  H13S15934   0.958   0.890   8.976  1.0009 -0.9554 -0.0053
  145SAPE  C21415935   0.840   0.747   9.089  0.1915 -0.0081 -0.0327
  145SAPE  H14R15936   0.738   0.784   9.069 -0.1445 -1.5261 -1.2293
  145SAPE  C21515937   0.858   0.616   9.122 -0.8950 -0.2703 -0.4136
  145SAPE  H15R15938   0.772   0.548   9.113 -0.3586 -0.8041 -1.5570
  145SAPE  C21615939   0.990   0.550   9.151 -0.2644 -0.5664  0.0120
  145SAPE  H16R15940   1.071   0.605   9.099 -0.1232 -0.3095  0.5004
  145SAPE  H16S15941   0.993   0.448   9.107 -2.4727 -1.1181  1.0479
  145SAPE  C21715942   1.009   0.530   9.300  0.2027 -0.2266 -0.5554
  145SAPE  H17R15943   0.920   0.486   9.349  0.3000  0.8278  0.5817
  145SAPE  H17S15944   1.018   0.633   9.341  0.3882 -0.7003  0.6142
  145SAPE  C21815945   1.129   0.438   9.326 -0.1744 -0.5231  0.2374
  145SAPE  H18R15946   1.202   0.477   9.252 -2.4999  1.2618 -1.1573
  145SAPE  H18S15947   1.098   0.335   9.298  1.1423 -1.0567  0.6866
  145SAPE  C21915948   1.184   0.430   9.467 -0.3385  0.0622 -0.2287
  145SAPE  H19R15949   1.225   0.528   9.501  2.3992 -0.4627 -1.8672
  145SAPE  H19S15950   1.268   0.357   9.468  0.7416  1.2790  0.6035
  145SAPE  C22015951   1.081   0.387   9.573 -0.2440 -0.2003  0.7277
  145SAPE  H20R15952   0.997   0.460   9.580 -0.8071 -0.3162 -3.5181
  145SAPE  H20S15953   1.120   0.393   9.676 -2.5335  1.0941  1.5598
  145SAPE  H20T15954   1.045   0.283   9.557 -0.9649  0.1144  0.2840
  145SAPE   C3315955   1.540   0.367   9.202  0.2182  0.3077 -0.0528
  145SAPE   H3X15956   1.442   0.325   9.172  0.6262 -0.8233  0.1567
  145SAPE   H3Y15957   1.610   0.281   9.191 -1.5769 -1.0445 -1.2745
  145SAPE   C3415958   1.560   0.479   9.105  0.0303  0.0279 -0.0215
  145SAPE   H4X15959   1.659   0.529   9.110  0.2466 -0.3711 -0.2504
  145SAPE   H4Y15960   1.481   0.556   9.118  0.1964  0.3368 -0.8265
  145SAPE   C3515961   1.545   0.423   8.956 -0.7397 -0.5384  0.7925
  145SAPE   H5X15962   1.517   0.513   8.898  2.0009 -2.3715 -3.6303
  145SAPE   H5Y15963   1.468   0.343   8.955 -0.8211 -0.4572  0.6433
  145SAPE   C3615964   1.678   0.356   8.913 -0.5599  0.5799  0.4845
  145SAPE   H6X15965   1.693   0.269   8.980 -0.1198  0.8180  0.7017
  145SAPE   H6Y15966   1.774   0.412   8.912  0.9071 -1.8399  1.9459
  145SAPE   C3715967   1.674   0.305   8.764  0.4431 -0.4993 -0.4395
  145SAPE   H7X15968   1.647   0.395   8.705 -0.7381 -1.4560 -1.4076
  145SAPE   H7Y15969   1.595   0.226   8.760 -0.7602  0.6117  0.6199
  145SAPE   C3815970   1.804   0.253   8.719 -0.5689  0.2065  0.3914
  145SAPE   H8X15971   1.858   0.206   8.804 -2.1797 -0.3197  1.1497
  145SAPE   H8Y15972   1.873   0.335   8.690  0.5019 -1.3205 -1.5518
  145SAPE   C3915973   1.799   0.154   8.603  0.2106  0.2338  0.0351
  145SAPE   H9X15974   1.775   0.057   8.651 -0.6162  1.1735  1.5596
  145SAPE   H9Y15975   1.893   0.127   8.551  0.2177  0.2034  0.0637
  145SAPE  C31015976   1.678   0.162   8.499 -0.4682  0.2979  0.5320
  145SAPE  H10X15977   1.688   0.263   8.454  2.0257 -0.0758  0.1515
  145SAPE  H10Y15978   1.588   0.141   8.561 -1.3090  0.4847 -0.6243
  145SAPE  C31115979   1.693   0.049   8.395  0.1927 -0.5667  0.3461
  145SAPE  H11X15980   1.739  -0.036   8.449 -0.3970 -0.7704  0.5271
  145SAPE  H11Y15981   1.767   0.077   8.316 -0.4828  0.2568 -0.0165
  145SAPE  C31215982   1.563   0.015   8.316  1.1740 -0.2621  0.4719
  145SAPE  H12X15983   1.474   0.026   8.382  0.4742  0.1857 -0.5399
  145SAPE  H12Y15984   1.556  -0.090   8.283 -0.3595  0.1225 -0.4600
  145SAPE  C31315985   1.539   0.109   8.196  0.0667  0.2255  0.0497
  145SAPE  H13X15986   1.557   0.212   8.232  0.6215  0.9991 -2.3157
  145SAPE  H13Y15987   1.432   0.100   8.168  0.0549 -0.2447  0.2429
  145SAPE  C31415988   1.625   0.074   8.074 -0.0078  0.1264 -0.4268
  145SAPE  H14X15989   1.614  -0.034   8.048 -2.8712  0.0090  1.1406
  145SAPE  H14Y15990   1.732   0.075   8.105 -0.1642 -0.6145  0.1455
  145SAPE  C31515991   1.611   0.188   7.974 -0.5478  0.0741 -0.1178
  145SAPE  H15X15992   1.605   0.288   8.021  2.7279 -0.3573  1.3779
  145SAPE  H15Y15993   1.511   0.180   7.927 -0.9683 -1.4773  0.9779
  145SAPE  C31615994   1.724   0.190   7.865 -0.2523 -0.0948  0.0909
  145SAPE  H16X15995   1.711   0.101   7.800  1.0770 -0.3687  0.1846
  145SAPE  H16Y15996   1.825   0.190   7.912 -1.1297  1.6418  2.0769
  145SAPE  C31715997   1.724   0.312   7.770  0.0995  0.1686 -0.5130
  145SAPE  H17X15998   1.619   0.309   7.737  0.0751 -0.8742 -0.3614
  145SAPE  H17Y15999   1.787   0.297   7.679 -1.0275 -0.5494 -1.1838
  145SAPE  C31816000   1.760   0.438   7.840  0.2421  0.2173 -0.2168
  145SAPE  H18X16001   1.763   0.531   7.779  2.0176 -1.0498 -2.1578
  145SAPE  H18Y16002   1.859   0.429   7.890 -0.4713  0.0427  1.1719
  145SAPE  H18Z16003   1.683   0.455   7.918 -0.8427 -1.9082 -0.7947
  146SAPE     N16004   6.098   0.863  10.088  0.7390  0.4251 -0.2938
  146SAPE   HN116005   6.153   0.936  10.037 -2.7626  1.4942 -2.6974
  146SAPE   HN216006   6.043   0.802  10.024  0.6184 -0.6243  0.7957
  146SAPE   HN316007   6.045   0.912  10.162  1.7273  1.9761 -0.5769
  146SAPE   C1216008   6.205   0.773  10.142 -0.1470  0.3699  0.4192
  146SAPE  H12A16009   6.161   0.712  10.224  1.2818 -2.1528 -0.6309
  146SAPE  H12B16010   6.285   0.840  10.181 -0.6765  2.3552 -1.8223
  146SAPE   C1116011   6.251   0.678  10.030 -0.4394 -0.5418  0.4015
  146SAPE  H11A16012   6.326   0.606  10.068  1.4539  0.8551 -0.6233
  146SAPE  H11B16013   6.312   0.731   9.954 -0.8765 -0.2363  0.2603
  146SAPE     P16014   6.101   0.468  10.020  0.1148  0.2769  0.1642
  146SAPE   O1316015   6.161   0.432  10.154 -0.2012  0.3285  0.8517
  146SAPE   O1416016   5.954   0.451  10.005  0.1677  0.0034 -0.9317
  146SAPE   O1216017   6.143   0.612   9.964 -0.1182  0.3943 -0.6481
  146SAPE   O1116018   6.172   0.374   9.916  0.0252 -0.0490  0.3434
  146SAPE    C116019   6.162   0.402   9.771  0.2014  0.2210 -0.0581
  146SAPE    HA16020   6.177   0.306   9.717 -2.6549  0.0945 -0.6830
  146SAPE    HB16021   6.063   0.434   9.733 -0.3562  0.8376  1.8497
  146SAPE    C216022   6.277   0.490   9.715 -0.3439 -0.1256 -0.0243
  146SAPE    HS16023   6.318   0.535   9.809 -1.0139 -0.5371  0.4720
  146SAPE   O2116024   6.219   0.583   9.631 -0.5339 -0.1827 -0.2229
  146SAPE   C2116025   6.309   0.679   9.608  0.8723  0.2668 -0.2552
  146SAPE   O2216026   6.424   0.687   9.649 -0.2597  0.5323 -0.8278
  146SAPE   C2216027   6.237   0.796   9.549 -0.3507  0.3027 -0.1483
  146SAPE   H2R16028   6.169   0.763   9.467  2.9359 -4.7735 -1.0546
  146SAPE   H2S16029   6.177   0.834   9.635  1.4851  1.3731  0.6725
  146SAPE    C316030   6.386   0.402   9.653 -0.1561  0.2567  0.2447
  146SAPE    HX16031   6.431   0.343   9.735  0.2365  0.8467  0.4587
  146SAPE    HY16032   6.470   0.470   9.627  1.6911 -1.0850  2.5455
  146SAPE   O3116033   6.342   0.321   9.543  0.2410  0.3226  0.1645
  146SAPE   C3116034   6.309   0.376   9.425  0.5312 -0.3566  0.5950
  146SAPE   O3216035   6.337   0.487   9.389 -0.2492 -0.3497  0.3304
  146SAPE   C3216036   6.275   0.259   9.342  0.0042  0.1860 -0.5726
  146SAPE   H2X16037   6.223   0.180   9.400  0.9695  1.0370  1.4850
  146SAPE   H2Y16038   6.369   0.212   9.304  1.5126  2.7654 -0.1298
  146SAPE   C2316039   6.325   0.919   9.515 -0.4769  0.5544  0.5643
  146SAPE   H3R16040   6.400   0.922   9.596  1.4377 -0.1019 -1.1494
  146SAPE   H3S16041   6.261   1.010   9.519 -1.6966 -0.2033 -1.1320
  146SAPE   C2416042   6.384   0.903   9.373  0.4553  0.6886  0.4510
  146SAPE   H4R16043   6.309   0.922   9.294 -1.0206 -1.3305  1.3237
  146SAPE   H4S16044   6.416   0.798   9.356 -1.3723  0.1170  0.4698
  146SAPE   C2516045   6.513   0.983   9.370 -0.4368 -0.5630  0.0236
  146SAPE   H5R16046   6.578   0.952   9.453 -0.7101 -2.2633 -0.3704
  146SAPE   C2616047   6.549   1.081   9.288 -0.7338  0.5058 -0.0721
  146SAPE   H6R16048   6.647   1.126   9.310 -1.4153  0.1693  3.9095
  146SAPE   C2716049   6.467   1.132   9.179 -0.0485 -0.5173 -1.2620
  146SAPE   H7R16050   6.360   1.123   9.207  0.3720 -1.0517  0.2284
  146SAPE   H7S16051   6.488   1.053   9.103 -0.0870  0.0901 -1.9064
  146SAPE   C2816052   6.503   1.277   9.150  0.9130 -0.1967  0.0108
  146SAPE   H8R16053   6.519   1.346   9.234  2.7325 -0.0445 -0.4491
  146SAPE   C2916054   6.506   1.322   9.019 -0.1780 -0.2674 -0.7738
  146SAPE   H9R16055   6.521   1.430   9.009 -4.2753  0.3178 -1.2315
  146SAPE  C21016056   6.483   1.238   8.899 -0.2756 -0.5757  1.1663
  146SAPE  H10R16057   6.421   1.150   8.924 -0.9657 -0.7757 -1.0999
  146SAPE  H10S16058   6.580   1.200   8.862 -0.2131 -0.3170  1.0589
  146SAPE  C21116059   6.402   1.319   8.795  0.2383 -0.4705 -0.4243
  146SAPE  H11R16060   6.318   1.380   8.831 -0.1366  0.5841 -2.9612
  146SAPE  C21216061   6.424   1.308   8.664 -0.4736  0.3851  0.5968
  146SAPE  H12R16062   6.359   1.366   8.597  1.1777  1.5225 -0.0530
  146SAPE  C21316063   6.525   1.226   8.586 -0.0304 -0.6093 -0.1611
  146SAPE  H13R16064   6.513   1.117   8.602 -0.5750 -0.6001 -0.4650
  146SAPE  H13S16065   6.625   1.252   8.627  0.0852 -0.3705 -0.5923
  146SAPE  C21416066   6.539   1.259   8.438 -0.0867 -0.0085 -0.7764
  146SAPE  H14R16067   6.624   1.328   8.426 -1.4963  1.7972 -0.6253
  146SAPE  C21516068   6.474   1.217   8.330  0.0522 -0.1766 -0.2903
  146SAPE  H15R16069   6.525   1.228   8.234  2.1086  1.5489  0.9416
  146SAPE  C21616070   6.357   1.118   8.336  0.0321  0.3533  0.5919
  146SAPE  H16R16071   6.269   1.159   8.283  1.1683 -0.1593 -1.7736
  146SAPE  H16S16072   6.312   1.119   8.437 -0.1488 -3.0024  0.6058
  146SAPE  C21716073   6.388   0.969   8.284  0.4726  0.1869 -0.2642
  146SAPE  H17R16074   6.415   0.989   8.178  2.3178 -3.6726 -0.6235
  146SAPE  H17S16075   6.297   0.906   8.287 -0.0478  0.9716  0.7296
  146SAPE  C21816076   6.497   0.893   8.368  0.3567  0.3438 -0.1388
  146SAPE  H18R16077   6.592   0.947   8.387  0.7893 -0.7991  1.0140
  146SAPE  H18S16078   6.521   0.797   8.319 -0.8070 -0.9374  1.7336
  146SAPE  C21916079   6.459   0.847   8.509  0.6924 -0.1967  0.1087
  146SAPE  H19R16080   6.414   0.931   8.567 -1.2520 -0.0263 -1.5703
  146SAPE  H19S16081   6.552   0.826   8.565  0.1243 -1.6040  0.5422
  146SAPE  C22016082   6.367   0.722   8.516 -0.5616  0.2262  0.2142
  146SAPE  H20R16083   6.371   0.693   8.623 -0.4834  1.6249  0.6021
  146SAPE  H20S16084   6.403   0.642   8.448  1.4682 -0.2792  1.8341
  146SAPE  H20T16085   6.266   0.758   8.486 -0.1330  0.6777 -0.6947
  146SAPE   C3316086   6.187   0.284   9.217 -0.7621 -0.0100 -0.0733
  146SAPE   H3X16087   6.105   0.355   9.240  1.1232  0.8039  4.6926
  146SAPE   H3Y16088   6.138   0.190   9.184  1.0508 -0.3853 -1.7899
  146SAPE   C3416089   6.269   0.323   9.091 -1.1856  0.4794 -0.4791
  146SAPE   H4X16090   6.345   0.244   9.073 -2.4372 -1.1509  1.2665
  146SAPE   H4Y16091   6.306   0.424   9.117 -0.3029 -0.1756  0.8151
  146SAPE   C3516092   6.182   0.330   8.964 -0.1746  0.2524 -0.6859
  146SAPE   H5X16093   6.089   0.390   8.970  0.1823  0.8469 -1.0727
  146SAPE   H5Y16094   6.158   0.228   8.925  0.2417 -0.1917  0.2022
  146SAPE   C3616095   6.268   0.392   8.853 -0.1449  0.2909  0.1091
  146SAPE   H6X16096   6.373   0.378   8.887 -1.0217  0.0239  2.7336
  146SAPE   H6Y16097   6.249   0.502   8.851  0.7633  0.4492 -0.0470
  146SAPE   C3716098   6.241   0.327   8.720 -0.2874  0.4865 -0.2426
  146SAPE   H7X16099   6.135   0.337   8.689 -0.9234  0.8205  1.9496
  146SAPE   H7Y16100   6.259   0.218   8.733 -1.7315  0.1368 -1.1280
  146SAPE   C3816101   6.333   0.375   8.611  0.0808  0.1841  0.0544
  146SAPE   H8X16102   6.299   0.475   8.577  1.2030  0.6162  0.1832
  146SAPE   H8Y16103   6.316   0.308   8.524 -0.4000 -0.2836  0.5016
  146SAPE   C3916104   6.487   0.353   8.623 -0.5976  0.5378  0.6335
  146SAPE   H9X16105   6.533   0.436   8.680  0.3768  1.4451 -1.4366
  146SAPE   H9Y16106   6.533   0.358   8.522 -0.3506  1.4163  0.7939
  146SAPE  C31016107   6.533   0.212   8.667  0.8299 -0.4795 -0.3050
  146SAPE  H10X16108   6.499   0.198   8.772 -2.6241  1.4529 -1.0977
  146SAPE  H10Y16109   6.642   0.190   8.662  0.6848 -1.3713  0.2985
  146SAPE  C31116110   6.476   0.090   8.594 -0.9325 -0.5248  0.2187
  146SAPE  H11X16111   6.366   0.088   8.609 -0.5442 -0.6386  3.4214
  146SAPE  H11Y16112   6.515  -0.008   8.629  2.8126  0.9459  0.3245
  146SAPE  C31216113   6.501   0.078   8.442 -0.1557 -0.2537 -0.1872
  146SAPE  H12X16114   6.604   0.058   8.406 -0.3033 -1.7995  0.2046
  146SAPE  H12Y16115   6.473   0.175   8.396 -1.0788 -0.4688 -0.0952
  146SAPE  C31316116   6.397  -0.017   8.382 -0.0748 -0.3104  0.5462
  146SAPE  H13X16117   6.304   0.031   8.420 -0.3043 -0.1855 -0.1713
  146SAPE  H13Y16118   6.416  -0.114   8.433 -0.7103 -0.1678  1.0611
  146SAPE  C31416119   6.409  -0.044   8.227  0.4104  0.5119 -0.2902
  146SAPE  H14X16120   6.513  -0.061   8.195 -0.3022 -0.2416 -2.2565
  146SAPE  H14Y16121   6.376   0.048   8.175 -0.6415  1.6767  2.3155
  146SAPE  C31516122   6.305  -0.152   8.195  0.9275 -0.1853 -0.1985
  146SAPE  H15X16123   6.205  -0.113   8.223  0.3291 -1.3690 -0.6349
  146SAPE  H15Y16124   6.323  -0.231   8.271  2.5345  2.4785  2.2839
  146SAPE  C31616125   6.302  -0.212   8.055 -0.5374 -0.7595  0.5654
  146SAPE  H16X16126   6.267  -0.138   7.980 -1.9274 -0.7136  1.2288
  146SAPE  H16Y16127   6.231  -0.297   8.040 -0.1368 -0.8165 -1.1063
  146SAPE  C31716128   6.448  -0.253   8.006  1.1352 -0.2158 -0.2842
  146SAPE  H17X16129   6.506  -0.163   7.977 -0.1660  0.7361  0.0056
  146SAPE  H17Y16130   6.426  -0.314   7.916  0.0474  1.3536 -1.0932
  146SAPE  C31816131   6.516  -0.345   8.106 -0.1966 -0.0256  0.8387
  146SAPE  H18X16132   6.568  -0.288   8.186  2.0108 -0.8350  0.0211
  146SAPE  H18Y16133   6.606  -0.383   8.054  0.0988  0.2101  1.1824
  146SAPE  H18Z16134   6.451  -0.427   8.146  0.5336 -1.1314 -0.2250
  147SAPE     N16135   3.372   4.020   6.056  0.1810 -0.0720 -0.1033
  147SAPE   HN116136   3.426   4.029   5.967  1.0143  0.5730  0.4577
  147SAPE   HN216137   3.316   3.933   6.067 -1.0866  0.9939  2.3585
  147SAPE   HN316138   3.298   4.093   6.062  0.1228 -0.0038 -1.4646
  147SAPE   C1216139   3.472   4.012   6.168  0.3191 -0.4311 -0.1859
  147SAPE  H12A16140   3.413   4.026   6.262  1.6000  3.1673  0.1725
  147SAPE  H12B16141   3.543   4.096   6.148 -1.5205  0.6870 -2.1355
  147SAPE   C1116142   3.540   3.876   6.170  0.4202  0.0375  0.5693
  147SAPE  H11A16143   3.470   3.791   6.181  0.7085 -0.0113  2.0981
  147SAPE  H11B16144   3.608   3.866   6.257  1.2159 -1.3930 -0.1892
  147SAPE     P16145   3.766   3.892   6.044 -0.4981 -0.0537  0.4097
  147SAPE   O1316146   3.836   3.770   6.085 -0.4380 -0.0467 -0.0239
  147SAPE   O1416147   3.797   3.947   5.913 -0.0628 -0.6608  0.3734
  147SAPE   O1216148   3.612   3.857   6.050 -0.2411 -0.0878  0.4514
  147SAPE   O1116149   3.778   4.000   6.155 -0.8637 -0.5436  0.0158
  147SAPE    C116150   3.904   4.064   6.187 -0.0255 -0.5038  0.3377
  147SAPE    HA16151   3.985   4.055   6.111  0.0027  0.9731  0.1809
  147SAPE    HB16152   3.885   4.171   6.210 -1.2104 -1.2219  2.9104
  147SAPE    C216153   3.962   3.998   6.310 -0.2371  0.2898  0.6554
  147SAPE    HS16154   3.965   3.890   6.287 -2.0043 -0.6176  4.3625
  147SAPE   O2116155   3.866   4.025   6.414  0.4115 -0.0880  0.3376
  147SAPE   C2116156   3.826   3.919   6.494  1.1846 -0.6781 -0.8862
  147SAPE   O2216157   3.861   3.803   6.476 -1.4447 -0.6993 -0.0543
  147SAPE   C2216158   3.735   3.977   6.607  0.9853 -0.3265 -0.3468
  147SAPE   H2R16159   3.644   3.914   6.601  1.5845 -1.2397  0.1288
  147SAPE   H2S16160   3.786   3.947   6.701  1.8222 -0.4964 -0.8575
  147SAPE    C316161   4.104   4.053   6.348  0.2219  0.6613  0.1124
  147SAPE    HX16162   4.103   4.164   6.348  2.8349  0.7240  0.2142
  147SAPE    HY16163   4.173   4.024   6.266 -1.2244 -0.6882 -0.6581
  147SAPE   O3116164   4.155   4.015   6.477  0.2909 -0.4206  0.6949
  147SAPE   C3116165   4.184   3.886   6.477  0.7536 -0.0060 -0.4077
  147SAPE   O3216166   4.172   3.799   6.393 -0.0703  0.1423  0.1920
  147SAPE   C3216167   4.232   3.847   6.621 -0.1631 -0.0066 -0.3177
  147SAPE   H2X16168   4.327   3.903   6.634 -1.0583  1.7702 -1.2856
  147SAPE   H2Y16169   4.269   3.742   6.616 -1.6197 -0.5879  0.8608
  147SAPE   C2316170   3.719   4.130   6.607 -0.2368  0.1160 -0.6148
  147SAPE   H3R16171   3.675   4.158   6.509 -2.5306  0.2296  0.4243
  147SAPE   H3S16172   3.823   4.171   6.606 -0.4399  0.7027  0.7366
  147SAPE   C2416173   3.642   4.189   6.719 -0.4351  0.6093 -0.1606
  147SAPE   H4R16174   3.646   4.299   6.703 -0.2181  1.1095  2.9739
  147SAPE   H4S16175   3.697   4.174   6.815 -0.4757 -1.8880 -0.5117
  147SAPE   C2516176   3.500   4.135   6.714 -0.6408 -0.7341 -0.0101
  147SAPE   H5R16177   3.472   4.097   6.614  3.2976 -0.7139 -1.1919
  147SAPE   C2616178   3.420   4.105   6.819  0.0549  0.5251 -0.6159
  147SAPE   H6R16179   3.315   4.070   6.810 -0.0345  0.6980 -0.2417
  147SAPE   C2716180   3.455   4.114   6.961  0.1834 -0.2796 -0.3964
  147SAPE   H7R16181   3.522   4.028   6.980  1.9219  1.5679  2.1629
  147SAPE   H7S16182   3.368   4.082   7.023 -0.1467  3.8550  1.4340
  147SAPE   C2816183   3.493   4.248   7.018  0.4737  0.5293  0.7792
  147SAPE   H8R16184   3.447   4.338   6.974 -1.2537 -0.5669  0.3150
  147SAPE   C2916185   3.586   4.259   7.121  0.7086 -0.5738 -0.0474
  147SAPE   H9R16186   3.601   4.354   7.173  1.3811 -1.8950  2.2486
  147SAPE  C21016187   3.655   4.144   7.183  0.2177  0.7412 -0.0278
  147SAPE  H10R16188   3.757   4.180   7.209  0.4567 -0.0817  0.1808
  147SAPE  H10S16189   3.687   4.062   7.115 -0.7048  0.6327 -0.3435
  147SAPE  C21116190   3.590   4.083   7.301  0.5623  0.9442  0.1977
  147SAPE  H11R16191   3.525   3.996   7.291  1.4340  0.2948  0.0878
  147SAPE  C21216192   3.605   4.103   7.430  0.0258 -0.2422 -0.3776
  147SAPE  H12R16193   3.550   4.042   7.503  0.2609  1.3203  1.1122
  147SAPE  C21316194   3.694   4.192   7.512  0.7401  0.1198 -0.0863
  147SAPE  H13R16195   3.663   4.194   7.618  1.1244  2.6287  0.0265
  147SAPE  H13S16196   3.680   4.299   7.486  0.9254  0.0753 -0.3840
  147SAPE  C21416197   3.839   4.165   7.502 -0.3546 -0.0876 -0.6135
  147SAPE  H14R16198   3.863   4.119   7.405 -2.2260  0.9823 -1.6171
  147SAPE  C21516199   3.932   4.219   7.583  0.0161  0.0206  0.3257
  147SAPE  H15R16200   4.041   4.207   7.569 -0.0346 -2.5561  1.7547
  147SAPE  C21616201   3.914   4.315   7.693  0.4758 -0.2635 -0.4600
  147SAPE  H16R16202   3.807   4.338   7.710  0.7903  1.3303 -0.5758
  147SAPE  H16S16203   3.954   4.411   7.654 -1.0671  1.9767  3.1968
  147SAPE  C21716204   3.991   4.274   7.817  0.4353  0.1089  0.7277
  147SAPE  H17R16205   3.951   4.172   7.839 -0.6289  0.7032  1.5856
  147SAPE  H17S16206   3.964   4.342   7.900 -1.4768  0.8058 -0.4340
  147SAPE  C21816207   4.148   4.280   7.803  0.1160  1.0601  0.3836
  147SAPE  H18R16208   4.184   4.380   7.769  0.3829  1.4385  1.7466
  147SAPE  H18S16209   4.189   4.210   7.728 -0.6715 -1.2169  2.0254
  147SAPE  C21916210   4.212   4.236   7.936  1.1486  0.1849 -0.0709
  147SAPE  H19R16211   4.201   4.126   7.942 -1.3028  0.4826  1.7410
  147SAPE  H19S16212   4.145   4.271   8.018 -1.5937 -3.4513 -0.6433
  147SAPE  C22016213   4.362   4.268   7.958 -0.3919 -0.3407 -0.5149
  147SAPE  H20R16214   4.425   4.251   7.868 -2.0949 -1.0307 -1.5927
  147SAPE  H20S16215   4.398   4.223   8.053  1.9585  0.5808 -0.9453
  147SAPE  H20T16216   4.364   4.378   7.972 -1.1394 -0.3302 -0.4942
  147SAPE   C3316217   4.112   3.860   6.726 -0.8786 -0.2021  0.3934
  147SAPE   H3X16218   4.035   3.784   6.702  0.3221 -0.6219 -2.2890
  147SAPE   H3Y16219   4.077   3.965   6.719  0.5947  0.5039  2.7461
  147SAPE   C3416220   4.154   3.832   6.874 -0.0681 -0.6066 -0.2204
  147SAPE   H4X16221   4.248   3.884   6.901 -0.3499  0.0806 -0.5559
  147SAPE   H4Y16222   4.166   3.723   6.893  0.3384 -0.2942  1.3878
  147SAPE   C3516223   4.049   3.875   6.976  0.4604  0.0855 -0.0631
  147SAPE   H5X16224   3.951   3.823   6.971 -0.8606  2.6483 -2.4132
  147SAPE   H5Y16225   4.038   3.986   6.977  1.8490  0.2190  1.2045
  147SAPE   C3616226   4.105   3.839   7.113  0.1798  0.4453  0.1998
  147SAPE   H6X16227   4.198   3.894   7.137 -0.5471  2.3355 -1.2180
  147SAPE   H6Y16228   4.126   3.730   7.107 -0.1019  0.4128 -0.2296
  147SAPE   C3716229   3.995   3.850   7.227  0.2554  0.3099  0.0876
  147SAPE   H7X16230   3.951   3.952   7.228  0.9263  0.6523 -1.9198
  147SAPE   H7Y16231   4.035   3.849   7.331 -2.2804  1.2544  1.1167
  147SAPE   C3816232   3.880   3.746   7.230  0.0883 -0.7865  0.7528
  147SAPE   H8X16233   3.930   3.648   7.238 -2.7462 -2.2017  2.0689
  147SAPE   H8Y16234   3.827   3.742   7.132 -0.7954 -0.2301  1.1953
  147SAPE   C3916235   3.796   3.757   7.354  0.1442  0.3447  0.6061
  147SAPE   H9X16236   3.729   3.845   7.364  1.4405  1.3719  0.3811
  147SAPE   H9Y16237   3.865   3.763   7.441 -0.3328 -1.9025  1.1760
  147SAPE  C31016238   3.707   3.631   7.372 -0.9323 -0.0553  0.2497
  147SAPE  H10X16239   3.754   3.539   7.331  0.7339  1.7761 -2.0811
  147SAPE  H10Y16240   3.618   3.645   7.308 -0.8295 -0.2507  0.0609
  147SAPE  C31116241   3.660   3.611   7.513  0.0301  0.4953  0.4732
  147SAPE  H11X16242   3.655   3.716   7.548  1.5553  0.4230  0.9181
  147SAPE  H11Y16243   3.736   3.566   7.581  0.4320  2.0184  1.0401
  147SAPE  C31216244   3.520   3.551   7.511 -0.7415 -0.8784 -0.3677
  147SAPE  H12X16245   3.468   3.629   7.451  2.3370  2.6951  1.3659
  147SAPE  H12Y16246   3.483   3.538   7.615 -0.6122 -0.6185 -0.2886
  147SAPE  C31316247   3.525   3.410   7.445 -0.5987 -0.6056  0.1109
  147SAPE  H13X16248   3.609   3.362   7.500  0.0455  0.2158 -0.1380
  147SAPE  H13Y16249   3.566   3.430   7.344 -1.2935  1.9240  0.2718
  147SAPE  C31416250   3.399   3.322   7.451 -0.6526  0.0740 -0.1104
  147SAPE  H14X16251   3.359   3.316   7.555 -0.8180 -0.1571 -0.1862
  147SAPE  H14Y16252   3.432   3.218   7.433 -0.3141  0.3870 -1.2930
  147SAPE  C31516253   3.291   3.355   7.349  0.3365 -0.1022 -0.6840
  147SAPE  H15X16254   3.346   3.348   7.252 -0.9396 -3.3111 -1.2343
  147SAPE  H15Y16255   3.260   3.461   7.363  1.0835  0.1634 -0.9478
  147SAPE  C31616256   3.164   3.266   7.354 -0.0723  0.0644 -0.3238
  147SAPE  H16X16257   3.123   3.270   7.457 -0.1088 -0.2421 -0.3263
  147SAPE  H16Y16258   3.198   3.161   7.338  0.1638 -0.1059  1.2046
  147SAPE  C31716259   3.067   3.299   7.235 -0.1007  0.5117  0.3106
  147SAPE  H17X16260   2.992   3.218   7.235 -0.2789  0.6758  0.1516
  147SAPE  H17Y16261   3.132   3.303   7.145  2.1563  1.6414  1.9394
  147SAPE  C31816262   2.999   3.435   7.252 -0.3643  0.0014 -0.1155
  147SAPE  H18X16263   3.066   3.524   7.254 -1.3611  0.7494  0.2609
  147SAPE  H18Y16264   2.967   3.424   7.358  0.8074 -0.4408  0.2050
  147SAPE  H18Z16265   2.907   3.452   7.192 -2.5692 -2.2441  2.4984
  148SAPE     N16266   3.562   3.218   5.766 -0.6656 -0.5957  0.2882
  148SAPE   HN116267   3.611   3.175   5.685  0.3188  0.8446  0.1146
  148SAPE   HN216268   3.459   3.218   5.750 -0.8814  1.9371  1.5377
  148SAPE   HN316269   3.597   3.314   5.782  0.1355 -0.3443 -2.5734
  148SAPE   C1216270   3.571   3.134   5.887 -0.4495  0.4634 -0.0467
  148SAPE  H12A16271   3.670   3.152   5.933 -0.6953  4.0189 -0.7505
  148SAPE  H12B16272   3.553   3.028   5.861 -1.1982  0.5732  0.0048
  148SAPE   C1116273   3.461   3.173   5.993 -0.0663  0.1515 -0.0134
  148SAPE  H11A16274   3.496   3.113   6.079 -0.6392  0.3134  0.3354
  148SAPE  H11B16275   3.359   3.138   5.965 -0.2942  1.0902 -0.3861
  148SAPE     P16276   3.368   3.395   6.108  0.1275  0.6517 -0.2152
  148SAPE   O1316277   3.396   3.538   6.108  0.2602  0.6066  0.4114
  148SAPE   O1416278   3.229   3.355   6.067 -0.9340  0.2938  0.1280
  148SAPE   O1216279   3.476   3.316   6.017 -0.2662  0.7152  0.2334
  148SAPE   O1116280   3.402   3.337   6.257 -0.7077 -0.3556  0.5213
  148SAPE    C116281   3.499   3.398   6.337 -0.4214  0.0979 -0.3689
  148SAPE    HA16282   3.502   3.508   6.319 -0.4897 -0.2155 -2.4252
  148SAPE    HB16283   3.477   3.377   6.444 -0.6290  0.8925 -0.2518
  148SAPE    C216284   3.630   3.336   6.302  0.0374  0.1693  0.4289
  148SAPE    HS16285   3.623   3.298   6.198  0.1718  1.3140  0.0026
  148SAPE   O2116286   3.647   3.215   6.384 -0.3130 -0.2138  0.6216
  148SAPE   C2116287   3.754   3.141   6.380 -0.2784  0.4945  0.5502
  148SAPE   O2216288   3.844   3.143   6.297  0.2518 -0.6984  0.2271
  148SAPE   C2216289   3.768   3.051   6.497 -0.1484 -0.1178  0.3531
  148SAPE   H2R16290   3.770   2.947   6.458  1.2464  0.6028 -1.5903
  148SAPE   H2S16291   3.866   3.069   6.547  0.6198 -0.9115 -0.8092
  148SAPE    C316292   3.757   3.428   6.320  0.4527 -0.2024  0.9611
  148SAPE    HX16293   3.730   3.529   6.281  2.5422  0.6529  1.6685
  148SAPE    HY16294   3.827   3.372   6.254 -3.2564 -1.5731 -2.0023
  148SAPE   O3116295   3.796   3.454   6.455  0.0628 -0.7951  0.3043
  148SAPE   C3116296   3.928   3.472   6.474  0.7636 -0.3838  0.9354
  148SAPE   O3216297   4.008   3.483   6.384 -0.2622 -0.2573 -0.6813
  148SAPE   C3216298   3.956   3.496   6.623 -0.8842 -0.6790  0.1868
  148SAPE   H2X16299   4.013   3.590   6.638 -0.5328 -1.1126  1.6157
  148SAPE   H2Y16300   4.020   3.415   6.663  0.8928 -0.0236 -1.2610
  148SAPE   C2316301   3.661   3.067   6.610  0.3077 -0.1581 -0.4053
  148SAPE   H3R16302   3.556   3.061   6.574  0.2538 -1.1132 -0.0968
  148SAPE   H3S16303   3.683   3.171   6.640  0.0475 -0.4698  0.8716
  148SAPE   C2416304   3.698   2.991   6.738 -0.0012 -0.2959 -0.2278
  148SAPE   H4R16305   3.631   3.024   6.820  0.2077 -0.0208 -0.1691
  148SAPE   H4S16306   3.801   3.021   6.765 -0.2794  0.3449  0.1313
  148SAPE   C2516307   3.683   2.842   6.732 -0.4599  0.6649  0.4945
  148SAPE   H5R16308   3.669   2.791   6.635  2.5839  1.6586 -0.5065
  148SAPE   C2616309   3.709   2.763   6.836 -0.1747 -0.2273 -0.4040
  148SAPE   H6R16310   3.691   2.656   6.814 -0.7971 -0.2113  0.0242
  148SAPE   C2716311   3.747   2.785   6.980 -0.5922  0.5765 -0.4913
  148SAPE   H7R16312   3.739   2.888   7.021 -1.5785  1.2011 -2.2257
  148SAPE   H7S16313   3.856   2.765   6.980 -0.5546  0.6245  1.4873
  148SAPE   C2816314   3.701   2.675   7.073 -0.3391 -0.6770  0.3187
  148SAPE   H8R16315   3.609   2.702   7.128 -0.3662 -0.9579  0.4131
  148SAPE   C2916316   3.750   2.551   7.103  0.0084  0.0667 -0.1970
  148SAPE   H9R16317   3.690   2.474   7.153  0.8867 -0.0446  0.6943
  148SAPE  C21016318   3.876   2.492   7.038 -0.6298  0.2871  0.1173
  148SAPE  H10R16319   3.959   2.565   7.050  1.8441 -2.4277 -0.0389
  148SAPE  H10S16320   3.855   2.468   6.931  2.3437  1.6354 -0.8149
  148SAPE  C21116321   3.922   2.369   7.118 -0.3648  0.4942  0.1620
  148SAPE  H11R16322   3.913   2.267   7.076 -3.2405  1.0005 -0.5291
  148SAPE  C21216323   3.991   2.374   7.234  1.0872  0.3608  0.6579
  148SAPE  H12R16324   4.014   2.279   7.284  1.3649 -0.4480 -0.9986
  148SAPE  C21316325   4.041   2.489   7.311  0.1926 -0.3903  1.0394
  148SAPE  H13R16326   3.987   2.578   7.273  1.0874 -0.1332  0.3717
  148SAPE  H13S16327   4.152   2.493   7.303 -0.0358  1.3568 -1.9740
  148SAPE  C21416328   4.005   2.465   7.453 -0.5470  0.6032  0.4265
  148SAPE  H14R16329   3.918   2.402   7.477  0.1664 -0.1202  1.1446
  148SAPE  C21516330   4.080   2.510   7.559  0.4158 -0.4877  0.0412
  148SAPE  H15R16331   4.039   2.485   7.659 -0.5745 -0.5944 -0.3868
  148SAPE  C21616332   4.209   2.592   7.558 -0.4284 -0.3766  0.2353
  148SAPE  H16R16333   4.262   2.590   7.460  1.0600 -0.8410  1.0488
  148SAPE  H16S16334   4.270   2.547   7.638 -0.8642 -1.7915 -0.2216
  148SAPE  C21716335   4.188   2.736   7.603  0.4287 -0.5681  0.2173
  148SAPE  H17R16336   4.130   2.785   7.522 -1.7106 -2.5354  0.4775
  148SAPE  H17S16337   4.287   2.786   7.600 -0.0813  0.4307  0.1651
  148SAPE  C21816338   4.129   2.755   7.747 -0.1740 -0.0019 -0.0736
  148SAPE  H18R16339   4.186   2.688   7.816  0.7766 -0.7051 -1.4982
  148SAPE  H18S16340   4.025   2.717   7.751 -0.1647 -0.1566 -1.1803
  148SAPE  C21916341   4.127   2.894   7.803 -0.1343 -0.3034  0.6667
  148SAPE  H19R16342   4.061   2.902   7.892 -1.5433  0.4924 -0.4320
  148SAPE  H19S16343   4.071   2.951   7.726 -0.6821 -1.8198 -0.0855
  148SAPE  C22016344   4.257   2.974   7.828  0.9781  0.4213 -0.2049
  148SAPE  H20R16345   4.315   2.983   7.733 -1.1360 -1.1148 -1.6792
  148SAPE  H20S16346   4.331   2.924   7.895  1.6256 -1.5007 -2.3002
  148SAPE  H20T16347   4.230   3.072   7.873  0.8792 -0.5969  2.0111
  148SAPE   C3316348   3.825   3.509   6.693  0.1785 -0.1971  0.7037
  148SAPE   H3X16349   3.769   3.413   6.681  2.8420 -1.5891 -1.1656
  148SAPE   H3Y16350   3.758   3.588   6.654  1.2390  0.5009  0.2731
  148SAPE   C3416351   3.834   3.536   6.836 -0.1928 -0.8031  0.2851
  148SAPE   H4X16352   3.737   3.515   6.885 -0.6694 -1.7300 -1.0055
  148SAPE   H4Y16353   3.857   3.644   6.839  3.2490 -1.3083 -3.1438
  148SAPE   C3516354   3.940   3.468   6.926  0.3469 -0.1602  0.0957
  148SAPE   H5X16355   3.942   3.507   7.030 -0.2950  1.8626 -0.6220
  148SAPE   H5Y16356   4.040   3.496   6.887  0.6409  0.4025  1.2322
  148SAPE   C3616357   3.927   3.321   6.937  0.3149  0.0936 -0.0524
  148SAPE   H6X16358   3.989   3.279   7.020 -0.3170 -1.0351 -0.1396
  148SAPE   H6Y16359   3.960   3.272   6.843 -0.1033 -0.5601  0.1356
  148SAPE   C3716360   3.789   3.257   6.963 -0.5660 -0.1761 -0.3479
  148SAPE   H7X16361   3.821   3.151   6.954  0.5551  0.2389 -1.2757
  148SAPE   H7Y16362   3.722   3.286   6.879 -0.5498 -3.0675 -1.3958
  148SAPE   C3816363   3.741   3.289   7.100  0.0893  1.0860 -1.0692
  148SAPE   H8X16364   3.636   3.321   7.089 -0.1428  0.1001 -1.7576
  148SAPE   H8Y16365   3.799   3.375   7.141 -1.0294  0.9029  0.9272
  148SAPE   C3916366   3.736   3.170   7.204  0.2532 -0.2867 -0.2859
  148SAPE   H9X16367   3.704   3.080   7.146  2.6495 -0.9747 -0.5916
  148SAPE   H9Y16368   3.647   3.190   7.268  0.0489 -2.0017  0.0006
  148SAPE  C31016369   3.865   3.150   7.276  0.6900 -0.0538  0.1656
  148SAPE  H10X16370   3.894   3.241   7.333 -1.2960  0.8174 -0.1839
  148SAPE  H10Y16371   3.949   3.129   7.207 -0.9998  0.5070 -2.1271
  148SAPE  C31116372   3.861   3.045   7.388  0.2478  0.3023  0.2799
  148SAPE  H11X16373   3.965   3.017   7.417  0.5353  2.7607  1.8116
  148SAPE  H11Y16374   3.797   2.964   7.348 -1.4355 -0.2547  3.9193
  148SAPE  C31216375   3.788   3.095   7.517  0.2672  0.3373  0.3347
  148SAPE  H12X16376   3.694   3.134   7.472  0.4184 -1.0062 -1.1476
  148SAPE  H12Y16377   3.844   3.174   7.572  1.1802  1.0588 -1.6074
  148SAPE  C31316378   3.761   2.973   7.609 -0.1152 -0.1029  0.0770
  148SAPE  H13X16379   3.853   2.916   7.634 -0.8471 -0.7748  1.2502
  148SAPE  H13Y16380   3.689   2.901   7.563  0.9561 -0.2875 -1.3614
  148SAPE  C31416381   3.692   3.003   7.742  0.7324 -0.1407 -0.2324
  148SAPE  H14X16382   3.758   3.061   7.809 -1.4235 -0.2101  2.0437
  148SAPE  H14Y16383   3.676   2.904   7.789  0.9900 -0.3978 -0.6846
  148SAPE  C31516384   3.566   3.086   7.723  0.5543  1.1465  0.8221
  148SAPE  H15X16385   3.511   3.053   7.633  1.1771 -0.0238  0.8577
  148SAPE  H15Y16386   3.582   3.194   7.701 -3.6448  2.0058  1.5121
  148SAPE  C31616387   3.471   3.076   7.840  0.4662 -0.4470 -0.3286
  148SAPE  H16X16388   3.533   3.123   7.920  0.5754  0.0745 -0.7225
  148SAPE  H16Y16389   3.456   2.972   7.877 -1.9041  1.0443  3.1582
  148SAPE  C31716390   3.338   3.153   7.836  0.6389  0.2567 -0.0919
  148SAPE  H17X16391   3.351   3.256   7.796  1.0313 -0.6529 -2.3928
  148SAPE  H17Y16392   3.288   3.143   7.934 -0.4792 -0.4625 -0.7220
  148SAPE  C31816393   3.246   3.076   7.739 -0.0247 -0.5170  0.7363
  148SAPE  H18X16394   3.299   3.073   7.641  1.1916  1.8042  1.2935
  148SAPE  H18Y16395   3.148   3.127   7.736  1.8821  3.2770 -0.5333
  148SAPE  H18Z16396   3.228   2.974   7.779  2.0552 -0.4943  1.7807
  149SAPE     N16397   2.611   3.495   6.262  0.0235 -0.1671  0.1018
  149SAPE   HN116398   2.554   3.522   6.180 -0.0038  1.8501  0.7521
  149SAPE   HN216399   2.695   3.447   6.223 -0.8214 -1.6091  0.0206
  149SAPE   HN316400   2.552   3.426   6.313 -2.8550  2.9698  1.1081
  149SAPE   C1216401   2.654   3.612   6.349 -0.0584 -0.0174 -0.4118
  149SAPE  H12A16402   2.737   3.569   6.409 -1.0628 -1.4725 -0.0410
  149SAPE  H12B16403   2.566   3.641   6.411  1.0151  1.4559  0.4425
  149SAPE   C1116404   2.707   3.727   6.266  0.2277 -0.1945 -0.1042
  149SAPE  H11A16405   2.751   3.790   6.347 -0.5525  1.6200 -1.0519
  149SAPE  H11B16406   2.634   3.790   6.212 -0.1269 -0.0252  0.5674
  149SAPE     P16407   2.887   3.769   6.094  0.2372 -0.3707 -0.2806
  149SAPE   O1316408   2.965   3.710   5.981  0.0172 -0.1534  0.7930
  149SAPE   O1416409   2.810   3.889   6.060 -0.8709 -0.7679  0.2363
  149SAPE   O1216410   2.810   3.667   6.183 -0.9125  0.6646 -0.3089
  149SAPE   O1116411   3.001   3.823   6.193  0.5097 -0.2818  0.2736
  149SAPE    C116412   3.067   3.737   6.286  1.3948  0.0793 -0.2965
  149SAPE    HA16413   2.991   3.709   6.362 -1.8010  1.4022 -2.8696
  149SAPE    HB16414   3.117   3.657   6.228  1.7687  1.0370 -1.2972
  149SAPE    C216415   3.166   3.811   6.381 -0.5440 -0.0316  0.1845
  149SAPE    HS16416   3.244   3.850   6.311 -0.4481 -1.0169 -0.2731
  149SAPE   O2116417   3.215   3.714   6.480 -0.5804 -0.4879 -0.1441
  149SAPE   C2116418   3.335   3.750   6.537 -0.4961  0.5400  0.2180
  149SAPE   O2216419   3.402   3.848   6.509  0.0111 -0.2582  0.1140
  149SAPE   C2216420   3.375   3.641   6.642 -0.4047 -0.0119  0.0546
  149SAPE   H2R16421   3.284   3.608   6.695  0.4128  1.2454  2.2761
  149SAPE   H2S16422   3.413   3.549   6.592 -0.3804 -0.2931  0.5898
  149SAPE    C316423   3.106   3.937   6.452  0.2474 -0.2803 -0.0461
  149SAPE    HX16424   3.060   3.988   6.366  1.4925  0.2656 -0.3909
  149SAPE    HY16425   3.181   4.008   6.492 -0.6894  1.2593 -0.9841
  149SAPE   O3116426   2.998   3.908   6.542  0.4706  0.1655 -0.1778
  149SAPE   C3116427   3.017   3.899   6.668 -0.0842  0.2204  0.0373
  149SAPE   O3216428   3.127   3.888   6.723  0.2348 -0.2845 -0.4905
  149SAPE   C3216429   2.880   3.889   6.738 -0.3589 -0.2956 -1.0191
  149SAPE   H2X16430   2.853   3.781   6.735 -0.5001 -0.3627  1.1974
  149SAPE   H2Y16431   2.804   3.947   6.682  1.4406  1.4053 -1.7612
  149SAPE   C2316432   3.455   3.697   6.762  0.7013  0.3447  0.0014
  149SAPE   H3R16433   3.407   3.796   6.776  0.4978  0.5170 -1.7393
  149SAPE   H3S16434   3.562   3.717   6.738 -0.0971  2.4676 -2.0955
  149SAPE   C2416435   3.444   3.602   6.878  0.4076 -0.7071 -0.6214
  149SAPE   H4R16436   3.486   3.504   6.847  0.3445 -0.7464 -0.5841
  149SAPE   H4S16437   3.338   3.576   6.899  0.8439  0.5353  3.5164
  149SAPE   C2516438   3.508   3.675   6.991  0.4096 -1.1785  0.0466
  149SAPE   H5R16439   3.617   3.681   6.979  0.4920 -2.5437  0.0651
  149SAPE   C2616440   3.448   3.713   7.105  0.7803 -0.2329  0.6116
  149SAPE   H6R16441   3.508   3.764   7.182  2.6180 -0.4865 -0.6421
  149SAPE   C2716442   3.302   3.689   7.146 -0.1721 -0.1409 -0.0109
  149SAPE   H7R16443   3.298   3.635   7.243 -2.0543  0.5387  0.3080
  149SAPE   H7S16444   3.243   3.634   7.069  2.8549 -0.6972 -2.0514
  149SAPE   C2816445   3.238   3.821   7.152 -0.0400 -0.0398 -0.4820
  149SAPE   H8R16446   3.221   3.868   7.054  0.3140  0.8542 -0.1149
  149SAPE   C2916447   3.219   3.900   7.262  0.2030 -0.2536  0.2223
  149SAPE   H9R16448   3.156   3.990   7.250 -1.6593 -1.7999 -1.7741
  149SAPE  C21016449   3.252   3.875   7.402  0.4336 -0.0458 -0.1950
  149SAPE  H10R16450   3.321   3.957   7.430 -1.5998  1.7492 -0.3612
  149SAPE  H10S16451   3.301   3.777   7.424 -1.4583 -1.3353 -1.5660
  149SAPE  C21116452   3.117   3.869   7.475  0.3219 -0.4297  0.6000
  149SAPE  H11R16453   3.067   3.774   7.450  0.2108 -0.4441  0.8756
  149SAPE  C21216454   3.075   3.943   7.572  1.2624 -0.0880 -0.0945
  149SAPE  H12R16455   2.983   3.915   7.625  0.2397  1.8345 -0.8024
  149SAPE  C21316456   3.143   4.053   7.641 -0.7652 -1.0598  0.2816
  149SAPE  H13R16457   3.246   4.018   7.660 -1.0893 -2.0114  0.3099
  149SAPE  H13S16458   3.102   4.073   7.743  0.9921  0.7519  0.6740
  149SAPE  C21416459   3.140   4.187   7.572 -0.4286  0.3131  0.6350
  149SAPE  H14R16460   3.180   4.178   7.470  0.3899  2.2872  0.7463
  149SAPE  C21516461   3.086   4.305   7.618 -0.1745 -0.5577 -0.0992
  149SAPE  H15R16462   3.089   4.393   7.552 -1.5306  0.5089  1.2332
  149SAPE  C21616463   3.009   4.321   7.747  0.3106  0.0278  0.5533
  149SAPE  H16R16464   3.060   4.287   7.840 -1.8080 -2.9086  0.7309
  149SAPE  H16S16465   2.920   4.255   7.739 -0.0644  0.3819  1.6419
  149SAPE  C21716466   2.954   4.461   7.756 -0.2225 -0.1338  0.5527
  149SAPE  H17R16467   2.916   4.512   7.665  0.9657  0.2159  0.2426
  149SAPE  H17S16468   3.032   4.524   7.802  0.8528 -0.6189 -0.5842
  149SAPE  C21816469   2.839   4.458   7.852  0.1590  0.2178 -0.0038
  149SAPE  H18R16470   2.862   4.405   7.947  0.5664  0.3598 -0.0219
  149SAPE  H18S16471   2.762   4.399   7.797  3.5284 -4.6386  0.2039
  149SAPE  C21916472   2.790   4.598   7.885 -0.2266  0.2081 -0.8368
  149SAPE  H19R16473   2.724   4.659   7.819  0.0832  0.5453 -0.8359
  149SAPE  H19S16474   2.882   4.659   7.893 -0.4041  0.1813  2.0650
  149SAPE  C22016475   2.726   4.604   8.021  0.0711 -0.3835  0.0449
  149SAPE  H20R16476   2.619   4.571   8.022 -0.2187  0.5312 -0.3077
  149SAPE  H20S16477   2.722   4.711   8.052 -0.9286 -0.2525 -0.5156
  149SAPE  H20T16478   2.784   4.552   8.100  0.6348  1.2136  0.6969
  149SAPE   C3316479   2.875   3.922   6.888 -0.4265  0.3386  0.0327
  149SAPE   H3X16480   2.859   4.031   6.900 -1.6047  0.0716  0.9311
  149SAPE   H3Y16481   2.964   3.882   6.940  1.0961  1.8122 -1.3741
  149SAPE   C3416482   2.744   3.864   6.949 -0.4014  0.1385  0.2436
  149SAPE   H4X16483   2.746   3.755   6.930  2.4715  0.4888 -1.8388
  149SAPE   H4Y16484   2.657   3.922   6.910  0.1892  1.8254  1.3523
  149SAPE   C3516485   2.749   3.871   7.103  0.2944 -0.1076 -0.4180
  149SAPE   H5X16486   2.800   3.960   7.146 -0.4105 -0.8401  2.0221
  149SAPE   H5Y16487   2.808   3.780   7.128 -1.7809 -2.0727 -2.4472
  149SAPE   C3616488   2.616   3.846   7.174  1.0321 -0.4188 -0.7033
  149SAPE   H6X16489   2.578   3.746   7.144 -1.2456  0.7005 -1.6073
  149SAPE   H6Y16490   2.528   3.906   7.145  1.1614  0.2794  0.3195
  149SAPE   C3716491   2.621   3.842   7.327  1.3265 -0.0084  0.2498
  149SAPE   H7X16492   2.548   3.915   7.367  0.0297 -0.1228 -1.8825
  149SAPE   H7Y16493   2.724   3.866   7.361  1.4097 -0.8936  0.6283
  149SAPE   C3816494   2.600   3.707   7.393 -0.0178 -0.1637  0.3490
  149SAPE   H8X16495   2.688   3.643   7.370 -1.4054 -2.3774  0.9926
  149SAPE   H8Y16496   2.505   3.666   7.352 -0.7730 -0.8417  2.6885
  149SAPE   C3916497   2.582   3.720   7.548  0.1498  0.4344 -0.1535
  149SAPE   H9X16498   2.581   3.619   7.595  1.5978  0.7866  0.6612
  149SAPE   H9Y16499   2.495   3.787   7.557  1.6465  2.3033  0.6795
  149SAPE  C31016500   2.705   3.795   7.612  0.5809 -0.4086 -0.0382
  149SAPE  H10X16501   2.696   3.899   7.575  0.4162 -1.4276 -3.0217
  149SAPE  H10Y16502   2.801   3.746   7.584 -0.0304  0.0811 -3.1852
  149SAPE  C31116503   2.692   3.780   7.764  0.6333  0.4734  0.2093
  149SAPE  H11X16504   2.690   3.670   7.781  0.4616  0.2787 -1.0276
  149SAPE  H11Y16505   2.590   3.809   7.797  0.2059  0.2908 -0.9121
  149SAPE  C31216506   2.798   3.852   7.848 -0.1074 -0.2352 -0.5292
  149SAPE  H12X16507   2.779   3.960   7.831  0.1830  0.0359  0.8428
  149SAPE  H12Y16508   2.902   3.848   7.809  0.4156  0.1572  0.8132
  149SAPE  C31316509   2.812   3.806   7.984 -0.1998  0.6797 -0.1848
  149SAPE  H13X16510   2.899   3.863   8.024  0.5397 -1.3481  1.2154
  149SAPE  H13Y16511   2.835   3.698   7.989 -1.2059  0.4378 -0.6101
  149SAPE  C31416512   2.692   3.826   8.081  0.1190 -0.4910  0.0290
  149SAPE  H14X16513   2.724   3.794   8.183  1.5011  0.8483  0.0290
  149SAPE  H14Y16514   2.603   3.768   8.049 -0.7357  0.7838  0.0702
  149SAPE  C31516515   2.644   3.976   8.095 -0.0187  0.0905 -0.4785
  149SAPE  H15X16516   2.593   4.003   8.000  0.9997 -0.0987 -1.0982
  149SAPE  H15Y16517   2.729   4.048   8.087  0.1691 -0.2008 -1.2269
  149SAPE  C31616518   2.547   4.014   8.210  0.5219 -0.7750 -0.3169
  149SAPE  H16X16519   2.584   3.982   8.309  1.2701  0.4837 -0.1770
  149SAPE  H16Y16520   2.445   3.973   8.193  0.3309 -0.6941  0.6194
  149SAPE  C31716521   2.521   4.168   8.210 -0.0102  0.6179  0.3488
  149SAPE  H17X16522   2.438   4.191   8.280 -0.2938 -1.9836  0.9116
  149SAPE  H17Y16523   2.478   4.191   8.111 -1.0069  0.6494  0.7862
  149SAPE  C31816524   2.637   4.257   8.250  0.2934 -0.2374 -0.3086
  149SAPE  H18X16525   2.683   4.238   8.349  0.2651 -1.8055 -0.5843
  149SAPE  H18Y16526   2.622   4.367   8.247 -2.8875 -0.6174 -0.2641
  149SAPE  H18Z16527   2.717   4.246   8.174 -0.1364  1.4531 -1.0377
  150SAPE     N16528   2.189   4.594   6.101  0.1717  0.1677  0.0372
  150SAPE   HN116529   2.170   4.506   6.153  0.5804 -0.5752 -1.0419
  150SAPE   HN216530   2.209   4.670   6.170 -1.4368  0.4832  0.1670
  150SAPE   HN316531   2.104   4.628   6.052  1.1299  1.0123 -1.0841
  150SAPE   C1216532   2.307   4.584   6.004 -0.0188  0.8857  0.4380
  150SAPE  H12A16533   2.392   4.613   6.069 -0.6241  0.9262  1.2190
  150SAPE  H12B16534   2.292   4.666   5.930 -0.8768  1.4727  1.2439
  150SAPE   C1116535   2.301   4.444   5.939  0.4293 -0.4655 -0.1144
  150SAPE  H11A16536   2.400   4.435   5.888  0.6155  2.1449 -0.2529
  150SAPE  H11B16537   2.219   4.431   5.865 -1.7162 -1.0624  2.3207
  150SAPE     P16538   2.401   4.272   6.121  0.6561 -0.3369  0.1216
  150SAPE   O1316539   2.486   4.190   6.027  0.1593  0.7555  0.2235
  150SAPE   O1416540   2.457   4.375   6.208 -0.1382  0.7343  0.2730
  150SAPE   O1216541   2.282   4.340   6.037  0.5067 -0.4422  0.0441
  150SAPE   O1116542   2.329   4.169   6.215 -0.0288  0.3334 -0.3350
  150SAPE    C116543   2.204   4.112   6.177  0.2123  0.5525 -0.2034
  150SAPE    HA16544   2.199   4.078   6.071 -0.5297  1.2773 -0.4175
  150SAPE    HB16545   2.185   4.017   6.230  0.6703  0.0350 -0.9498
  150SAPE    C216546   2.073   4.194   6.216 -0.7112 -0.5586 -0.3191
  150SAPE    HS16547   2.072   4.287   6.154  0.3414 -0.1815  0.2098
  150SAPE   O2116548   2.093   4.229   6.353  0.0145  0.3432 -0.4385
  150SAPE   C2116549   2.125   4.357   6.387  0.0717  0.0645 -0.3959
  150SAPE   O2216550   2.129   4.451   6.308  0.1168  0.0106  0.0606
  150SAPE   C2216551   2.149   4.371   6.534  0.6012 -0.5056 -0.0760
  150SAPE   H2R16552   2.194   4.471   6.551  0.4414 -0.4329 -0.0710
  150SAPE   H2S16553   2.055   4.376   6.593 -0.3126 -1.7148 -1.3944
  150SAPE    C316554   1.935   4.127   6.186  0.2346 -0.2662  0.1264
  150SAPE    HX16555   1.956   4.081   6.087  2.2426  0.1866  0.3110
  150SAPE    HY16556   1.869   4.217   6.190 -1.1234 -1.2458 -0.1705
  150SAPE   O3116557   1.897   4.024   6.286  0.0482  0.0779  0.7045
  150SAPE   C3116558   1.764   4.005   6.285  0.3124  0.3329 -0.3919
  150SAPE   O3216559   1.689   4.050   6.200  0.3174  0.1009 -0.1882
  150SAPE   C3216560   1.718   3.891   6.385  0.0004  0.0747 -0.3563
  150SAPE   H2X16561   1.796   3.862   6.458  0.0622  0.8164 -0.1199
  150SAPE   H2Y16562   1.721   3.799   6.323  2.1618 -1.6155  2.1476
  150SAPE   C2316563   2.226   4.252   6.588  0.3417  0.7833  0.4959
  150SAPE   H3R16564   2.333   4.264   6.564  0.7597  0.0149  1.9161
  150SAPE   H3S16565   2.189   4.156   6.548  1.8459  1.7758 -3.4139
  150SAPE   C2416566   2.200   4.236   6.740  0.2137 -0.6445 -0.2399
  150SAPE   H4R16567   2.222   4.129   6.762  0.0289 -0.3929  1.1957
  150SAPE   H4S16568   2.091   4.255   6.749  0.3139 -0.4482  0.5986
  150SAPE   C2516569   2.267   4.341   6.827  0.0118  0.7201  0.4737
  150SAPE   H5R16570   2.228   4.444   6.823 -2.3102 -0.1229  0.7849
  150SAPE   C2616571   2.376   4.323   6.895 -0.9919  0.1536 -0.6418
  150SAPE   H6R16572   2.421   4.411   6.942 -0.6501 -0.5206  0.3083
  150SAPE   C2716573   2.458   4.196   6.909  0.1502 -0.1210 -0.2323
  150SAPE   H7R16574   2.427   4.114   6.840 -2.3026  0.5437  0.0445
  150SAPE   H7S16575   2.439   4.161   7.012 -0.5536  1.2299  0.1072
  150SAPE   C2816576   2.604   4.214   6.907  0.2295  0.7320 -0.0903
  150SAPE   H8R16577   2.650   4.189   6.810 -0.6502 -1.4541  0.0312
  150SAPE   C2916578   2.683   4.275   7.005  0.2494 -0.7920  0.3083
  150SAPE   H9R16579   2.792   4.268   6.993  0.1588 -0.6197 -0.6460
  150SAPE  C21016580   2.629   4.337   7.131 -0.0965  0.5016 -0.5364
  150SAPE  H10R16581   2.562   4.265   7.182  0.9541 -0.6473 -0.7400
  150SAPE  H10S16582   2.573   4.430   7.107  1.6506  0.3456 -5.9171
  150SAPE  C21116583   2.735   4.381   7.228 -0.5497 -0.1591 -0.3427
  150SAPE  H11R16584   2.798   4.465   7.196  1.1408 -0.8208  1.2153
  150SAPE  C21216585   2.755   4.330   7.352  0.1137  0.0089 -0.1258
  150SAPE  H12R16586   2.819   4.385   7.421 -0.9638  0.1700  0.7620
  150SAPE  C21316587   2.662   4.218   7.409  0.1836 -0.0725  0.1148
  150SAPE  H13R16588   2.670   4.127   7.345 -1.0547  0.4480 -0.8015
  150SAPE  H13S16589   2.555   4.244   7.395  0.4582  0.3730 -1.1733
  150SAPE  C21416590   2.697   4.181   7.550  0.2416  0.0281 -0.1055
  150SAPE  H14R16591   2.804   4.158   7.565  0.5100  1.2721 -0.0770
  150SAPE  C21516592   2.611   4.169   7.661  0.1850  0.1868 -0.0264
  150SAPE  H15R16593   2.645   4.158   7.765 -1.4276 -1.8740  0.3213
  150SAPE  C21616594   2.461   4.187   7.662  0.5589 -0.6861  0.1896
  150SAPE  H16R16595   2.403   4.106   7.710  0.9963 -1.9224 -1.3431
  150SAPE  H16S16596   2.421   4.181   7.558  0.7059  1.0703  0.0133
  150SAPE  C21716597   2.426   4.327   7.722 -0.0185  0.5235 -0.1836
  150SAPE  H17R16598   2.481   4.355   7.814  1.2527 -3.1837  0.2646
  150SAPE  H17S16599   2.321   4.320   7.757  0.4018  1.2830  1.2410
  150SAPE  C21816600   2.440   4.436   7.618  0.0950  0.0714  0.2825
  150SAPE  H18R16601   2.378   4.420   7.528  1.5462 -1.0379 -0.5491
  150SAPE  H18S16602   2.539   4.422   7.569  1.0206 -1.0533  2.3975
  150SAPE  C21916603   2.420   4.574   7.677  0.3452  0.3440 -0.2578
  150SAPE  H19R16604   2.473   4.586   7.774 -0.1722  1.8956 -0.1586
  150SAPE  H19S16605   2.313   4.573   7.707  0.5560 -1.6596  0.5543
  150SAPE  C22016606   2.443   4.699   7.591  0.2167 -0.1474  0.1646
  150SAPE  H20R16607   2.425   4.786   7.658 -0.5019  1.4707 -2.0554
  150SAPE  H20S16608   2.355   4.726   7.528 -0.5051 -1.5856  0.5254
  150SAPE  H20T16609   2.543   4.705   7.544  0.8708 -2.0962  1.2551
  150SAPE   C3316610   1.582   3.923   6.449  0.8529  0.7243  0.1780
  150SAPE   H3X16611   1.542   3.834   6.502 -0.2309  1.1281  0.0517
  150SAPE   H3Y16612   1.517   3.942   6.360 -1.1766 -1.0661  1.2201
  150SAPE   C3416613   1.567   4.054   6.533  0.3645 -0.1850 -0.1307
  150SAPE   H4X16614   1.461   4.061   6.566  0.6081  2.6409  0.1608
  150SAPE   H4Y16615   1.597   4.151   6.488  2.4757 -0.0381  1.5219
  150SAPE   C3516616   1.665   4.049   6.650 -0.5268  0.4744 -0.3200
  150SAPE   H5X16617   1.669   4.143   6.709  0.1832  0.6240 -0.6016
  150SAPE   H5Y16618   1.765   4.022   6.610 -1.2966 -1.6262 -0.9027
  150SAPE   C3616619   1.628   3.943   6.757 -0.3271  0.1003  1.2041
  150SAPE   H6X16620   1.619   3.839   6.717  0.1473  0.1322  1.0183
  150SAPE   H6Y16621   1.524   3.957   6.795 -0.0162  0.3134  1.9832
  150SAPE   C3716622   1.719   3.936   6.880  0.2840  0.0141 -0.3750
  150SAPE   H7X16623   1.821   3.966   6.849  0.6203 -0.8102 -0.0945
  150SAPE   H7Y16624   1.721   3.831   6.916 -0.6536 -0.8129 -2.6140
  150SAPE   C3816625   1.660   4.020   6.997 -0.2904  0.6411 -0.3786
  150SAPE   H8X16626   1.573   3.960   7.032 -0.6198  0.2291 -1.8630
  150SAPE   H8Y16627   1.638   4.125   6.967  0.3615 -0.0804 -3.5228
  150SAPE   C3916628   1.756   4.032   7.119 -0.2793 -0.1938  0.2270
  150SAPE   H9X16629   1.841   4.091   7.081 -0.0733 -1.2735 -1.0226
  150SAPE   H9Y16630   1.794   3.930   7.141  0.1270 -0.2606 -0.7646
  150SAPE  C31016631   1.686   4.106   7.236 -1.1373 -0.2990 -0.0766
  150SAPE  H10X16632   1.581   4.071   7.242 -0.7275 -1.3249  1.1305
  150SAPE  H10Y16633   1.682   4.212   7.201  2.5256 -0.2449 -0.5185
  150SAPE  C31116634   1.764   4.096   7.370 -0.4075 -0.1377 -0.2029
  150SAPE  H11X16635   1.738   4.183   7.433 -1.4973  1.3026 -2.5865
  150SAPE  H11Y16636   1.873   4.113   7.352 -0.6391 -0.0803 -1.6331
  150SAPE  C31216637   1.755   3.964   7.447  0.0965  0.0715 -0.9623
  150SAPE  H12X16638   1.840   3.903   7.410 -0.1746 -1.7660  1.3724
  150SAPE  H12Y16639   1.659   3.913   7.425  1.9122 -2.9723 -2.0696
  150SAPE  C31316640   1.763   3.971   7.608  0.4495 -0.2380 -0.0753
  150SAPE  H13X16641   1.699   4.052   7.647 -0.6451 -0.7770 -0.7428
  150SAPE  H13Y16642   1.869   3.997   7.629 -0.5098  2.2295  1.9366
  150SAPE  C31416643   1.723   3.838   7.676  0.4866  0.7538 -0.1633
  150SAPE  H14X16644   1.809   3.772   7.652  0.0685 -0.8095  2.5228
  150SAPE  H14Y16645   1.627   3.809   7.629  1.1604 -3.0080  0.6256
  150SAPE  C31516646   1.718   3.844   7.826 -0.1700 -0.8298  0.7486
  150SAPE  H15X16647   1.634   3.912   7.855  0.2918 -0.3798  1.0387
  150SAPE  H15Y16648   1.809   3.896   7.864 -0.4173  0.2407 -0.0767
  150SAPE  C31616649   1.694   3.716   7.889  0.1326  0.3361 -0.7216
  150SAPE  H16X16650   1.773   3.641   7.871  1.1724  0.6774  2.2601
  150SAPE  H16Y16651   1.603   3.673   7.842 -1.3459  0.2244  2.1346
  150SAPE  C31716652   1.668   3.741   8.040  0.7033  0.9599 -0.3037
  150SAPE  H17X16653   1.578   3.806   8.047  0.2216  0.1786  0.9287
  150SAPE  H17Y16654   1.762   3.793   8.069  0.4688  0.7446  0.8323
  150SAPE  C31816655   1.651   3.613   8.122 -0.2622  0.3976 -0.0026
  150SAPE  H18X16656   1.608   3.647   8.219 -0.8781  0.0014 -0.1332
  150SAPE  H18Y16657   1.745   3.555   8.131 -0.2539  0.3553 -0.3805
  150SAPE  H18Z16658   1.571   3.545   8.086  1.4005 -0.7522 -1.5942
  151SAPE     N16659   4.467   2.382   5.932  0.2366 -0.2857 -0.6565
  151SAPE   HN116660   4.403   2.340   5.861  0.4141  0.2324 -1.1309
  151SAPE   HN216661   4.426   2.467   5.974 -0.5121 -0.9248 -0.0915
  151SAPE   HN316662   4.562   2.399   5.894 -1.2193  1.0565 -3.8836
  151SAPE   C1216663   4.478   2.293   6.054 -0.0527  0.1092 -0.6948
  151SAPE  H12A16664   4.477   2.188   6.016  3.3009  0.1745 -1.1824
  151SAPE  H12B16665   4.392   2.311   6.121  1.5851  2.8070  0.7844
  151SAPE   C1116666   4.609   2.326   6.131 -0.4643  1.0860 -0.3598
  151SAPE  H11A16667   4.609   2.274   6.229 -2.3155 -0.8887 -1.3626
  151SAPE  H11B16668   4.614   2.436   6.148 -0.0367  0.9274  0.5423
  151SAPE     P16669   4.864   2.321   6.068 -0.1195  0.2536  0.3420
  151SAPE   O1316670   4.956   2.251   5.978  0.0909 -0.0005 -0.2444
  151SAPE   O1416671   4.885   2.472   6.069  0.0605  0.5071 -0.3529
  151SAPE   O1216672   4.715   2.287   6.043  0.2580  0.6182 -0.1797
  151SAPE   O1116673   4.882   2.263   6.212 -0.5417  0.7327 -0.9220
  151SAPE    C116674   4.854   2.126   6.244  0.2386 -0.2790  0.0384
  151SAPE    HA16675   4.765   2.116   6.309 -0.2830  0.2735 -0.5913
  151SAPE    HB16676   4.835   2.071   6.149 -0.9826 -1.8456  1.1751
  151SAPE    C216677   4.973   2.068   6.318 -0.3665 -0.1861 -0.2589
  151SAPE    HS16678   5.039   2.020   6.243 -1.4853 -2.0008 -0.1214
  151SAPE   O2116679   4.935   1.971   6.417  0.3337  0.7137  0.0389
  151SAPE   C2116680   4.877   1.859   6.375 -0.6743  0.0497  0.1629
  151SAPE   O2216681   4.858   1.837   6.258 -0.2600  0.3491 -0.5080
  151SAPE   C2216682   4.865   1.765   6.495  0.0888  0.2053  0.4168
  151SAPE   H2R16683   4.761   1.726   6.504 -0.2587  1.2463  0.9281
  151SAPE   H2S16684   4.930   1.683   6.456  0.4199 -0.2036  1.8092
  151SAPE    C316685   5.053   2.183   6.389 -0.4603 -0.0552  0.3853
  151SAPE    HX16686   4.978   2.251   6.436  2.4763  1.6649  2.7630
  151SAPE    HY16687   5.114   2.236   6.313  0.1713 -0.3174  0.7080
  151SAPE   O3116688   5.129   2.131   6.498  0.3445  0.0354  0.0584
  151SAPE   C3116689   5.236   2.051   6.469 -0.1845 -0.4839  0.1072
  151SAPE   O3216690   5.267   2.022   6.353  0.9838  0.2443  0.4613
  151SAPE   C3216691   5.300   2.004   6.596 -0.4368 -0.1917  1.0380
  151SAPE   H2X16692   5.385   1.939   6.568 -0.4646 -0.1655  0.8965
  151SAPE   H2Y16693   5.227   1.939   6.649  0.9885 -2.5692  0.1391
  151SAPE   C2316694   4.916   1.823   6.628  0.6651  0.4237 -0.0165
  151SAPE   H3R16695   4.866   1.920   6.648 -2.6768 -1.0045 -1.1836
  151SAPE   H3S16696   5.025   1.846   6.634  0.5653  0.3699  2.1655
  151SAPE   C2416697   4.889   1.753   6.759  0.5394 -0.0361 -0.4342
  151SAPE   H4R16698   4.927   1.819   6.840  0.1467  2.9603 -2.5890
  151SAPE   H4S16699   4.955   1.663   6.761 -0.0507 -0.4493  1.4435
  151SAPE   C2516700   4.745   1.717   6.788  0.6182  0.2393  0.1310
  151SAPE   H5R16701   4.720   1.610   6.785 -1.9083  0.7693  1.3019
  151SAPE   C2616702   4.654   1.792   6.864 -0.5877  0.2218  0.4184
  151SAPE   H6R16703   4.552   1.752   6.879 -0.9156  1.4206  1.4979
  151SAPE   C2716704   4.674   1.929   6.918 -0.6781  0.0347  0.3240
  151SAPE   H7R16705   4.781   1.956   6.900 -0.0042  0.0374  3.8809
  151SAPE   H7S16706   4.674   1.917   7.028  2.3792 -0.7251  0.3111
  151SAPE   C2816707   4.569   2.032   6.874  0.3890 -0.4057 -0.1653
  151SAPE   H8R16708   4.468   2.010   6.912  0.0466  0.1469 -0.7518
  151SAPE   C2916709   4.585   2.135   6.788 -0.0256 -0.6120  0.0702
  151SAPE   H9R16710   4.514   2.218   6.783  0.0364 -0.4361  1.8483
  151SAPE  C21016711   4.718   2.164   6.722 -0.8362  0.1508  0.4992
  151SAPE  H10R16712   4.738   2.088   6.644 -0.7053  0.4002  0.2879
  151SAPE  H10S16713   4.800   2.178   6.796 -0.0487  0.7444 -0.4728
  151SAPE  C21116714   4.725   2.296   6.644 -0.4845  0.0567  0.3953
  151SAPE  H11R16715   4.700   2.274   6.539 -0.5126 -0.2583  0.4668
  151SAPE  C21216716   4.776   2.418   6.685  0.2102 -0.1431  0.8578
  151SAPE  H12R16717   4.766   2.511   6.627  1.8463 -0.1195  0.5988
  151SAPE  C21316718   4.835   2.429   6.823  0.3370  0.1908 -0.0332
  151SAPE  H13R16719   4.785   2.373   6.905 -0.8573  1.2107 -0.0362
  151SAPE  H13S16720   4.810   2.536   6.841 -0.5643  0.4619 -2.6694
  151SAPE  C21416721   4.982   2.414   6.839  0.4956  0.5879 -0.1331
  151SAPE  H14R16722   5.017   2.365   6.746 -0.5413  2.9864 -1.8363
  151SAPE  C21516723   5.061   2.446   6.948  0.2782 -0.1994 -0.1226
  151SAPE  H15R16724   5.170   2.429   6.944  0.2694 -0.0962 -0.7552
  151SAPE  C21616725   5.009   2.517   7.074 -0.5192  0.5454  0.4739
  151SAPE  H16R16726   4.908   2.559   7.055  0.6385  3.5316  0.5668
  151SAPE  H16S16727   5.077   2.603   7.094 -1.8631  1.7416 -0.0087
  151SAPE  C21716728   5.005   2.425   7.197 -0.2503 -0.2822  0.2430
  151SAPE  H17R16729   4.967   2.483   7.283  2.0292  0.1263  0.9938
  151SAPE  H17S16730   5.100   2.374   7.223 -0.3666 -1.8377 -2.1685
  151SAPE  C21816731   4.894   2.322   7.190  0.5891  0.1268  0.4620
  151SAPE  H18R16732   4.889   2.268   7.093  0.1061  0.6953  0.1662
  151SAPE  H18S16733   4.791   2.362   7.207 -0.2623 -1.2502 -1.3157
  151SAPE  C21916734   4.917   2.207   7.295  0.0351  0.1292  0.1650
  151SAPE  H19R16735   4.923   2.265   7.390  1.9588 -0.4334  0.3977
  151SAPE  H19S16736   5.010   2.151   7.273  1.1357  0.9259  2.4862
  151SAPE  C22016737   4.813   2.098   7.302  0.2658  0.8970 -0.3407
  151SAPE  H20R16738   4.852   2.019   7.371  0.2250  0.7864 -0.4449
  151SAPE  H20S16739   4.720   2.143   7.341 -0.0034  1.2717 -1.4079
  151SAPE  H20T16740   4.789   2.053   7.203 -0.1509  2.4443 -0.9645
  151SAPE   C3316741   5.328   2.117   6.702 -0.6573 -0.7892 -0.0406
  151SAPE   H3X16742   5.236   2.168   6.736  0.4021  0.5579  0.9067
  151SAPE   H3Y16743   5.398   2.194   6.660 -0.5208 -0.2111  1.2336
  151SAPE   C3416744   5.405   2.063   6.831 -0.4239 -0.8248  0.5333
  151SAPE   H4X16745   5.460   2.150   6.873 -1.0479  0.1010 -0.5296
  151SAPE   H4Y16746   5.483   1.986   6.810  0.7812  0.0823  1.6073
  151SAPE   C3516747   5.321   2.020   6.950  0.7782  0.1913 -0.4884
  151SAPE   H5X16748   5.280   1.924   6.910 -0.8856 -0.4941  2.7139
  151SAPE   H5Y16749   5.235   2.088   6.967  0.4262  0.1058 -1.8873
  151SAPE   C3616750   5.408   2.006   7.084 -0.2474 -0.1120 -0.1686
  151SAPE   H6X16751   5.477   2.093   7.090  0.9849 -1.2066  1.6255
  151SAPE   H6Y16752   5.479   1.923   7.067  0.6104  0.4930  0.4810
  151SAPE   C3716753   5.306   1.986   7.197 -0.2393 -0.0768  0.1806
  151SAPE   H7X16754   5.255   2.084   7.209  0.3149  0.3681 -1.0440
  151SAPE   H7Y16755   5.368   1.970   7.288  1.1193 -1.4301 -0.9507
  151SAPE   C3816756   5.196   1.876   7.179  0.0075 -0.1536 -0.8823
  151SAPE   H8X16757   5.241   1.782   7.141  1.0769 -0.0537  0.1134
  151SAPE   H8Y16758   5.128   1.924   7.106 -0.3010 -1.7178 -1.6563
  151SAPE   C3916759   5.131   1.850   7.317 -0.0008 -0.0663 -0.4575
  151SAPE   H9X16760   5.102   1.948   7.361  1.2611  0.5265 -0.9505
  151SAPE   H9Y16761   5.212   1.801   7.375 -0.1097 -0.8246 -0.9339
  151SAPE  C31016762   5.010   1.754   7.330 -0.4250 -0.1260  0.4242
  151SAPE  H10X16763   5.023   1.657   7.277  0.7198 -0.4318  1.2610
  151SAPE  H10Y16764   4.918   1.796   7.283 -0.1677 -1.1250 -1.0080
  151SAPE  C31116765   4.972   1.743   7.482 -0.3897  0.5397 -0.3316
  151SAPE  H11X16766   4.932   1.840   7.519 -0.9173  0.4701 -0.7161
  151SAPE  H11Y16767   5.063   1.714   7.540  0.1493  0.5067 -1.1771
  151SAPE  C31216768   4.854   1.645   7.508 -1.0708 -0.1491  0.3034
  151SAPE  H12X16769   4.900   1.545   7.494  0.3815  0.5259  0.1395
  151SAPE  H12Y16770   4.777   1.670   7.432 -0.4598 -3.0983 -1.3803
  151SAPE  C31316771   4.796   1.659   7.650 -0.9810  0.7631  0.6279
  151SAPE  H13X16772   4.743   1.756   7.656  1.3606  2.0925  0.4623
  151SAPE  H13Y16773   4.871   1.653   7.732 -0.5265 -0.6542  0.1301
  151SAPE  C31416774   4.698   1.551   7.691  0.2697  0.0001  0.5191
  151SAPE  H14X16775   4.616   1.539   7.617  0.0763 -0.8353  0.8621
  151SAPE  H14Y16776   4.643   1.570   7.786 -2.1023 -0.4084 -0.7418
  151SAPE  C31516777   4.753   1.411   7.705  0.1054  0.3509 -0.1796
  151SAPE  H15X16778   4.820   1.415   7.794  0.2624  1.6169 -0.3405
  151SAPE  H15Y16779   4.816   1.392   7.616 -1.3920  0.6664 -1.3212
  151SAPE  C31616780   4.631   1.305   7.711  0.2434  0.0715 -0.2801
  151SAPE  H16X16781   4.546   1.346   7.652 -0.0516  0.2388  0.2531
  151SAPE  H16Y16782   4.605   1.312   7.819 -2.4343 -1.0967 -0.8028
  151SAPE  C31716783   4.678   1.166   7.673 -0.3592  0.1219 -0.3082
  151SAPE  H17X16784   4.787   1.160   7.696 -0.1530 -1.2625 -1.5648
  151SAPE  H17Y16785   4.672   1.151   7.563 -1.6904 -1.4657 -0.0206
  151SAPE  C31816786   4.600   1.054   7.735  0.5444 -0.0100 -0.3354
  151SAPE  H18X16787   4.641   1.031   7.835  1.0593 -1.9307 -0.9615
  151SAPE  H18Y16788   4.611   0.959   7.679 -2.8765 -0.0100 -1.1630
  151SAPE  H18Z16789   4.492   1.077   7.748  0.3334  0.9390 -3.3558
  152SAPE     N16790   1.017   4.692   5.847  0.1179  0.3648  0.4505
  152SAPE   HN116791   0.924   4.673   5.890  0.5949  0.7157  1.6661
  152SAPE   HN216792   1.009   4.730   5.751 -0.7638  0.9630  0.7517
  152SAPE   HN316793   1.065   4.600   5.840  0.0958  0.3245  0.8085
  152SAPE   C1216794   1.091   4.794   5.931 -0.3340 -0.3813 -0.1551
  152SAPE  H12A16795   1.122   4.747   6.026  1.2904 -0.6865 -0.8258
  152SAPE  H12B16796   1.030   4.885   5.950 -2.4990 -1.4389 -1.6906
  152SAPE   C1116797   1.217   4.844   5.862 -0.1844 -0.3720  0.8950
  152SAPE  H11A16798   1.195   4.861   5.754  0.4161  0.3537  0.8766
  152SAPE  H11B16799   1.298   4.769   5.857 -2.3000 -2.6200 -0.4045
  152SAPE     P16800   1.352   5.067   5.844 -0.1098 -0.2403 -0.2375
  152SAPE   O1316801   1.378   5.015   5.705 -0.0601  0.1462 -0.6527
  152SAPE   O1416802   1.293   5.205   5.845 -0.5433  0.0073  0.0134
  152SAPE   O1216803   1.259   4.967   5.925  0.0804  0.2663  0.0513
  152SAPE   O1116804   1.488   5.059   5.922  0.1947  0.3269 -0.3044
  152SAPE    C116805   1.525   4.954   6.012 -0.0984  0.2018  0.4219
  152SAPE    HA16806   1.462   4.863   6.015  0.8113 -0.4216  1.1059
  152SAPE    HB16807   1.625   4.921   5.977 -1.5237 -2.1310 -1.6609
  152SAPE    C216808   1.552   5.012   6.159 -0.2199  0.7050 -0.4583
  152SAPE    HS16809   1.640   5.080   6.148  0.7637 -0.1788  1.6677
  152SAPE   O2116810   1.581   4.898   6.238 -0.0207 -0.0295  0.2714
  152SAPE   C2116811   1.707   4.863   6.234 -0.0296 -0.2164  0.1597
  152SAPE   O2216812   1.798   4.916   6.171  0.0918  0.0069  0.3783
  152SAPE   C2216813   1.723   4.743   6.323 -0.5648  0.4102  0.0342
  152SAPE   H2R16814   1.629   4.735   6.382 -0.5209 -0.5441 -0.0262
  152SAPE   H2S16815   1.720   4.656   6.254 -2.8101  0.3870  0.1216
  152SAPE    C316816   1.435   5.095   6.210  0.3339 -0.1746  0.5379
  152SAPE    HX16817   1.345   5.031   6.199 -0.4576  1.1079 -0.6024
  152SAPE    HY16818   1.420   5.180   6.140 -1.2460 -2.5076 -2.0500
  152SAPE   O3116819   1.447   5.146   6.348  0.7187  0.3630 -0.0756
  152SAPE   C3116820   1.409   5.055   6.431 -0.0694  0.2901 -0.4054
  152SAPE   O3216821   1.363   4.945   6.411 -0.0444  0.0689  0.4377
  152SAPE   C3216822   1.423   5.124   6.564 -0.8619 -0.8485  0.9279
  152SAPE   H2X16823   1.341   5.197   6.575  0.2116  0.4505  0.4042
  152SAPE   H2Y16824   1.516   5.184   6.558 -1.6545  0.1352 -1.9878
  152SAPE   C2316825   1.855   4.747   6.407  0.9945  0.1402  0.0474
  152SAPE   H3R16826   1.945   4.752   6.343  1.9025 -1.2408  1.1653
  152SAPE   H3S16827   1.860   4.651   6.465  1.7152 -0.1088 -0.4256
  152SAPE   C2416828   1.847   4.850   6.518 -0.8182  0.5262 -0.6047
  152SAPE   H4R16829   1.750   4.844   6.572 -1.6830 -1.8879 -2.3570
  152SAPE   H4S16830   1.847   4.951   6.471  0.3709  0.9785  0.3399
  152SAPE   C2516831   1.966   4.849   6.611 -0.4218  1.0965 -0.0152
  152SAPE   H5R16832   2.063   4.868   6.561 -0.7489  1.3914 -0.5392
  152SAPE   C2616833   1.969   4.819   6.738  0.4217 -0.0409 -0.1263
  152SAPE   H6R16834   2.065   4.833   6.790  0.8337  0.7371 -1.0707
  152SAPE   C2716835   1.856   4.782   6.830 -1.3418  0.2631  0.4982
  152SAPE   H7R16836   1.879   4.707   6.909  0.7084 -0.5740 -0.8510
  152SAPE   H7S16837   1.779   4.726   6.772 -1.1737 -0.4460  0.9527
  152SAPE   C2816838   1.785   4.900   6.892  0.2591 -0.0047 -0.1845
  152SAPE   H8R16839   1.754   4.977   6.820  2.4429  1.5639  0.4884
  152SAPE   C2916840   1.764   4.922   7.022 -0.3212 -0.0673 -0.2981
  152SAPE   H9R16841   1.721   5.016   7.060 -1.2146 -1.0365  1.1282
  152SAPE  C21016842   1.814   4.836   7.137 -0.5944  0.6193 -0.1135
  152SAPE  H10R16843   1.888   4.760   7.106 -0.8471 -0.4815  1.8763
  152SAPE  H10S16844   1.729   4.777   7.178  1.6823 -3.4237 -0.9097
  152SAPE  C21116845   1.874   4.930   7.241  1.2610 -0.0515  0.1725
  152SAPE  H11R16846   1.914   5.027   7.207 -2.0632  1.4993  0.5284
  152SAPE  C21216847   1.876   4.919   7.376 -0.5099 -0.0473  0.2472
  152SAPE  H12R16848   1.927   5.001   7.428  0.2100  0.1296 -0.7174
  152SAPE  C21316849   1.817   4.806   7.457 -0.1639 -0.0356 -0.3505
  152SAPE  H13R16850   1.772   4.737   7.383  2.5633 -1.8263 -0.4268
  152SAPE  H13S16851   1.739   4.843   7.527 -2.1015 -2.4639 -1.1553
  152SAPE  C21416852   1.927   4.745   7.525 -0.6094 -0.2163 -0.9329
  152SAPE  H14R16853   1.971   4.677   7.450 -3.2162  0.4791 -3.1329
  152SAPE  C21516854   1.981   4.762   7.651  0.2954  0.7926  0.6051
  152SAPE  H15R16855   2.075   4.709   7.675  0.3310 -0.4829 -2.2215
  152SAPE  C21616856   1.931   4.859   7.754  0.2789 -0.3419  0.4193
  152SAPE  H16R16857   1.892   4.948   7.700  1.6290  0.2276  0.3550
  152SAPE  H16S16858   2.017   4.893   7.816  0.4256 -0.2509  0.1641
  152SAPE  C21716859   1.808   4.804   7.835 -1.0343  0.5195  0.1551
  152SAPE  H17R16860   1.856   4.726   7.898  1.6593  2.3487  0.4643
  152SAPE  H17S16861   1.739   4.762   7.758 -0.0208 -0.9413  0.0024
  152SAPE  C21816862   1.730   4.917   7.895  0.6308 -0.3294 -0.0713
  152SAPE  H18R16863   1.676   4.984   7.825 -0.8251 -0.9167  0.4707
  152SAPE  H18S16864   1.801   4.985   7.946  0.4389 -1.3671  1.6044
  152SAPE  C21916865   1.620   4.855   7.988  0.1057 -0.0732 -0.5107
  152SAPE  H19R16866   1.666   4.797   8.071 -1.4548 -0.7438 -0.0927
  152SAPE  H19S16867   1.549   4.786   7.936 -2.3045  1.6862  0.3202
  152SAPE  C22016868   1.528   4.959   8.056  0.0558 -0.4534 -0.0322
  152SAPE  H20R16869   1.454   4.916   8.126  0.9795 -1.2471  0.4786
  152SAPE  H20S16870   1.478   5.016   7.975  0.5701  1.8391  1.2456
  152SAPE  H20T16871   1.599   5.021   8.115 -0.1731  0.0933 -0.3280
  152SAPE   C3316872   1.413   5.016   6.670  0.0662  0.1607  0.1062
  152SAPE   H3X16873   1.467   4.923   6.642 -0.2002 -0.0256  0.2197
  152SAPE   H3Y16874   1.309   4.993   6.699  0.0935 -0.1213 -0.0161
  152SAPE   C3416875   1.477   5.058   6.804  0.3996  0.8005  0.4603
  152SAPE   H4X16876   1.577   5.097   6.774  1.0599 -0.9598  0.3011
  152SAPE   H4Y16877   1.492   4.977   6.879 -1.0875 -0.9169 -1.0418
  152SAPE   C3516878   1.411   5.166   6.885 -1.1399  0.3005  0.7098
  152SAPE   H5X16879   1.301   5.154   6.895 -1.6657  2.8724 -1.4740
  152SAPE   H5Y16880   1.422   5.265   6.836 -0.2279  0.3636  1.0239
  152SAPE   C3616881   1.473   5.168   7.019  0.9161 -0.2300 -0.3528
  152SAPE   H6X16882   1.583   5.160   7.012  0.7666 -0.8256 -2.0715
  152SAPE   H6Y16883   1.439   5.080   7.078  0.8637  0.0896  0.0984
  152SAPE   C3716884   1.433   5.299   7.091  0.0687  0.2221 -0.2074
  152SAPE   H7X16885   1.329   5.326   7.061 -0.1057 -1.5081 -1.2495
  152SAPE   H7Y16886   1.505   5.372   7.048  0.4835 -0.1478 -0.1345
  152SAPE   C3816887   1.445   5.281   7.246 -0.0652 -0.2533  0.6989
  152SAPE   H8X16888   1.360   5.218   7.279  0.0443 -0.8730 -0.1711
  152SAPE   H8Y16889   1.430   5.387   7.276 -0.8503  0.3474 -1.6496
  152SAPE   C3916890   1.587   5.229   7.282  0.5942  0.0627 -0.4517
  152SAPE   H9X16891   1.661   5.301   7.242  0.7039  0.1189 -0.1503
  152SAPE   H9Y16892   1.604   5.130   7.236  1.4774  0.8816 -1.9234
  152SAPE  C31016893   1.602   5.208   7.430 -0.1183 -0.1196 -0.0666
  152SAPE  H10X16894   1.696   5.149   7.438  0.5288  1.0688  1.5182
  152SAPE  H10Y16895   1.513   5.154   7.470 -0.0034 -0.7333 -0.6412
  152SAPE  C31116896   1.631   5.333   7.511 -0.0869  0.6948  0.6378
  152SAPE  H11X16897   1.550   5.408   7.502  0.8203  1.8980  2.2760
  152SAPE  H11Y16898   1.712   5.381   7.451  0.1671 -0.1222  0.3243
  152SAPE  C31216899   1.674   5.321   7.660 -0.7306 -0.2448 -0.5523
  152SAPE  H12X16900   1.592   5.279   7.724  1.5113 -2.1359  1.1598
  152SAPE  H12Y16901   1.691   5.425   7.695  0.5060 -0.8971  0.7961
  152SAPE  C31316902   1.802   5.226   7.680 -0.2723 -0.7258  0.5389
  152SAPE  H13X16903   1.774   5.129   7.633  1.2527 -0.5646 -0.7749
  152SAPE  H13Y16904   1.804   5.213   7.790 -0.7414 -2.5395  0.3589
  152SAPE  C31416905   1.931   5.286   7.629 -0.5152 -0.5556  0.4702
  152SAPE  H14X16906   1.933   5.279   7.518 -0.5918 -2.4586  0.5737
  152SAPE  H14Y16907   2.021   5.231   7.664 -2.4535 -2.8791  1.9287
  152SAPE  C31516908   1.944   5.429   7.682 -0.8927  0.3581 -0.1523
  152SAPE  H15X16909   1.913   5.423   7.789  2.0096 -0.6462  0.6711
  152SAPE  H15Y16910   1.875   5.492   7.621 -1.0409 -1.4564 -1.8952
  152SAPE  C31616911   2.085   5.478   7.667  0.1853  0.4100  1.1163
  152SAPE  H16X16912   2.101   5.486   7.558  1.1051 -0.7755  1.1550
  152SAPE  H16Y16913   2.156   5.409   7.717  0.3154 -1.6267 -1.7673
  152SAPE  C31716914   2.120   5.624   7.715 -0.4549  0.0227 -0.6958
  152SAPE  H17X16915   2.050   5.699   7.671  0.9083  1.0774 -1.1128
  152SAPE  H17Y16916   2.223   5.645   7.680 -0.4539 -1.2055 -1.4421
  152SAPE  C31816917   2.107   5.626   7.869  1.0493  0.4190  0.3710
  152SAPE  H18X16918   2.124   5.729   7.908  0.3036 -0.6736  3.7231
  152SAPE  H18Y16919   2.172   5.554   7.923 -0.0305 -0.3941  0.5980
  152SAPE  H18Z16920   2.000   5.607   7.894  0.2622  1.0410 -2.3022
  153SAPE     N16921   5.374   4.747   5.972 -0.8440 -0.0420 -0.3627
  153SAPE   HN116922   5.447   4.812   5.936  1.0222 -2.3608 -0.8940
  153SAPE   HN216923   5.414   4.671   6.030  2.5051  2.1138  0.2695
  153SAPE   HN316924   5.324   4.715   5.886 -0.1550  1.8409 -1.4932
  153SAPE   C1216925   5.273   4.832   6.049  0.3044  0.5437  0.0528
  153SAPE  H12A16926   5.313   4.866   6.147  3.4275 -1.2568 -0.5286
  153SAPE  H12B16927   5.199   4.753   6.074  0.7619  0.1263  0.0789
  153SAPE   C1116928   5.227   4.943   5.953  0.6503  0.9690 -0.1206
  153SAPE  H11A16929   5.145   4.999   6.002  0.2243  1.5216 -1.4391
  153SAPE  H11B16930   5.174   4.909   5.862  1.3134 -3.3703  1.0002
  153SAPE     P16931   5.399   5.130   6.023 -0.0451 -0.4245  0.1547
  153SAPE   O1316932   5.537   5.070   6.035 -0.2988  0.1509 -0.2686
  153SAPE   O1416933   5.393   5.270   5.976 -0.0849 -0.5383  0.2049
  153SAPE   O1216934   5.324   5.041   5.908  0.4723 -0.0451 -0.2665
  153SAPE   O1116935   5.322   5.110   6.154  0.3704 -0.2980 -0.0424
  153SAPE    C116936   5.363   5.194   6.261  0.0090  0.1783 -0.1493
  153SAPE    HA16937   5.373   5.301   6.234  1.7928 -0.0444 -0.4122
  153SAPE    HB16938   5.275   5.182   6.328 -0.5862 -0.8562 -1.1070
  153SAPE    C216939   5.489   5.141   6.332 -0.1133  0.6433 -0.7553
  153SAPE    HS16940   5.568   5.140   6.254  0.6588 -1.5635  0.0127
  153SAPE   O2116941   5.469   5.010   6.372 -0.5026  0.0933 -0.5451
  153SAPE   C2116942   5.577   4.931   6.399  0.0065 -0.4002 -0.4327
  153SAPE   O2216943   5.693   4.957   6.375  0.2049 -0.0761 -0.5432
  153SAPE   C2216944   5.528   4.794   6.461  0.5546  0.8040 -0.5760
  153SAPE   H2R16945   5.472   4.822   6.553 -0.5942 -0.7634 -0.7754
  153SAPE   H2S16946   5.468   4.736   6.389  1.0846  1.8896 -1.9096
  153SAPE    C316947   5.545   5.236   6.446 -0.1277 -0.3400  0.7782
  153SAPE    HX16948   5.584   5.331   6.403 -1.4505  0.3894  1.1683
  153SAPE    HY16949   5.637   5.193   6.492 -0.5200 -1.5232  0.4708
  153SAPE   O3116950   5.448   5.270   6.542 -0.0064 -0.5268  0.0356
  153SAPE   C3116951   5.438   5.178   6.643  0.0452  0.8692 -0.3418
  153SAPE   O3216952   5.496   5.071   6.640  0.9167  0.0940  0.3067
  153SAPE   C3216953   5.342   5.229   6.751  0.5019 -0.2596  0.2943
  153SAPE   H2X16954   5.264   5.150   6.757  0.0392  0.1372 -0.4463
  153SAPE   H2Y16955   5.301   5.329   6.725 -0.3022 -0.6327  0.1135
  153SAPE   C2316956   5.652   4.707   6.491 -0.1627  0.0762 -0.6981
  153SAPE   H3R16957   5.723   4.698   6.406  2.6044 -0.4388  1.6155
  153SAPE   H3S16958   5.625   4.601   6.512  1.7338 -0.4139 -0.7009
  153SAPE   C2416959   5.723   4.757   6.621  0.0074 -0.3383  0.8159
  153SAPE   H4R16960   5.643   4.785   6.692 -0.0603  1.0850  0.1907
  153SAPE   H4S16961   5.740   4.865   6.599 -1.8092  0.2161  2.0268
  153SAPE   C2516962   5.842   4.697   6.692  0.2069 -0.2867  0.0206
  153SAPE   H5R16963   5.933   4.713   6.632  0.7577  2.9002  1.6185
  153SAPE   C2616964   5.851   4.634   6.811  0.3145 -0.7725  0.4171
  153SAPE   H6R16965   5.954   4.616   6.843  0.7963 -0.4183 -0.9107
  153SAPE   C2716966   5.739   4.613   6.909 -0.4556 -0.5405  0.2725
  153SAPE   H7R16967   5.742   4.506   6.940  2.4968 -1.3772 -2.6233
  153SAPE   H7S16968   5.640   4.627   6.860  0.3550  0.5472 -1.0930
  153SAPE   C2816969   5.766   4.706   7.027 -0.1483 -0.1825  0.3310
  153SAPE   H8R16970   5.866   4.699   7.071  0.4708  1.6272 -0.7273
  153SAPE   C2916971   5.678   4.804   7.071  0.4344 -0.0418  0.1458
  153SAPE   H9R16972   5.701   4.868   7.158 -0.5468  0.1994  0.2314
  153SAPE  C21016973   5.543   4.833   7.006  0.1389  0.3994  0.3843
  153SAPE  H10R16974   5.543   4.798   6.901  1.6573  0.9142  0.2013
  153SAPE  H10S16975   5.519   4.941   7.004 -2.3921 -0.0593  2.0706
  153SAPE  C21116976   5.426   4.772   7.085  0.0084 -0.8680  0.7623
  153SAPE  H11R16977   5.361   4.700   7.034  0.3817 -2.8342  3.0121
  153SAPE  C21216978   5.378   4.812   7.207 -0.6870 -0.0793  0.3438
  153SAPE  H12R16979   5.283   4.773   7.245 -0.6008 -0.4474  0.1789
  153SAPE  C21316980   5.429   4.921   7.294 -0.0815 -0.3728 -0.4385
  153SAPE  H13R16981   5.373   5.012   7.264 -1.6495 -1.2752 -0.3232
  153SAPE  H13S16982   5.537   4.940   7.276 -0.3924  1.1322 -0.8116
  153SAPE  C21416983   5.418   4.877   7.438 -0.4878 -0.1364  0.1811
  153SAPE  H14R16984   5.315   4.865   7.476 -0.2478 -1.3458  0.4680
  153SAPE  C21516985   5.517   4.854   7.524 -1.1099  0.0313  0.6446
  153SAPE  H15R16986   5.487   4.815   7.622  0.7022 -0.2578  1.1041
  153SAPE  C21616987   5.667   4.868   7.507  0.1505 -0.5715 -0.3342
  153SAPE  H16R16988   5.686   4.887   7.399  1.0396 -0.6350 -0.1901
  153SAPE  H16S16989   5.716   4.772   7.532  0.4189  0.3406  2.8706
  153SAPE  C21716990   5.730   4.983   7.595  0.1464  0.4078  0.2734
  153SAPE  H17R16991   5.675   5.078   7.578  2.2942  1.4776 -0.9787
  153SAPE  H17S16992   5.830   5.004   7.552  1.1531 -2.6141  1.0548
  153SAPE  C21816993   5.741   4.950   7.744 -0.6832 -0.2651 -0.1501
  153SAPE  H18R16994   5.780   4.846   7.753 -1.4726 -0.5545 -0.0255
  153SAPE  H18S16995   5.647   4.928   7.799 -1.0291 -0.6106 -0.8786
  153SAPE  C21916996   5.810   5.049   7.844 -0.4459 -0.3786  0.1738
  153SAPE  H19R16997   5.915   5.020   7.823 -0.7207 -1.6786  0.5448
  153SAPE  H19S16998   5.784   5.020   7.948  1.6726 -0.0798  0.7901
  153SAPE  C22016999   5.765   5.195   7.834  0.1824  0.1093 -0.5187
  153SAPE  H20R17000   5.654   5.192   7.834  0.1426  1.3440  0.3246
  153SAPE  H20S17001   5.782   5.240   7.734 -0.7840  1.8027  0.0426
  153SAPE  H20T17002   5.799   5.270   7.909 -1.0606  0.4392 -0.2685
  153SAPE   C3317003   5.405   5.245   6.891  0.9275  0.2829  0.2678
  153SAPE   H3X17004   5.449   5.149   6.926 -0.5688 -0.9453 -1.1511
  153SAPE   H3Y17005   5.322   5.275   6.959  0.6349 -0.4793  0.2468
  153SAPE   C3417006   5.510   5.355   6.903  0.0929  0.2061 -1.1102
  153SAPE   H4X17007   5.464   5.454   6.923 -2.1386 -1.2173  1.2727
  153SAPE   H4Y17008   5.548   5.370   6.800 -0.4490  0.3981 -1.2860
  153SAPE   C3517009   5.620   5.336   7.003  0.3453  0.1878  0.0599
  153SAPE   H5X17010   5.702   5.405   6.977 -0.4858  1.8064  1.6670
  153SAPE   H5Y17011   5.683   5.245   6.994 -0.9406 -0.8490  1.1308
  153SAPE   C3617012   5.589   5.338   7.150 -0.3453  0.3232  0.1781
  153SAPE   H6X17013   5.516   5.262   7.186 -0.4182 -0.4329 -1.5314
  153SAPE   H6Y17014   5.548   5.435   7.184  2.7626  1.0952  1.9641
  153SAPE   C3717015   5.721   5.314   7.237 -0.0508 -0.4563 -0.5580
  153SAPE   H7X17016   5.780   5.404   7.210  0.8794 -1.2376 -1.1549
  153SAPE   H7Y17017   5.752   5.219   7.188 -1.3669 -1.5733  0.7196
  153SAPE   C3817018   5.695   5.294   7.385 -0.2664  0.7485  1.5423
  153SAPE   H8X17019   5.781   5.293   7.455 -0.8335 -0.5685  2.2414
  153SAPE   H8Y17020   5.639   5.200   7.402  0.5208 -0.3114 -1.3300
  153SAPE   C3917021   5.616   5.407   7.443  1.5408 -0.0131 -0.2381
  153SAPE   H9X17022   5.511   5.401   7.408  0.6987  0.4677  2.1029
  153SAPE   H9Y17023   5.649   5.505   7.402  1.0537  0.4478  0.4487
  153SAPE  C31017024   5.613   5.418   7.591 -0.7721  0.5450 -0.1277
  153SAPE  H10X17025   5.714   5.445   7.626 -1.0334  0.1325  0.9813
  153SAPE  H10Y17026   5.595   5.317   7.636  0.0749  0.9479  1.1438
  153SAPE  C31117027   5.522   5.521   7.660  0.1088 -0.2319 -0.7321
  153SAPE  H11X17028   5.420   5.511   7.618 -0.5921 -1.3201  1.1845
  153SAPE  H11Y17029   5.547   5.627   7.640 -0.8716  0.7233  2.8386
  153SAPE  C31217030   5.524   5.487   7.809 -0.0521  0.4760 -0.1032
  153SAPE  H12X17031   5.628   5.517   7.835  0.7626  0.7969 -3.5812
  153SAPE  H12Y17032   5.518   5.377   7.821 -2.5824  0.5637 -0.2692
  153SAPE  C31317033   5.436   5.568   7.894  0.4014  0.1989 -1.0676
  153SAPE  H13X17034   5.328   5.547   7.876  0.1109  0.0519  0.7007
  153SAPE  H13Y17035   5.451   5.672   7.856 -4.1471  1.5607  0.4510
  153SAPE  C31417036   5.471   5.558   8.047 -0.5122 -0.2880  0.1048
  153SAPE  H14X17037   5.413   5.630   8.108  0.8934 -0.6275  1.8608
  153SAPE  H14Y17038   5.578   5.583   8.058 -0.8349  0.7167  1.0930
  153SAPE  C31517039   5.449   5.415   8.112  0.3055  0.2406 -0.0533
  153SAPE  H15X17040   5.417   5.340   8.036  0.3188  0.5134 -0.3284
  153SAPE  H15Y17041   5.368   5.412   8.188 -0.8970 -1.1293 -1.3542
  153SAPE  C31617042   5.578   5.352   8.173  0.6739 -0.0838  0.2030
  153SAPE  H16X17043   5.581   5.391   8.277 -0.5467  1.5549 -0.3525
  153SAPE  H16Y17044   5.662   5.388   8.110  0.5742 -0.3847 -0.0968
  153SAPE  C31717045   5.575   5.197   8.185  0.0160  0.4420  0.2927
  153SAPE  H17X17046   5.674   5.160   8.220  0.0347  0.3487  0.1418
  153SAPE  H17Y17047   5.579   5.154   8.083 -2.6145  1.0781 -0.1207
  153SAPE  C31817048   5.463   5.124   8.256 -0.1198 -0.5894  0.4015
  153SAPE  H18X17049   5.370   5.125   8.195 -0.1724 -1.0610  0.4776
  153SAPE  H18Y17050   5.438   5.175   8.352 -1.2865 -1.1214  0.3901
  153SAPE  H18Z17051   5.488   5.017   8.269 -2.4190 -1.4491 -1.7034
  154SAPE     N17052   0.683   5.703   6.096  0.0993 -0.7318  0.4256
  154SAPE   HN117053   0.724   5.660   6.010  3.6251  1.0526  1.1272
  154SAPE   HN217054   0.598   5.647   6.116 -0.5546 -1.0995 -2.9819
  154SAPE   HN317055   0.662   5.805   6.086 -0.5688 -0.8654  0.4344
  154SAPE   C1217056   0.783   5.682   6.212 -0.6490 -0.1127  0.1092
  154SAPE  H12A17057   0.806   5.574   6.223 -0.2143 -0.3465 -2.8858
  154SAPE  H12B17058   0.726   5.716   6.302 -2.2907  0.4415 -1.1117
  154SAPE   C1117059   0.913   5.749   6.199 -0.5148 -0.3937 -0.6070
  154SAPE  H11A17060   0.972   5.721   6.289 -0.2846 -0.2385 -0.7048
  154SAPE  H11B17061   0.906   5.860   6.203 -0.7299 -0.3844 -1.1617
  154SAPE     P17062   1.065   5.584   6.064  0.3656  0.3558 -0.3565
  154SAPE   O1317063   0.984   5.465   6.031 -0.1255 -0.4552 -0.1093
  154SAPE   O1417064   1.185   5.605   5.987  0.0052  0.1653  0.0467
  154SAPE   O1217065   0.973   5.709   6.072  0.2924 -0.5343 -0.4755
  154SAPE   O1117066   1.119   5.568   6.208  0.5275 -0.7913  0.0599
  154SAPE    C117067   1.226   5.487   6.241  0.3722  0.1912  0.3482
  154SAPE    HA17068   1.259   5.420   6.159 -1.2634  0.2749 -0.3879
  154SAPE    HB17069   1.318   5.546   6.262 -0.6828  2.1841 -0.5073
  154SAPE    C217070   1.182   5.401   6.365  0.5316  0.1596 -0.2441
  154SAPE    HS17071   1.271   5.338   6.387  1.1030  0.9077 -0.3977
  154SAPE   O2117072   1.061   5.329   6.346  0.7680 -0.7131 -0.3835
  154SAPE   C2117073   1.055   5.257   6.236 -0.4571  0.1252  1.6194
  154SAPE   O2217074   1.144   5.238   6.157  1.0995  0.0408 -0.2230
  154SAPE   C2217075   0.919   5.200   6.212  0.2952  0.5726 -0.2630
  154SAPE   H2R17076   0.852   5.190   6.300  2.2531 -0.5224  1.1423
  154SAPE   H2S17077   0.865   5.268   6.143 -0.7936 -2.0283 -2.0430
  154SAPE    C317078   1.157   5.492   6.489  0.0248  0.7366  0.3462
  154SAPE    HX17079   1.106   5.586   6.460  2.3714  1.4634 -1.6273
  154SAPE    HY17080   1.260   5.524   6.517  0.0445  0.6079  0.4189
  154SAPE   O3117081   1.098   5.427   6.601  0.0770 -0.3065  0.6304
  154SAPE   C3117082   0.966   5.437   6.615 -0.4581  0.4009 -0.5691
  154SAPE   O3217083   0.892   5.495   6.538 -0.4932  0.3044  0.4057
  154SAPE   C3217084   0.920   5.356   6.731  0.0794  0.0837  0.3111
  154SAPE   H2X17085   0.983   5.393   6.815  1.2545 -0.6285 -0.2372
  154SAPE   H2Y17086   0.935   5.246   6.735  0.3760  0.0970 -0.4074
  154SAPE   C2317087   0.903   5.059   6.142 -0.1931 -0.0080 -0.0435
  154SAPE   H3R17088   0.995   5.044   6.081 -0.2214 -0.7610  0.0880
  154SAPE   H3S17089   0.811   5.053   6.081 -0.1216  2.9206 -0.4755
  154SAPE   C2417090   0.896   4.938   6.239  0.1438 -0.3967  0.1596
  154SAPE   H4R17091   0.884   4.842   6.184 -0.3406 -0.5185  0.4781
  154SAPE   H4S17092   0.800   4.943   6.294  0.1351  1.3305  0.0043
  154SAPE   C2517093   1.016   4.926   6.336  0.0682  0.1158 -0.1554
  154SAPE   H5R17094   1.114   4.913   6.288  0.5689 -0.3949  0.9869
  154SAPE   C2617095   1.022   4.939   6.467  0.5137  0.5433  0.0879
  154SAPE   H6R17096   1.117   4.941   6.522 -0.5218  0.3424  1.9387
  154SAPE   C2717097   0.905   4.970   6.560 -0.1329  0.0613 -0.1488
  154SAPE   H7R17098   0.808   4.971   6.506 -0.6998  1.8803  0.8464
  154SAPE   H7S17099   0.912   5.074   6.599 -0.2271 -0.0461  0.1549
  154SAPE   C2817100   0.890   4.854   6.658 -0.6274 -0.2600 -0.1205
  154SAPE   H8R17101   0.832   4.772   6.612 -0.1128  0.1200 -1.4756
  154SAPE   C2917102   0.940   4.843   6.783 -0.1778  0.3173  0.7324
  154SAPE   H9R17103   0.926   4.742   6.824  0.0564 -0.8660 -1.9793
  154SAPE  C21017104   1.023   4.935   6.868 -0.0048  0.4417  0.1708
  154SAPE  H10R17105   0.949   4.976   6.940 -0.1342  0.6171 -0.0624
  154SAPE  H10S17106   1.059   5.019   6.805  2.3189 -0.4993  0.1820
  154SAPE  C21117107   1.148   4.874   6.919  0.3880  0.5460 -0.4004
  154SAPE  H11R17108   1.213   4.837   6.838  0.5075  1.5061 -0.7529
  154SAPE  C21217109   1.193   4.878   7.052 -0.1699  0.3846  0.1042
  154SAPE  H12R17110   1.294   4.839   7.073  0.0527  0.3580 -0.9709
  154SAPE  C21317111   1.137   4.938   7.176 -0.1105 -0.3435  0.5120
  154SAPE  H13R17112   1.038   4.984   7.157  0.1623 -1.2896 -3.8937
  154SAPE  H13S17113   1.203   5.022   7.205  0.1576  0.6905 -2.8949
  154SAPE  C21417114   1.121   4.829   7.278 -0.8178  0.5094 -0.0568
  154SAPE  H14R17115   1.037   4.760   7.264 -0.3678  0.1401 -0.9491
  154SAPE  C21517116   1.207   4.790   7.372 -0.2483  0.5401 -0.3966
  154SAPE  H15R17117   1.188   4.694   7.423 -0.0241  0.1233 -1.0969
  154SAPE  C21617118   1.344   4.853   7.397 -0.2819 -0.0099  0.3041
  154SAPE  H16R17119   1.357   4.955   7.356 -0.8042 -0.0779 -0.0338
  154SAPE  H16S17120   1.419   4.783   7.355 -0.8506 -0.1871 -0.4172
  154SAPE  C21717121   1.387   4.875   7.550  0.3953  0.2340  0.3421
  154SAPE  H17R17122   1.486   4.926   7.544  1.0809 -1.3408 -2.8975
  154SAPE  H17S17123   1.392   4.782   7.611 -0.3942 -0.4217 -0.5671
  154SAPE  C21817124   1.284   4.960   7.630  0.4773 -0.4955 -0.5581
  154SAPE  H18R17125   1.195   4.896   7.644  0.5014 -0.8731 -2.0896
  154SAPE  H18S17126   1.261   5.055   7.579  1.1943 -0.0168 -0.0146
  154SAPE  C21917127   1.343   5.006   7.762  0.2400  0.2813 -0.0955
  154SAPE  H19R17128   1.405   5.097   7.745 -0.4629  0.7037 -0.4006
  154SAPE  H19S17129   1.405   4.923   7.801  3.2509  2.4930  0.0389
  154SAPE  C22017130   1.224   5.035   7.850  0.0468  0.6152  0.5648
  154SAPE  H20R17131   1.150   5.104   7.804 -3.4824 -2.0545  1.9754
  154SAPE  H20S17132   1.270   5.077   7.942  0.8861  1.2761 -0.1413
  154SAPE  H20T17133   1.161   4.946   7.869 -1.5433  1.5852 -0.1279
  154SAPE   C3317134   0.765   5.371   6.760 -0.2730  0.5238 -0.1835
  154SAPE   H3X17135   0.701   5.290   6.719 -1.4515  0.0776  2.4243
  154SAPE   H3Y17136   0.729   5.470   6.725  1.8140  0.5989 -2.2611
  154SAPE   C3417137   0.740   5.376   6.912  0.3341  0.1931 -0.1707
  154SAPE   H4X17138   0.635   5.408   6.933  0.5841  0.3628  0.8387
  154SAPE   H4Y17139   0.817   5.441   6.959  1.0179  0.1283 -1.1809
  154SAPE   C3517140   0.754   5.233   6.972  0.3987 -0.4158  0.0559
  154SAPE   H5X17141   0.859   5.196   6.963  1.4407  2.5763 -0.6985
  154SAPE   H5Y17142   0.687   5.167   6.913 -1.7131  1.3114  0.4955
  154SAPE   C3617143   0.708   5.225   7.117 -0.1519 -0.0336  0.6612
  154SAPE   H6X17144   0.685   5.119   7.137  0.6354 -0.5385 -1.0316
  154SAPE   H6Y17145   0.627   5.292   7.155 -0.0962 -0.0129  0.7430
  154SAPE   C3717146   0.821   5.253   7.213 -0.2686 -0.1809  0.1403
  154SAPE   H7X17147   0.838   5.362   7.228 -0.8356 -0.0575 -0.1001
  154SAPE   H7Y17148   0.912   5.219   7.159  0.5730 -1.3060  2.1638
  154SAPE   C3817149   0.808   5.191   7.354 -0.0569 -0.2767  0.2328
  154SAPE   H8X17150   0.901   5.227   7.403  0.4573  1.1211 -1.7201
  154SAPE   H8Y17151   0.816   5.081   7.341 -1.0899 -0.3211 -0.0528
  154SAPE   C3917152   0.667   5.213   7.421  0.1741  0.3327  0.4702
  154SAPE   H9X17153   0.596   5.148   7.367 -1.2244 -0.2119  2.8711
  154SAPE   H9Y17154   0.640   5.320   7.405 -0.9287 -0.1493 -0.9339
  154SAPE  C31017155   0.680   5.175   7.569  0.1615 -0.2890 -0.4294
  154SAPE  H10X17156   0.586   5.194   7.626  0.4113  1.4427 -0.5643
  154SAPE  H10Y17157   0.749   5.244   7.623  1.0378 -2.0318  0.7308
  154SAPE  C31117158   0.725   5.027   7.601 -0.8369  1.0071 -0.0545
  154SAPE  H11X17159   0.821   5.009   7.549 -1.3236 -0.2443 -0.5607
  154SAPE  H11Y17160   0.650   4.962   7.549  1.0238 -1.2862  0.0247
  154SAPE  C31217161   0.728   4.986   7.754  0.0357  0.1845  0.1243
  154SAPE  H12X17162   0.635   5.017   7.805 -1.3735 -0.2638 -2.1332
  154SAPE  H12Y17163   0.815   5.033   7.805  0.9388 -0.2697 -0.9688
  154SAPE  C31317164   0.743   4.830   7.779 -0.0940 -0.4680 -0.3947
  154SAPE  H13X17165   0.764   4.810   7.886 -0.1236 -1.7830 -0.6230
  154SAPE  H13Y17166   0.825   4.785   7.718 -0.7655 -1.9407 -0.2380
  154SAPE  C31417167   0.609   4.757   7.740  1.1004  0.3743  0.8423
  154SAPE  H14X17168   0.593   4.751   7.631 -0.0038 -0.5281  1.0465
  154SAPE  H14Y17169   0.526   4.812   7.788 -0.7303 -3.4029  2.2631
  154SAPE  C31517170   0.621   4.617   7.798  0.0126  0.3485 -0.1847
  154SAPE  H15X17171   0.632   4.647   7.904 -1.2207 -2.9318  0.9618
  154SAPE  H15Y17172   0.716   4.576   7.759  0.8609 -0.0765  2.2283
  154SAPE  C31617173   0.495   4.531   7.773 -0.8319 -1.0159 -0.5068
  154SAPE  H16X17174   0.404   4.589   7.801 -1.2662 -0.8100 -2.2584
  154SAPE  H16Y17175   0.504   4.438   7.833  0.9765 -1.5596 -1.6064
  154SAPE  C31717176   0.473   4.479   7.628  0.7670  0.0511 -0.0933
  154SAPE  H17X17177   0.464   4.566   7.560  3.6526 -1.3559 -2.3765
  154SAPE  H17Y17178   0.368   4.445   7.615  1.0057 -0.5295 -0.5376
  154SAPE  C31817179   0.574   4.385   7.567 -0.8288  0.6562 -0.0036
  154SAPE  H18X17180   0.670   4.441   7.554 -0.1968 -0.5061 -0.4186
  154SAPE  H18Y17181   0.540   4.357   7.465 -0.5003  0.3483 -0.0275
  154SAPE  H18Z17182   0.585   4.300   7.637 -1.5854  0.1879 -0.4476
  155SAPE     N17183   3.409   7.187   5.835  1.2641 -0.2528 -0.3738
  155SAPE   HN117184   3.349   7.242   5.771  0.7168  0.0278  0.3673
  155SAPE   HN217185   3.369   7.209   5.929  0.8768  0.8930 -0.7930
  155SAPE   HN317186   3.504   7.222   5.813  1.2540  0.7477  1.1271
  155SAPE   C1217187   3.380   7.049   5.774  0.1382 -0.7514  0.1973
  155SAPE  H12A17188   3.423   7.056   5.672  1.8879  1.2917  1.0348
  155SAPE  H12B17189   3.269   7.047   5.770  0.0480  0.5133  1.4485
  155SAPE   C1117190   3.447   6.939   5.868 -0.2203  0.3304  0.8395
  155SAPE  H11A17191   3.427   6.842   5.816  1.6663  0.2080  0.3295
  155SAPE  H11B17192   3.398   6.933   5.968  0.5324  0.9561  1.2487
  155SAPE     P17193   3.662   6.825   5.937 -0.8813  0.0185 -0.4132
  155SAPE   O1317194   3.704   6.748   5.818  0.3110 -0.0641 -0.4245
  155SAPE   O1417195   3.771   6.863   6.035  0.7160  0.3379 -0.2259
  155SAPE   O1217196   3.590   6.954   5.889 -0.1237  0.6034  0.4643
  155SAPE   O1117197   3.551   6.742   6.012  0.0021  0.4003 -0.2762
  155SAPE    C117198   3.515   6.776   6.147  0.0708 -0.0272  0.3303
  155SAPE    HA17199   3.578   6.735   6.229  1.6311  1.7605  0.0727
  155SAPE    HB17200   3.510   6.886   6.163  1.8686 -0.0962  1.6031
  155SAPE    C217201   3.375   6.729   6.182  0.3746  0.3252 -0.4701
  155SAPE    HS17202   3.307   6.729   6.094  0.7973  2.7487 -0.8561
  155SAPE   O2117203   3.326   6.806   6.286  0.0812  0.4766  0.0584
  155SAPE   C2117204   3.199   6.795   6.317  0.2808  0.2651 -0.2958
  155SAPE   O2217205   3.121   6.707   6.287 -0.6223  0.4018 -0.6367
  155SAPE   C2217206   3.159   6.906   6.418 -0.2402  0.3149  0.0555
  155SAPE   H2R17207   3.254   6.932   6.469 -0.3152 -1.5411  1.2021
  155SAPE   H2S17208   3.132   6.989   6.350 -2.2483 -0.6468 -0.3718
  155SAPE    C317209   3.379   6.576   6.210  0.0895 -0.0480  0.1662
  155SAPE    HX17210   3.418   6.527   6.118 -2.1681 -1.5239 -0.0447
  155SAPE    HY17211   3.274   6.550   6.234 -0.4514  3.7219  2.2153
  155SAPE   O3117212   3.469   6.556   6.326  0.7206 -0.1789 -0.3443
  155SAPE   C3117213   3.412   6.509   6.433  0.7826  0.5611 -0.3683
  155SAPE   O3217214   3.301   6.455   6.443 -0.5324  0.1916 -0.1765
  155SAPE   C3217215   3.502   6.535   6.554 -0.0653 -0.9455 -0.3375
  155SAPE   H2X17216   3.603   6.552   6.512 -0.6261 -0.0533 -1.3377
  155SAPE   H2Y17217   3.500   6.445   6.620 -2.8437  0.0350  1.0031
  155SAPE   C2317218   3.048   6.865   6.512  0.8740  0.1751 -0.0921
  155SAPE   H3R17219   3.048   6.934   6.600  0.3646 -0.6358  0.5508
  155SAPE   H3S17220   3.057   6.765   6.559  0.4083 -0.0480 -0.4816
  155SAPE   C2417221   2.911   6.869   6.433 -0.4107 -0.2122  0.1637
  155SAPE   H4R17222   2.902   6.790   6.356 -1.2084  0.2397 -0.2137
  155SAPE   H4S17223   2.897   6.964   6.377  0.1196  0.6944  1.5374
  155SAPE   C2517224   2.796   6.858   6.526 -0.3372  0.0566  0.3402
  155SAPE   H5R17225   2.783   6.949   6.586 -1.1976 -0.0655  0.3322
  155SAPE   C2617226   2.726   6.748   6.555 -0.0022  0.4933  0.5682
  155SAPE   H6R17227   2.648   6.764   6.631 -0.5389  1.1737 -0.1141
  155SAPE   C2717228   2.733   6.607   6.503 -0.3722  0.1178 -0.9535
  155SAPE   H7R17229   2.802   6.605   6.415  1.1225  3.5006  0.0599
  155SAPE   H7S17230   2.638   6.563   6.465 -0.0234 -0.5565 -1.0602
  155SAPE   C2817231   2.780   6.523   6.621  0.3683  0.1712 -0.1860
  155SAPE   H8R17232   2.890   6.519   6.631  0.3317  0.2651  0.2520
  155SAPE   C2917233   2.705   6.431   6.689  0.2503 -0.0077 -0.3418
  155SAPE   H9R17234   2.742   6.385   6.781 -0.2646 -2.6691 -1.4226
  155SAPE  C21017235   2.557   6.397   6.663  0.3045  0.4861 -0.5594
  155SAPE  H10R17236   2.520   6.449   6.572 -0.0961  0.1026 -0.6163
  155SAPE  H10S17237   2.502   6.443   6.748  2.7229  0.9281  0.8150
  155SAPE  C21117238   2.542   6.246   6.644  0.0996  0.0359  0.2865
  155SAPE  H11R17239   2.489   6.220   6.551  2.1323 -2.2530 -0.2817
  155SAPE  C21217240   2.585   6.146   6.725 -0.0309 -0.3552  0.4817
  155SAPE  H12R17241   2.540   6.051   6.693  0.7780 -0.5234 -0.1821
  155SAPE  C21317242   2.651   6.161   6.858 -0.5728 -0.1329 -0.0742
  155SAPE  H13R17243   2.616   6.251   6.914  0.4867 -1.1997  2.3610
  155SAPE  H13S17244   2.759   6.170   6.836 -0.8013 -0.9930 -1.6979
  155SAPE  C21417245   2.637   6.038   6.940 -0.5122  0.3699 -0.4348
  155SAPE  H14R17246   2.611   5.939   6.900  0.3657  0.6451 -1.7178
  155SAPE  C21517247   2.657   6.042   7.076  0.1176  0.2245  0.2843
  155SAPE  H15R17248   2.637   5.956   7.142 -1.1513  2.7834  3.2950
  155SAPE  C21617249   2.690   6.166   7.148 -0.5892 -0.6456 -0.3432
  155SAPE  H16R17250   2.606   6.237   7.135  0.9367  1.6526  1.9376
  155SAPE  H16S17251   2.773   6.219   7.097 -1.1973  0.6404 -0.0062
  155SAPE  C21717252   2.712   6.155   7.303  0.5602  0.3122  0.5902
  155SAPE  H17R17253   2.816   6.117   7.319 -0.3090 -2.1531  0.5983
  155SAPE  H17S17254   2.643   6.088   7.358  0.5626  0.7626  1.1434
  155SAPE  C21817255   2.715   6.299   7.366  0.8478 -0.6627  0.2311
  155SAPE  H18R17256   2.626   6.357   7.335  0.6153 -1.7358 -1.2036
  155SAPE  H18S17257   2.795   6.351   7.310  3.1584 -2.0929  2.0927
  155SAPE  C21917258   2.738   6.292   7.518  0.2093 -0.4465  0.5011
  155SAPE  H19R17259   2.641   6.290   7.573  0.5550  0.6322  1.1500
  155SAPE  H19S17260   2.779   6.390   7.550  0.5363 -0.0247 -1.1461
  155SAPE  C22017261   2.840   6.186   7.563 -0.0897 -1.0428 -0.0470
  155SAPE  H20R17262   2.922   6.191   7.489  0.7160  1.7385  0.9447
  155SAPE  H20S17263   2.788   6.092   7.589 -1.6601  0.4465  2.4323
  155SAPE  H20T17264   2.888   6.220   7.657  1.5659  0.1802 -1.2966
  155SAPE   C3317265   3.448   6.652   6.631  0.0697 -0.2481 -0.4514
  155SAPE   H3X17266   3.441   6.743   6.568  2.2080 -0.2953 -0.7781
  155SAPE   H3Y17267   3.507   6.695   6.716 -0.9892  0.8582 -0.2580
  155SAPE   C3417268   3.319   6.630   6.717  0.0673 -0.2705  0.2912
  155SAPE   H4X17269   3.233   6.604   6.652  0.6757  0.0741 -0.6586
  155SAPE   H4Y17270   3.300   6.725   6.771  0.6445  0.8697 -1.4666
  155SAPE   C3517271   3.347   6.519   6.818  0.0898  0.2276 -0.2315
  155SAPE   H5X17272   3.448   6.522   6.862  0.2672 -0.9274 -0.5409
  155SAPE   H5Y17273   3.341   6.428   6.754 -0.8011  0.7517 -0.9166
  155SAPE   C3617274   3.240   6.509   6.925 -0.7339  1.3301  0.0732
  155SAPE   H6X17275   3.143   6.484   6.876 -0.1063 -1.0485 -0.0136
  155SAPE   H6Y17276   3.221   6.612   6.962  1.2551  1.6279  0.3036
  155SAPE   C3717277   3.270   6.416   7.045  0.4795  1.0701 -0.4395
  155SAPE   H7X17278   3.377   6.429   7.076  0.5025  1.3912 -0.6510
  155SAPE   H7Y17279   3.272   6.309   7.018  0.8657  1.2821 -1.2712
  155SAPE   C3817280   3.174   6.462   7.164 -0.5901  0.2531 -0.1736
  155SAPE   H8X17281   3.069   6.444   7.133 -0.0861 -0.1265 -1.7023
  155SAPE   H8Y17282   3.188   6.569   7.189  2.7294 -0.4992  1.4145
  155SAPE   C3917283   3.205   6.391   7.293 -0.0164  0.4567 -0.0844
  155SAPE   H9X17284   3.308   6.427   7.316  1.3026 -1.2756 -2.9742
  155SAPE   H9Y17285   3.209   6.283   7.268  1.5154  0.5642 -0.3600
  155SAPE  C31017286   3.104   6.423   7.405  0.1525 -0.0515  0.3889
  155SAPE  H10X17287   2.999   6.419   7.369  0.7077  0.8709 -1.3698
  155SAPE  H10Y17288   3.110   6.534   7.407  2.1583 -0.1070 -0.9214
  155SAPE  C31117289   3.121   6.363   7.540 -0.2882  0.1262 -0.7414
  155SAPE  H11X17290   3.125   6.252   7.546  2.4872  0.2660  0.8582
  155SAPE  H11Y17291   3.032   6.395   7.597 -0.4302  1.1158 -1.5024
  155SAPE  C31217292   3.241   6.420   7.616 -0.5485 -0.4596  0.1573
  155SAPE  H12X17293   3.226   6.528   7.637  1.5580  0.3778 -2.5126
  155SAPE  H12Y17294   3.336   6.413   7.559  0.8295 -2.9066  2.6243
  155SAPE  C31317295   3.265   6.332   7.743 -0.4250 -0.5846  0.5157
  155SAPE  H13X17296   3.304   6.233   7.712  1.8187 -0.0928  1.6428
  155SAPE  H13Y17297   3.168   6.333   7.798 -1.8716  4.6062 -1.8080
  155SAPE  C31417298   3.371   6.395   7.828  0.4886 -0.5605  0.4183
  155SAPE  H14X17299   3.334   6.498   7.850 -1.5978 -1.1568 -0.1922
  155SAPE  H14Y17300   3.467   6.403   7.772  0.7899  1.0522  1.1305
  155SAPE  C31517301   3.372   6.324   7.957  0.6299  0.0145  0.1033
  155SAPE  H15X17302   3.406   6.222   7.931 -0.1228 -0.0736 -0.5729
  155SAPE  H15Y17303   3.270   6.312   8.001  0.7973  1.1750  0.8310
  155SAPE  C31617304   3.464   6.394   8.062 -1.6758  0.4110  0.1406
  155SAPE  H16X17305   3.565   6.415   8.022  1.1136  1.7614  7.2187
  155SAPE  H16Y17306   3.470   6.324   8.148 -0.5096  0.2607 -0.0546
  155SAPE  C31717307   3.402   6.527   8.111 -0.7373  0.4957  0.6634
  155SAPE  H17X17308   3.292   6.521   8.131 -0.8460 -0.3502 -0.1800
  155SAPE  H17Y17309   3.395   6.608   8.036  0.5366  1.5272  1.6411
  155SAPE  C31817310   3.461   6.579   8.245 -0.1221 -0.1191  0.2123
  155SAPE  H18X17311   3.492   6.495   8.311  0.5499 -0.6926 -0.8298
  155SAPE  H18Y17312   3.397   6.648   8.304  1.2976  1.3184  0.1139
  155SAPE  H18Z17313   3.552   6.634   8.212 -0.6846  0.5047 -0.3196
  156SAPE     N17314   1.379   5.791   5.937 -0.1239 -0.6086 -0.6581
  156SAPE   HN117315   1.321   5.859   5.884  0.5313 -0.4388 -1.1597
  156SAPE   HN217316   1.468   5.769   5.888  1.9711  3.7327  0.9115
  156SAPE   HN317317   1.321   5.704   5.942  0.0781 -0.8076 -1.6943
  156SAPE   C1217318   1.404   5.843   6.074 -0.2211  0.0206 -0.7795
  156SAPE  H12A17319   1.509   5.878   6.076 -0.2223  0.3080 -3.6126
  156SAPE  H12B17320   1.392   5.761   6.148 -1.8935  0.0507 -0.9997
  156SAPE   C1117321   1.309   5.963   6.105  0.1417 -0.2064 -0.1610
  156SAPE  H11A17322   1.348   5.993   6.205 -0.7400  0.8210 -0.1092
  156SAPE  H11B17323   1.203   5.934   6.117 -0.1451  1.0756  0.5489
  156SAPE     P17324   1.387   6.212   5.988  0.3922  0.1019  0.1196
  156SAPE   O1317325   1.423   6.226   5.843 -0.0674  0.2791 -0.3107
  156SAPE   O1417326   1.291   6.308   6.050 -0.2487 -0.1034 -0.1805
  156SAPE   O1217327   1.320   6.064   6.000 -0.6978 -0.4304 -0.1223
  156SAPE   O1117328   1.520   6.197   6.073  0.1436  0.3263  0.0372
  156SAPE    C117329   1.654   6.194   6.022  0.6323  0.0158 -0.6327
  156SAPE    HA17330   1.675   6.085   6.017  2.9468  0.3830  0.6765
  156SAPE    HB17331   1.665   6.234   5.919  0.4511  1.3145 -0.1593
  156SAPE    C217332   1.764   6.277   6.096  0.2972  0.5994 -0.3285
  156SAPE    HS17333   1.865   6.258   6.054 -0.4545 -2.1530 -0.9704
  156SAPE   O2117334   1.760   6.242   6.235  0.2931  1.0747 -0.4705
  156SAPE   C2117335   1.811   6.129   6.265  0.7289 -0.5515 -0.1916
  156SAPE   O2217336   1.896   6.070   6.198  0.2767  0.1124 -0.9238
  156SAPE   C2217337   1.755   6.087   6.398 -0.6305 -0.8513 -0.2402
  156SAPE   H2R17338   1.843   6.110   6.462 -1.1390 -0.4422  0.3140
  156SAPE   H2S17339   1.687   6.166   6.436 -0.0020 -0.7910  0.7849
  156SAPE    C317340   1.733   6.430   6.078  0.1055 -0.0427  0.4183
  156SAPE    HX17341   1.737   6.445   5.968  2.1145  2.2967  0.7561
  156SAPE    HY17342   1.811   6.493   6.125  0.6119 -0.0423 -0.4188
  156SAPE   O3117343   1.596   6.468   6.118  0.3137  0.2885  0.4682
  156SAPE   C3117344   1.582   6.477   6.253 -0.1170  0.3659  0.1834
  156SAPE   O3217345   1.664   6.508   6.333 -0.1994  0.1434 -0.2622
  156SAPE   C3217346   1.444   6.452   6.292 -0.7474  0.7705  0.0272
  156SAPE   H2X17347   1.406   6.360   6.243  3.5699 -1.1177  0.0104
  156SAPE   H2Y17348   1.384   6.538   6.256  2.4884  2.2972 -1.8925
  156SAPE   C2317349   1.701   5.947   6.390 -0.0979  0.9094 -0.0757
  156SAPE   H3R17350   1.774   5.865   6.377 -0.5569  0.5406 -0.3092
  156SAPE   H3S17351   1.642   5.956   6.297  1.0300 -2.4918 -1.1995
  156SAPE   C2417352   1.627   5.913   6.519  0.4921 -0.1474  0.2535
  156SAPE   H4R17353   1.566   5.822   6.499 -1.4659  1.1716  0.0113
  156SAPE   H4S17354   1.552   5.992   6.544 -0.2077 -0.7736  0.1710
  156SAPE   C2517355   1.724   5.897   6.633  0.1850  0.1845 -0.5941
  156SAPE   H5R17356   1.775   5.800   6.635 -1.0520 -0.5171 -2.0454
  156SAPE   C2617357   1.757   5.985   6.731  0.0572 -0.0015 -0.2252
  156SAPE   H6R17358   1.835   5.955   6.804  1.8871  0.0278 -2.1260
  156SAPE   C2717359   1.696   6.117   6.760 -0.2586 -0.2593  0.2379
  156SAPE   H7R17360   1.611   6.097   6.828  1.0387 -1.1966  1.5996
  156SAPE   H7S17361   1.641   6.158   6.672  1.6979 -0.3276 -1.0309
  156SAPE   C2817362   1.787   6.222   6.814 -0.6047  0.3604 -0.5918
  156SAPE   H8R17363   1.831   6.287   6.736  1.6980  0.2203  0.5442
  156SAPE   C2917364   1.816   6.251   6.949  0.3091 -0.1416  0.5713
  156SAPE   H9R17365   1.862   6.349   6.972 -3.2652  1.4261  1.4231
  156SAPE  C21017366   1.757   6.181   7.071  0.5617 -0.2731 -0.4638
  156SAPE  H10R17367   1.837   6.129   7.127  0.9861 -1.0351 -1.7614
  156SAPE  H10S17368   1.689   6.097   7.045 -0.2427 -0.5739  2.4308
  156SAPE  C21117369   1.703   6.277   7.172 -0.5977 -0.2386  0.0944
  156SAPE  H11R17370   1.646   6.363   7.133  0.2458 -0.3224 -1.3796
  156SAPE  C21217371   1.693   6.262   7.306 -0.0709  0.5623 -0.0400
  156SAPE  H12R17372   1.641   6.336   7.368  1.2622  0.2051  1.5405
  156SAPE  C21317373   1.744   6.139   7.380 -0.0947  0.6151  0.5446
  156SAPE  H13R17374   1.765   6.055   7.311 -1.8906  0.7631 -0.2272
  156SAPE  H13S17375   1.660   6.099   7.440  1.0041 -1.0152  1.0198
  156SAPE  C21417376   1.872   6.151   7.451  0.2350 -0.1324  0.8325
  156SAPE  H14R17377   1.932   6.240   7.430  0.6858 -0.2063  1.7604
  156SAPE  C21517378   1.904   6.069   7.565  0.2838  0.2472  0.4965
  156SAPE  H15R17379   2.005   6.079   7.606  0.3743 -1.0273  0.5849
  156SAPE  C21617380   1.820   5.965   7.639 -0.3665  0.5434 -0.0582
  156SAPE  H16R17381   1.882   5.874   7.645 -3.2690 -1.6640 -2.1412
  156SAPE  H16S17382   1.733   5.931   7.578  0.1680  0.4023 -0.7451
  156SAPE  C21717383   1.784   6.013   7.781  0.4203  0.4964  0.1917
  156SAPE  H17R17384   1.876   6.035   7.840  1.2425 -2.0060 -0.1028
  156SAPE  H17S17385   1.742   5.919   7.824 -0.3508  0.1638 -1.2603
  156SAPE  C21817386   1.688   6.139   7.783  0.3428  0.4973  0.4682
  156SAPE  H18R17387   1.592   6.097   7.747  1.9836 -2.2979 -0.8702
  156SAPE  H18S17388   1.726   6.209   7.706 -0.8331 -1.0082 -1.5085
  156SAPE  C21917389   1.660   6.195   7.922 -0.4271 -0.2525  0.5667
  156SAPE  H19R17390   1.753   6.251   7.946  0.0308 -0.2016 -1.1911
  156SAPE  H19S17391   1.657   6.106   7.988 -0.6297 -1.7927 -1.4422
  156SAPE  C22017392   1.532   6.279   7.930  0.0680  0.7837 -0.4949
  156SAPE  H20R17393   1.449   6.209   7.904  1.3345 -0.8517 -0.2027
  156SAPE  H20S17394   1.543   6.364   7.859 -1.6555 -0.3975 -2.2474
  156SAPE  H20T17395   1.535   6.307   8.037  0.8043 -0.4868 -0.1814
  156SAPE   C3317396   1.428   6.426   6.444 -0.1839 -0.4927  0.5155
  156SAPE   H3X17397   1.437   6.527   6.488 -0.4428  0.0630 -0.6808
  156SAPE   H3Y17398   1.497   6.353   6.491  0.4631  0.1782  0.6150
  156SAPE   C3417399   1.287   6.368   6.477  0.0557 -0.4214  0.2470
  156SAPE   H4X17400   1.224   6.425   6.406  0.8273 -0.3353 -0.3812
  156SAPE   H4Y17401   1.274   6.375   6.587  2.8038  1.3732  0.4946
  156SAPE   C3517402   1.278   6.217   6.436 -0.0629 -0.6414  0.2410
  156SAPE   H5X17403   1.362   6.175   6.495  0.4766  2.3587  1.7479
  156SAPE   H5Y17404   1.301   6.201   6.329 -1.9391 -1.9091  0.0099
  156SAPE   C3617405   1.148   6.138   6.474 -0.0287  0.5534 -0.2545
  156SAPE   H6X17406   1.061   6.154   6.406  0.3593 -0.4164 -1.0066
  156SAPE   H6Y17407   1.105   6.172   6.570 -1.1161 -1.0973 -0.1185
  156SAPE   C3717408   1.170   5.981   6.482  0.1066 -0.4756  0.0718
  156SAPE   H7X17409   1.203   5.950   6.380  2.7280  1.7247  0.1963
  156SAPE   H7Y17410   1.066   5.944   6.486  0.4437 -1.4009  0.4099
  156SAPE   C3817411   1.254   5.943   6.601  0.2981  0.6735 -0.9312
  156SAPE   H8X17412   1.199   5.983   6.688  0.5812  1.1822 -0.9859
  156SAPE   H8Y17413   1.352   5.995   6.595  0.1869  0.9965 -0.0338
  156SAPE   C3917414   1.292   5.790   6.615 -0.1438 -0.3380  0.5892
  156SAPE   H9X17415   1.348   5.746   6.530 -1.0330 -0.0909 -0.1351
  156SAPE   H9Y17416   1.198   5.731   6.623 -0.1724 -0.7595 -2.4196
  156SAPE  C31017417   1.370   5.772   6.741  0.7887  0.0506 -0.0545
  156SAPE  H10X17418   1.308   5.811   6.825 -1.3142 -1.2613 -0.9694
  156SAPE  H10Y17419   1.455   5.844   6.735  1.5864 -0.7143  1.6660
  156SAPE  C31117420   1.402   5.627   6.785  0.4154 -0.4590 -0.6958
  156SAPE  H11X17421   1.417   5.569   6.692  1.2551 -0.0037 -0.8488
  156SAPE  H11Y17422   1.309   5.588   6.832  0.4800 -0.6595 -0.7356
  156SAPE  C31217423   1.524   5.609   6.877 -0.4382 -0.2563 -0.1989
  156SAPE  H12X17424   1.617   5.657   6.841 -1.4346  2.0096  0.1513
  156SAPE  H12Y17425   1.539   5.499   6.886 -1.5016 -0.3906  0.0428
  156SAPE  C31317426   1.504   5.671   7.017  0.0309  0.6583 -0.0965
  156SAPE  H13X17427   1.422   5.617   7.070 -0.3466  0.9806 -0.3549
  156SAPE  H13Y17428   1.453   5.769   7.007 -1.4827 -0.2126 -1.1609
  156SAPE  C31417429   1.636   5.693   7.099  0.4177  0.3230  0.1981
  156SAPE  H14X17430   1.695   5.599   7.090  0.9452  0.6887 -0.1601
  156SAPE  H14Y17431   1.606   5.704   7.206 -1.0269  0.9923 -0.2738
  156SAPE  C31517432   1.719   5.825   7.074  0.6415 -0.9064  0.4407
  156SAPE  H15X17433   1.719   5.898   7.158 -0.4685 -0.0931 -0.2654
  156SAPE  H15Y17434   1.686   5.882   6.985  0.2676 -1.3579  0.2917
  156SAPE  C31617435   1.867   5.790   7.028  0.5018 -1.1142  0.6552
  156SAPE  H16X17436   1.924   5.885   7.024 -0.2885 -0.7034 -1.7323
  156SAPE  H16Y17437   1.861   5.756   6.922  0.5043 -1.8314  0.8857
  156SAPE  C31717438   1.941   5.691   7.112  0.4333 -0.2967 -0.3872
  156SAPE  H17X17439   2.040   5.678   7.063  0.4578  0.5775 -0.5743
  156SAPE  H17Y17440   1.894   5.591   7.109 -0.5261  0.1599 -0.4484
  156SAPE  C31817441   1.964   5.746   7.255  0.4105  0.3612  0.0613
  156SAPE  H18X17442   2.050   5.688   7.294  2.3166  0.8954 -3.0828
  156SAPE  H18Y17443   1.873   5.740   7.318  0.9185 -0.6646  0.7160
  156SAPE  H18Z17444   2.008   5.849   7.257  0.7997  0.2436 -1.3766
  157SAPE     N17445   5.317   1.338   5.974  0.5920  0.2558  0.1275
  157SAPE   HN117446   5.382   1.273   6.023  0.9750 -0.1618 -0.9008
  157SAPE   HN217447   5.335   1.313   5.874 -0.4563 -0.6156  0.1488
  157SAPE   HN317448   5.367   1.423   6.008  1.5777 -0.2539 -0.0120
  157SAPE   C1217449   5.175   1.319   6.027  0.3374  0.0753 -0.2422
  157SAPE  H12A17450   5.105   1.381   5.967  1.9042  0.9970 -1.1548
  157SAPE  H12B17451   5.174   1.348   6.134  1.3233 -1.5302  0.2325
  157SAPE   C1117452   5.152   1.172   6.010  0.4788 -0.9627 -0.5862
  157SAPE  H11A17453   5.177   1.143   5.906  0.7407  1.5480 -1.2373
  157SAPE  H11B17454   5.043   1.160   6.029  0.1554  1.2800 -0.9632
  157SAPE     P17455   5.217   0.940   6.096 -0.0786  0.0482 -0.1985
  157SAPE   O1317456   5.182   0.893   6.232  0.0961 -0.3373  0.0942
  157SAPE   O1417457   5.124   0.898   5.990 -0.3220 -0.3116 -0.0526
  157SAPE   O1217458   5.232   1.095   6.096  0.3401  0.0911  0.4813
  157SAPE   O1117459   5.362   0.898   6.059  0.5771  0.1680 -0.0330
  157SAPE    C117460   5.425   0.953   5.928  0.1904 -0.1612  0.2377
  157SAPE    HA17461   5.372   0.902   5.844 -0.1519  1.9049 -0.8295
  157SAPE    HB17462   5.416   1.063   5.919 -0.0731 -0.2514 -0.7004
  157SAPE    C217463   5.571   0.901   5.919 -0.1289 -0.3878 -0.1449
  157SAPE    HS17464   5.600   0.902   5.812 -0.7529  1.9672 -0.3158
  157SAPE   O2117465   5.604   0.779   5.994  0.3564  0.0681 -0.0924
  157SAPE   C2117466   5.553   0.669   5.940  1.5960  0.0646  0.2464
  157SAPE   O2217467   5.487   0.669   5.836 -0.0936  0.6647  0.5720
  157SAPE   C2217468   5.605   0.554   6.010  0.2861  0.7584 -0.0762
  157SAPE   H2R17469   5.669   0.498   5.938  0.7877 -0.2612  1.1390
  157SAPE   H2S17470   5.665   0.580   6.099  1.2999 -1.5388 -0.0644
  157SAPE    C317471   5.664   1.004   5.989 -0.2742  0.0038  0.5322
  157SAPE    HX17472   5.648   1.100   5.936  0.3394  0.2483  0.7758
  157SAPE    HY17473   5.772   0.981   5.973 -0.5142 -0.9854  0.2996
  157SAPE   O3117474   5.641   1.026   6.129  0.1028 -0.3835  0.4493
  157SAPE   C3117475   5.570   1.133   6.169  0.1774 -0.5004 -0.1374
  157SAPE   O3217476   5.519   1.214   6.095  0.9212  0.1169 -0.0348
  157SAPE   C3217477   5.547   1.117   6.322 -0.2424 -0.4557 -0.0141
  157SAPE   H2X17478   5.621   1.049   6.370  2.2907  2.2495  0.0532
  157SAPE   H2Y17479   5.446   1.071   6.333 -0.5971  0.7906  2.4283
  157SAPE   C2317480   5.481   0.462   6.051  0.9389  0.0574  0.5329
  157SAPE   H3R17481   5.527   0.382   6.113 -0.2455 -0.3373  0.9098
  157SAPE   H3S17482   5.439   0.413   5.960  1.9046  1.9017 -0.9368
  157SAPE   C2417483   5.371   0.534   6.133  0.0263 -0.3017 -0.4967
  157SAPE   H4R17484   5.343   0.629   6.084 -0.2822  0.4590  1.1039
  157SAPE   H4S17485   5.426   0.559   6.227  0.1105 -0.1375 -0.5897
  157SAPE   C2517486   5.252   0.447   6.157  0.0152  0.0602 -0.0958
  157SAPE   H5R17487   5.219   0.390   6.069 -1.3088  0.1584  0.3237
  157SAPE   C2617488   5.186   0.431   6.273  0.0793 -0.0638 -0.1717
  157SAPE   H6R17489   5.096   0.369   6.279 -0.0135 -0.0665 -1.3137
  157SAPE   C2717490   5.228   0.498   6.400  0.0338 -0.3516  0.2214
  157SAPE   H7R17491   5.338   0.517   6.398 -0.1827  0.9960  0.2654
  157SAPE   H7S17492   5.213   0.423   6.480 -0.2316 -1.0284 -0.4543
  157SAPE   C2817493   5.155   0.631   6.421 -0.1429  0.1014  0.3962
  157SAPE   H8R17494   5.109   0.683   6.336  2.6072 -0.5294 -1.5614
  157SAPE   C2917495   5.160   0.700   6.541  0.5753 -0.2570 -0.1364
  157SAPE   H9R17496   5.105   0.795   6.546  0.8995 -0.1154  1.1240
  157SAPE  C21017497   5.240   0.662   6.671 -0.1834  0.0262 -0.0910
  157SAPE  H10R17498   5.229   0.553   6.693  0.5820 -0.1296 -0.4799
  157SAPE  H10S17499   5.180   0.706   6.754 -3.2290 -0.6689 -1.8504
  157SAPE  C21117500   5.383   0.700   6.658 -0.9444 -0.3214 -0.5798
  157SAPE  H11R17501   5.426   0.703   6.556 -1.2810 -0.7192 -0.7357
  157SAPE  C21217502   5.471   0.724   6.764  0.7250  0.3629  0.8840
  157SAPE  H12R17503   5.571   0.763   6.737  0.2932  1.1678  0.4155
  157SAPE  C21317504   5.426   0.719   6.911  0.5190 -0.0700 -0.3412
  157SAPE  H13R17505   5.316   0.717   6.924  0.4436  1.4032 -0.6089
  157SAPE  H13S17506   5.462   0.817   6.950  1.4470 -0.8263  0.7111
  157SAPE  C21417507   5.494   0.599   6.974 -0.2150  0.1052  0.1482
  157SAPE  H14R17508   5.548   0.535   6.903 -1.0011  0.5446 -0.8633
  157SAPE  C21517509   5.499   0.577   7.103 -0.1710 -0.0987  0.7485
  157SAPE  H15R17510   5.554   0.488   7.138  0.2484  0.4768  1.5599
  157SAPE  C21617511   5.437   0.659   7.211  0.2610  0.1291 -0.2844
  157SAPE  H16R17512   5.366   0.597   7.271  2.9493 -0.7629  2.0898
  157SAPE  H16S17513   5.363   0.737   7.185  0.1749  0.2186  0.2366
  157SAPE  C21717514   5.542   0.708   7.303 -0.6408 -0.6621  0.0245
  157SAPE  H17R17515   5.599   0.789   7.252 -0.7582 -0.7168 -0.1925
  157SAPE  H17S17516   5.610   0.632   7.347 -1.6279 -2.0927 -0.8823
  157SAPE  C21817517   5.473   0.782   7.425 -0.2290  0.3749 -0.0966
  157SAPE  H18R17518   5.419   0.697   7.471  0.5003 -0.5439 -0.8985
  157SAPE  H18S17519   5.405   0.862   7.392  1.6422  2.4771  1.0125
  157SAPE  C21917520   5.575   0.833   7.534 -0.4970  0.4088  0.5539
  157SAPE  H19R17521   5.609   0.931   7.498 -2.4564  0.8997 -0.0498
  157SAPE  H19S17522   5.664   0.767   7.531 -0.9844 -0.3669  2.2443
  157SAPE  C22017523   5.517   0.847   7.679 -0.6210 -0.2738  0.5984
  157SAPE  H20R17524   5.557   0.934   7.735 -1.7128  0.6731 -0.0856
  157SAPE  H20S17525   5.545   0.754   7.732 -1.6016 -0.2443  1.1641
  157SAPE  H20T17526   5.408   0.865   7.683 -0.8405 -1.4641  0.0400
  157SAPE   C3317527   5.559   1.253   6.389 -0.0109 -0.6265  0.2828
  157SAPE   H3X17528   5.504   1.335   6.337  1.4166  0.3399  0.2857
  157SAPE   H3Y17529   5.665   1.283   6.382  0.0298 -0.8196  0.0839
  157SAPE   C3417530   5.516   1.256   6.534 -0.3189 -0.0095 -0.4345
  157SAPE   H4X17531   5.414   1.216   6.550  0.3443 -1.2550  0.7246
  157SAPE   H4Y17532   5.516   1.360   6.574  1.9018  0.8387 -2.4885
  157SAPE   C3517533   5.614   1.172   6.624 -0.0868 -0.2775  0.3499
  157SAPE   H5X17534   5.714   1.220   6.625 -0.0282 -0.4062  1.0750
  157SAPE   H5Y17535   5.630   1.066   6.596 -1.4853  0.7131 -4.5770
  157SAPE   C3617536   5.559   1.156   6.771  0.6166  0.5892  0.5669
  157SAPE   H6X17537   5.486   1.072   6.772  2.2478 -0.8415  2.3317
  157SAPE   H6Y17538   5.500   1.242   6.808  1.4354  0.2366  2.7815
  157SAPE   C3717539   5.664   1.100   6.867 -0.6082 -0.6700  0.3630
  157SAPE   H7X17540   5.742   1.176   6.887  0.3998 -1.5285 -0.2557
  157SAPE   H7Y17541   5.702   1.008   6.818  0.4209 -1.1480  2.0014
  157SAPE   C3817542   5.622   1.077   7.010  0.0055  0.1120 -0.3936
  157SAPE   H8X17543   5.529   1.018   7.006  0.5055 -0.6323 -1.2035
  157SAPE   H8Y17544   5.604   1.173   7.063  0.0530 -0.8355  1.3948
  157SAPE   C3917545   5.732   0.990   7.075 -0.2705  0.5439  0.5328
  157SAPE   H9X17546   5.826   0.997   7.016  0.7373  0.7300  2.1500
  157SAPE   H9Y17547   5.707   0.883   7.058  1.7593 -0.0059  0.9174
  157SAPE  C31017548   5.775   1.021   7.217 -0.0978  0.1634 -0.2482
  157SAPE  H10X17549   5.684   1.033   7.279  0.7968 -1.7461  1.4773
  157SAPE  H10Y17550   5.825   1.121   7.212 -2.1443  1.2632  0.6174
  157SAPE  C31117551   5.867   0.925   7.286 -0.5888  0.5143 -0.5191
  157SAPE  H11X17552   5.964   0.923   7.233 -1.7855  2.3692 -2.8929
  157SAPE  H11Y17553   5.825   0.823   7.287  0.0724  0.2214  1.8715
  157SAPE  C31217554   5.907   0.969   7.428  0.7378 -0.6620 -0.3508
  157SAPE  H12X17555   5.820   0.992   7.494  0.1662 -0.0563 -1.3091
  157SAPE  H12Y17556   5.983   1.050   7.421 -0.3015  0.3065 -0.6289
  157SAPE  C31317557   5.972   0.850   7.492 -0.1129 -0.9751 -0.2043
  157SAPE  H13X17558   6.059   0.831   7.426 -0.2416 -0.6201 -0.4765
  157SAPE  H13Y17559   5.904   0.762   7.496  0.3997 -1.3880 -0.5991
  157SAPE  C31417560   6.010   0.890   7.640  0.1997  0.2198  0.0929
  157SAPE  H14X17561   6.047   0.995   7.646  0.2169  0.1548  1.3041
  157SAPE  H14Y17562   6.090   0.824   7.679  0.2417 -0.1347 -0.5872
  157SAPE  C31517563   5.895   0.863   7.733  0.3373 -0.5389  0.3130
  157SAPE  H15X17564   5.851   0.765   7.705 -0.4225 -0.3303  0.7517
  157SAPE  H15Y17565   5.817   0.940   7.715  0.2422 -0.1282  2.3625
  157SAPE  C31617566   5.940   0.871   7.876  0.0769  0.5609 -0.1041
  157SAPE  H16X17567   6.018   0.792   7.883  0.1729  0.6347 -0.3267
  157SAPE  H16Y17568   5.857   0.842   7.944 -0.3639 -0.0503 -0.8854
  157SAPE  C31717569   5.985   1.017   7.911 -0.1247 -0.3636 -0.2230
  157SAPE  H17X17570   6.080   1.051   7.867 -1.4333  0.6306 -2.3429
  157SAPE  H17Y17571   6.018   1.016   8.017 -0.2118 -0.5513 -0.1985
  157SAPE  C31817572   5.880   1.131   7.908  0.7814  0.1838  0.2156
  157SAPE  H18X17573   5.932   1.228   7.923 -0.0482  1.0013 -2.0703
  157SAPE  H18Y17574   5.806   1.117   7.990 -0.8863  2.3626 -0.8736
  157SAPE  H18Z17575   5.827   1.132   7.811 -0.6546 -0.1965  0.9660
  158SAPE     N17576   0.848   6.459   6.178 -0.0884 -0.6094  0.4901
  158SAPE   HN117577   0.783   6.490   6.102 -1.1785  0.9679  2.0225
  158SAPE   HN217578   0.829   6.525   6.256 -0.5319  1.2806 -1.1605
  158SAPE   HN317579   0.941   6.496   6.149 -0.4599 -0.0492 -0.0209
  158SAPE   C1217580   0.851   6.318   6.235 -0.9634  0.8843 -0.0677
  158SAPE  H12A17581   0.759   6.304   6.295  0.5414  0.3099  2.1720
  158SAPE  H12B17582   0.938   6.303   6.303 -0.9887  2.6605  0.3819
  158SAPE   C1117583   0.871   6.215   6.114  0.6906 -0.2352  0.1193
  158SAPE  H11A17584   0.886   6.113   6.155  0.0370 -0.7252 -0.8399
  158SAPE  H11B17585   0.954   6.255   6.051 -0.2640  0.0558 -0.9532
  158SAPE     P17586   0.643   6.098   6.046  0.1064  0.3842 -0.0200
  158SAPE   O1317587   0.528   6.117   5.958 -0.1811  0.3565  0.0316
  158SAPE   O1417588   0.691   5.962   6.034  0.0468  0.0143  0.0652
  158SAPE   O1217589   0.761   6.207   6.021 -0.2633  0.2744  0.2634
  158SAPE   O1117590   0.604   6.134   6.192  0.8244 -0.0558 -0.4031
  158SAPE    C117591   0.614   6.030   6.297  0.0172  0.9890  0.8727
  158SAPE    HA17592   0.529   5.958   6.295 -0.1463  1.1924  0.5256
  158SAPE    HB17593   0.708   5.973   6.285 -0.3212  0.3076  1.4068
  158SAPE    C217594   0.611   6.096   6.434 -0.7835 -0.4468 -0.2035
  158SAPE    HS17595   0.702   6.157   6.448 -1.9224  1.6625 -1.6760
  158SAPE   O2117596   0.604   5.999   6.536 -0.0797 -0.5397  0.2009
  158SAPE   C2117597   0.717   5.926   6.542  0.0521 -0.0896 -0.1060
  158SAPE   O2217598   0.814   5.949   6.473 -0.6147  0.0815 -0.1131
  158SAPE   C2217599   0.691   5.825   6.651 -0.3077  0.4758  0.2286
  158SAPE   H2R17600   0.631   5.870   6.733  0.6414  1.2341  0.5297
  158SAPE   H2S17601   0.631   5.740   6.613 -0.2182  0.2523  0.5875
  158SAPE    C317602   0.492   6.192   6.443  0.4238 -0.0693  0.6719
  158SAPE    HX17603   0.396   6.142   6.420  0.0463  1.0794 -0.3229
  158SAPE    HY17604   0.508   6.270   6.365  1.1434  0.5362  1.3975
  158SAPE   O3117605   0.477   6.250   6.580  0.1864  0.3834 -0.1532
  158SAPE   C3117606   0.539   6.369   6.588 -0.2670  0.1446  0.1560
  158SAPE   O3217607   0.599   6.425   6.501  0.0883 -0.0864 -0.4641
  158SAPE   C3217608   0.519   6.425   6.727 -0.2680 -0.0464 -0.1836
  158SAPE   H2X17609   0.415   6.400   6.759  0.1461 -1.7619 -0.1257
  158SAPE   H2Y17610   0.526   6.535   6.737 -0.2743  0.0144 -0.8537
  158SAPE   C2317611   0.816   5.769   6.713 -0.8775 -0.3522 -0.0792
  158SAPE   H3R17612   0.882   5.728   6.633  1.6725  2.5762  0.4273
  158SAPE   H3S17613   0.783   5.684   6.776 -2.0890 -0.8408 -1.3387
  158SAPE   C2417614   0.903   5.855   6.795 -0.0585  0.2824  0.1849
  158SAPE   H4R17615   0.836   5.899   6.872  1.4928 -0.6230  2.0944
  158SAPE   H4S17616   0.949   5.933   6.730 -0.7040  0.3621 -0.1835
  158SAPE   C2517617   1.006   5.781   6.876  0.6876  0.1665  0.1104
  158SAPE   H5R17618   1.081   5.743   6.806  0.3000  0.9022 -0.7229
  158SAPE   C2617619   1.027   5.762   7.007 -0.2088 -0.2971 -0.5459
  158SAPE   H6R17620   1.120   5.709   7.031  0.9449  1.2308 -1.5361
  158SAPE   C2717621   0.939   5.818   7.115  0.2638  0.2990  0.1427
  158SAPE   H7R17622   0.830   5.803   7.102  0.3648  2.5663 -4.1113
  158SAPE   H7S17623   0.949   5.929   7.114 -0.4777  0.3806  1.0718
  158SAPE   C2817624   0.970   5.757   7.251 -0.4052 -0.1251 -0.5809
  158SAPE   H8R17625   1.037   5.670   7.243 -0.2601 -0.1414  0.6126
  158SAPE   C2917626   0.937   5.810   7.375 -0.4263  0.1466  0.3689
  158SAPE   H9R17627   0.952   5.759   7.471 -1.2490 -0.9729 -0.0857
  158SAPE  C21017628   0.853   5.942   7.391 -0.4392  0.5046  0.7780
  158SAPE  H10R17629   0.838   5.958   7.500  1.1130 -2.2533  1.4421
  158SAPE  H10S17630   0.754   5.944   7.342  0.6998  2.1365 -1.5404
  158SAPE  C21117631   0.935   6.064   7.340  0.8565 -0.1580 -0.0401
  158SAPE  H11R17632   1.045   6.057   7.338  0.9220  0.1685  1.4603
  158SAPE  C21217633   0.871   6.176   7.305  0.2984 -0.3681 -0.3045
  158SAPE  H12R17634   0.933   6.254   7.258  0.2559 -0.1908 -0.0679
  158SAPE  C21317635   0.720   6.203   7.309  0.1812  0.5391  0.4429
  158SAPE  H13R17636   0.659   6.158   7.391 -0.1954  0.6497  0.2221
  158SAPE  H13S17637   0.681   6.154   7.218 -0.1498  1.7951 -0.1034
  158SAPE  C21417638   0.687   6.345   7.300  0.7777 -0.4028 -0.3310
  158SAPE  H14R17639   0.673   6.393   7.202 -1.4592  2.4638  1.3019
  158SAPE  C21517640   0.672   6.425   7.404  0.2644  0.0674  0.0449
  158SAPE  H15R17641   0.647   6.532   7.401 -1.0706 -0.2736 -1.5942
  158SAPE  C21617642   0.688   6.377   7.545 -0.4800  0.4210  0.4105
  158SAPE  H16R17643   0.655   6.271   7.552 -1.0641  0.6060  0.4638
  158SAPE  H16S17644   0.620   6.440   7.606 -1.8867  0.0112 -0.7227
  158SAPE  C21717645   0.838   6.379   7.593  0.3049  0.2217  0.6728
  158SAPE  H17R17646   0.905   6.312   7.535 -2.6428 -0.4705 -2.1013
  158SAPE  H17S17647   0.831   6.344   7.698 -0.6051 -0.5811  0.3607
  158SAPE  C21817648   0.893   6.522   7.599  0.9382 -0.6820  0.1994
  158SAPE  H18R17649   0.819   6.589   7.648  0.2144 -1.5718  0.3276
  158SAPE  H18S17650   0.923   6.552   7.497  2.5683  1.3502  1.2353
  158SAPE  C21917651   1.017   6.537   7.691  0.3177 -0.9043 -0.9541
  158SAPE  H19R17652   1.106   6.488   7.646  0.1977 -1.1238 -0.9550
  158SAPE  H19S17653   0.993   6.488   7.788  0.2291 -0.3477 -0.6962
  158SAPE  C22017654   1.043   6.682   7.714 -0.3812  0.2801 -0.0252
  158SAPE  H20R17655   1.068   6.744   7.625  2.2208  0.6558  0.9295
  158SAPE  H20S17656   1.122   6.701   7.789  0.0999 -3.0791  0.4202
  158SAPE  H20T17657   0.950   6.726   7.756  0.1639  1.5237 -0.1145
  158SAPE   C3317658   0.606   6.350   6.832  0.3457 -0.2191  0.2545
  158SAPE   H3X17659   0.575   6.243   6.840  1.3845 -0.5001  0.5181
  158SAPE   H3Y17660   0.603   6.384   6.938 -0.0526  0.3456  0.0594
  158SAPE   C3417661   0.754   6.368   6.804  0.1992  0.4999  0.2942
  158SAPE   H4X17662   0.763   6.479   6.806 -1.8392  0.6739  1.8292
  158SAPE   H4Y17663   0.776   6.322   6.705 -1.8832 -2.8478  1.3088
  158SAPE   C3517664   0.847   6.288   6.898 -0.1483  0.0554 -0.1836
  158SAPE   H5X17665   0.791   6.194   6.917 -0.9689  0.8427  1.4340
  158SAPE   H5Y17666   0.834   6.331   7.000 -4.9596 -1.9064  0.1899
  158SAPE   C3617667   0.996   6.280   6.863  0.4224  0.2022  0.4905
  158SAPE   H6X17668   1.024   6.381   6.826  0.2847  0.5771  1.3838
  158SAPE   H6Y17669   1.012   6.199   6.789 -1.0658 -1.3472  1.8066
  158SAPE   C3717670   1.095   6.244   6.978 -0.8341  0.6844  0.1552
  158SAPE   H7X17671   1.117   6.334   7.039  1.1173  0.4598 -0.1946
  158SAPE   H7Y17672   1.039   6.167   7.036 -0.3578  1.6083  1.8825
  158SAPE   C3817673   1.222   6.184   6.936 -0.0242  0.7509 -0.2016
  158SAPE   H8X17674   1.269   6.264   6.875 -0.4099  0.7855 -0.4574
  158SAPE   H8Y17675   1.207   6.091   6.878  0.5871  0.5280 -0.0045
  158SAPE   C3917676   1.319   6.155   7.046 -0.0651 -0.3888 -0.2280
  158SAPE   H9X17677   1.333   6.242   7.113 -1.1723  0.1940 -0.7565
  158SAPE   H9Y17678   1.417   6.139   6.995  0.9795  1.7659  1.0635
  158SAPE  C31017679   1.285   6.023   7.122  0.5654 -1.0872 -0.0187
  158SAPE  H10X17680   1.279   5.931   7.059  1.5705  0.0996 -1.8926
  158SAPE  H10Y17681   1.183   6.027   7.165  1.0115  2.9692  0.7894
  158SAPE  C31117682   1.385   5.986   7.232 -0.1962  0.4529  0.2811
  158SAPE  H11X17683   1.405   6.083   7.282  3.2411  1.4790 -2.8083
  158SAPE  H11Y17684   1.484   5.956   7.193 -1.1230 -1.1388 -0.8929
  158SAPE  C31217685   1.329   5.874   7.322 -0.0766  0.2416 -0.1044
  158SAPE  H12X17686   1.339   5.780   7.263  0.9363  0.6411 -0.5931
  158SAPE  H12Y17687   1.223   5.882   7.352 -0.3589  1.1615 -1.3041
  158SAPE  C31317688   1.416   5.855   7.445  0.3222  0.3594  0.8649
  158SAPE  H13X17689   1.433   5.957   7.486 -0.8404  0.4231  1.1813
  158SAPE  H13Y17690   1.514   5.807   7.424 -0.8461 -2.2056  1.1312
  158SAPE  C31417691   1.352   5.776   7.551 -0.4392  0.3989  0.2145
  158SAPE  H14X17692   1.267   5.834   7.593  0.8776  0.5806  2.6839
  158SAPE  H14Y17693   1.426   5.753   7.630 -1.3891  0.3875  1.1027
  158SAPE  C31517694   1.298   5.646   7.504  0.0620  0.1290 -0.1022
  158SAPE  H15X17695   1.375   5.572   7.472 -1.6549 -1.2341 -1.2250
  158SAPE  H15Y17696   1.219   5.651   7.426  0.5778 -0.7184 -0.6854
  158SAPE  C31617697   1.226   5.573   7.623  0.3203 -0.0659 -0.4706
  158SAPE  H16X17698   1.143   5.642   7.649 -0.2751 -0.3472 -1.5776
  158SAPE  H16Y17699   1.305   5.559   7.700 -0.1239 -2.0070 -0.3357
  158SAPE  C31717700   1.169   5.436   7.579 -0.2824 -0.1530  0.2616
  158SAPE  H17X17701   1.251   5.372   7.540  0.1554  0.1706  0.6535
  158SAPE  H17Y17702   1.103   5.449   7.490  1.1700  2.6988 -0.4517
  158SAPE  C31817703   1.074   5.371   7.682 -0.4755 -0.7256 -0.5445
  158SAPE  H18X17704   1.039   5.271   7.648  1.7610 -1.8094  0.2452
  158SAPE  H18Y17705   0.995   5.447   7.694 -0.5941 -0.8586 -0.4852
  158SAPE  H18Z17706   1.120   5.361   7.783 -1.7974 -1.1142  0.0298
  159SAPE     N17707   0.659   1.398   5.942  0.1888 -0.3512  0.1047
  159SAPE   HN117708   0.647   1.354   6.036  3.0121 -2.3035 -0.4098
  159SAPE   HN217709   0.640   1.332   5.865 -0.3986 -0.9151  0.7213
  159SAPE   HN317710   0.760   1.418   5.926  0.3394 -2.1813 -1.3562
  159SAPE   C1217711   0.584   1.523   5.935 -0.1017 -0.4994 -0.6404
  159SAPE  H12A17712   0.518   1.523   5.845  0.5772  0.3508 -1.1530
  159SAPE  H12B17713   0.662   1.597   5.906  0.7345 -0.8974  0.5731
  159SAPE   C1117714   0.516   1.560   6.066 -0.9307  0.4344  0.6972
  159SAPE  H11A17715   0.506   1.671   6.075 -0.4977  0.5569 -0.2982
  159SAPE  H11B17716   0.587   1.534   6.147 -0.9959  0.7288  0.8515
  159SAPE     P17717   0.379   1.335   6.080  0.2095  0.3959  0.2055
  159SAPE   O1317718   0.267   1.287   6.165  0.5749 -0.2150 -0.0046
  159SAPE   O1417719   0.367   1.297   5.937 -0.6804 -0.1183 -0.4532
  159SAPE   O1217720   0.388   1.488   6.083  0.1772  0.2831 -0.2877
  159SAPE   O1117721   0.521   1.288   6.135 -0.1937  0.3763  0.3124
  159SAPE    C117722   0.533   1.141   6.127  0.1235 -0.7206  0.4629
  159SAPE    HA17723   0.445   1.075   6.145 -1.0945  0.7277 -0.0378
  159SAPE    HB17724   0.575   1.125   6.025  0.6719 -0.0220  0.5685
  159SAPE    C217725   0.654   1.081   6.203  0.4673 -0.3533  0.1044
  159SAPE    HS17726   0.650   0.970   6.200  0.3101 -0.3332 -0.6574
  159SAPE   O2117727   0.658   1.133   6.336  0.0573 -0.2997  0.0839
  159SAPE   C2117728   0.556   1.086   6.405  0.1297 -0.2234 -0.0714
  159SAPE   O2217729   0.472   1.002   6.375 -0.1348  0.4828 -0.1517
  159SAPE   C2217730   0.563   1.161   6.535 -0.2687  0.2373  0.7372
  159SAPE   H2R17731   0.662   1.152   6.583 -0.1687  3.5072  1.2163
  159SAPE   H2S17732   0.536   1.266   6.513 -1.5361 -0.7341 -2.6185
  159SAPE    C317733   0.783   1.134   6.139 -0.3811 -0.2037  0.7477
  159SAPE    HX17734   0.782   1.100   6.033 -1.2333 -0.0491  0.7071
  159SAPE    HY17735   0.866   1.083   6.192  1.3126  0.5172 -1.1216
  159SAPE   O3117736   0.792   1.284   6.159 -0.6412  0.2047  0.5079
  159SAPE   C3117737   0.902   1.322   6.224 -0.1477  0.3863  0.0184
  159SAPE   O3217738   1.004   1.253   6.242  0.3471  0.7197  0.1939
  159SAPE   C3217739   0.886   1.462   6.274 -0.4899 -0.2617  0.2111
  159SAPE   H2X17740   0.817   1.516   6.205 -0.5190  0.9237  1.1569
  159SAPE   H2Y17741   0.988   1.506   6.266  0.5039 -2.4585  0.3801
  159SAPE   C2317742   0.471   1.098   6.644 -0.1624 -0.6664  0.2689
  159SAPE   H3R17743   0.526   1.004   6.667  0.3403 -0.6037 -0.6653
  159SAPE   H3S17744   0.377   1.073   6.591  1.0458  0.0814 -2.3559
  159SAPE   C2417745   0.456   1.195   6.761  0.5129 -0.4378  0.5515
  159SAPE   H4R17746   0.399   1.139   6.840 -1.3339 -2.4335 -2.1068
  159SAPE   H4S17747   0.390   1.280   6.734  1.6339 -0.1742 -1.4020
  159SAPE   C2517748   0.586   1.241   6.823 -0.3207  0.2534  0.2052
  159SAPE   H5R17749   0.629   1.337   6.790 -1.0231 -0.3576 -2.5833
  159SAPE   C2617750   0.652   1.175   6.922  0.5803  0.3704  0.7542
  159SAPE   H6R17751   0.753   1.211   6.946  1.5904 -2.1113  0.3436
  159SAPE   C2717752   0.612   1.044   6.979  0.6716 -0.1044 -0.4609
  159SAPE   H7R17753   0.559   0.982   6.903 -0.9583  0.2915  0.3176
  159SAPE   H7S17754   0.525   1.065   7.044 -0.6934 -2.6751 -1.3503
  159SAPE   C2817755   0.725   0.957   7.036 -0.2093  0.3823  0.1239
  159SAPE   H8R17756   0.785   0.897   6.967 -0.8666 -0.0403 -0.0823
  159SAPE   C2917757   0.767   0.961   7.163 -0.4683  0.9473  0.0999
  159SAPE   H9R17758   0.856   0.905   7.195 -1.4670 -0.8354 -0.1796
  159SAPE  C21017759   0.704   1.042   7.276  0.3264  0.1311  0.1793
  159SAPE  H10R17760   0.661   1.141   7.250 -0.5445 -0.6313 -1.3646
  159SAPE  H10S17761   0.784   1.075   7.346  0.7026  0.1280 -0.2434
  159SAPE  C21117762   0.617   0.951   7.365  0.0986  0.4649 -1.9089
  159SAPE  H11R17763   0.509   0.953   7.345  0.1014 -2.6182 -2.5044
  159SAPE  C21217764   0.656   0.875   7.463  0.2219  0.0743 -0.6707
  159SAPE  H12R17765   0.580   0.814   7.513  1.2383  0.0263  0.8517
  159SAPE  C21317766   0.795   0.849   7.519  0.0745  0.3591 -0.0499
  159SAPE  H13R17767   0.803   0.893   7.621 -1.1230  1.3053 -0.3414
  159SAPE  H13S17768   0.876   0.901   7.464  1.5502 -1.9597 -0.1114
  159SAPE  C21417769   0.833   0.703   7.510 -0.4439  0.0899  0.0213
  159SAPE  H14R17770   0.815   0.657   7.411 -0.7489 -2.6327  1.2970
  159SAPE  C21517771   0.886   0.627   7.608 -0.7319  0.2153 -0.6532
  159SAPE  H15R17772   0.903   0.521   7.584  2.3208  0.3784  0.5716
  159SAPE  C21617773   0.912   0.668   7.751 -0.6527 -0.1839  0.3142
  159SAPE  H16R17774   0.946   0.773   7.763 -0.8964  0.2211 -2.2839
  159SAPE  H16S17775   0.992   0.601   7.789  0.3795 -0.3778 -2.0918
  159SAPE  C21717776   0.794   0.651   7.849 -0.0312  0.0885 -0.0041
  159SAPE  H17R17777   0.709   0.721   7.836 -0.3493 -0.3322 -0.1613
  159SAPE  H17S17778   0.832   0.686   7.947 -3.6997  0.5939  1.3083
  159SAPE  C21817779   0.762   0.498   7.856 -0.1860 -0.7660 -0.1950
  159SAPE  H18R17780   0.858   0.446   7.839 -0.6901 -1.2775 -1.5853
  159SAPE  H18S17781   0.693   0.464   7.776  0.7213 -2.5459 -0.2407
  159SAPE  C21917782   0.704   0.442   7.992  0.1535  0.7723 -0.7558
  159SAPE  H19R17783   0.599   0.478   7.996 -1.4681 -3.4794 -2.1475
  159SAPE  H19S17784   0.763   0.487   8.075 -1.7548  1.1897  0.3955
  159SAPE  C22017785   0.696   0.295   8.017  0.3361 -0.6063  0.3359
  159SAPE  H20R17786   0.625   0.252   7.944 -3.4734  0.5904  3.1874
  159SAPE  H20S17787   0.657   0.279   8.120 -1.7909  2.0116  0.0044
  159SAPE  H20T17788   0.796   0.247   8.016  0.9662  0.6950 -0.6394
  159SAPE   C3317789   0.839   1.460   6.417 -0.6327  0.2525  0.2664
  159SAPE   H3X17790   0.758   1.384   6.420  0.9489 -1.4440  2.9373
  159SAPE   H3Y17791   0.792   1.559   6.439  0.8092  0.9279  0.3534
  159SAPE   C3417792   0.950   1.434   6.512 -0.3950 -0.8002 -0.2399
  159SAPE   H4X17793   1.047   1.478   6.479 -1.0849  0.0291 -1.1565
  159SAPE   H4Y17794   0.953   1.323   6.523  3.9794 -0.9551 -1.8112
  159SAPE   C3517795   0.918   1.485   6.656 -0.6678  0.2455 -0.6312
  159SAPE   H5X17796   0.811   1.486   6.687 -1.5147  1.9873 -3.4963
  159SAPE   H5Y17797   0.945   1.593   6.650 -1.6896  0.5531  0.1743
  159SAPE   C3617798   1.007   1.423   6.762 -0.1548  0.7019 -0.8062
  159SAPE   H6X17799   1.105   1.426   6.710  0.9993 -0.8461  1.2113
  159SAPE   H6Y17800   0.973   1.319   6.778 -0.1289  0.9069  0.6303
  159SAPE   C3717801   1.023   1.499   6.895  0.0280  0.3879  0.5512
  159SAPE   H7X17802   0.992   1.606   6.888  2.5120  1.1045 -0.0623
  159SAPE   H7Y17803   1.132   1.492   6.916  0.4919 -1.8277 -2.2931
  159SAPE   C3817804   0.963   1.427   7.020 -0.8554  0.5800 -0.2788
  159SAPE   H8X17805   0.986   1.320   7.032 -0.1251  0.5596 -1.7501
  159SAPE   H8Y17806   0.852   1.441   7.022 -0.9886  0.4753 -3.6889
  159SAPE   C3917807   1.009   1.497   7.156 -0.2137 -0.0153  0.8223
  159SAPE   H9X17808   0.976   1.602   7.163 -0.2283  0.1576 -1.4412
  159SAPE   H9Y17809   1.120   1.497   7.162 -0.1038 -1.8979 -0.6526
  159SAPE  C31017810   0.967   1.414   7.277 -0.1201  0.4656  0.2739
  159SAPE  H10X17811   0.966   1.304   7.261  1.9315  0.7173 -1.6467
  159SAPE  H10Y17812   0.860   1.436   7.300  0.1230  0.4171  1.5022
  159SAPE  C31117813   1.050   1.437   7.403  0.5268  0.2880  0.1343
  159SAPE  H11X17814   1.021   1.532   7.452  0.4095 -0.7488  2.1165
  159SAPE  H11Y17815   1.156   1.459   7.375 -0.0521  1.6022 -1.0910
  159SAPE  C31217816   1.038   1.327   7.509 -0.0647  0.0187  0.5009
  159SAPE  H12X17817   1.118   1.333   7.585  1.8615  1.3369 -1.5473
  159SAPE  H12Y17818   1.063   1.234   7.453 -1.6426 -0.7043  0.9619
  159SAPE  C31317819   0.911   1.313   7.582  0.4319 -0.3931  0.1127
  159SAPE  H13X17820   0.835   1.281   7.509  2.1717 -0.2424 -1.8097
  159SAPE  H13Y17821   0.883   1.418   7.604 -1.6105 -1.1384  1.1724
  159SAPE  C31417822   0.912   1.219   7.709  0.6009  0.5122 -0.1223
  159SAPE  H14X17823   0.964   1.277   7.788  1.2832 -0.2147 -0.0302
  159SAPE  H14Y17824   0.960   1.122   7.685 -0.9008 -0.1504 -0.5249
  159SAPE  C31517825   0.774   1.171   7.748 -0.0236 -0.3451 -0.0049
  159SAPE  H15X17826   0.731   1.123   7.657 -0.9993 -0.9237  0.7618
  159SAPE  H15Y17827   0.699   1.251   7.767 -0.0059 -0.5120  0.7854
  159SAPE  C31617828   0.767   1.074   7.869  0.5265 -0.1572  0.1482
  159SAPE  H16X17829   0.820   0.979   7.849 -2.0688 -1.1171 -2.7463
  159SAPE  H16Y17830   0.660   1.046   7.885  0.0050  1.7831  0.2607
  159SAPE  C31717831   0.817   1.148   7.989  0.5443  0.6824  0.7218
  159SAPE  H17X17832   0.807   1.257   7.967  2.3097  0.8851  0.8485
  159SAPE  H17Y17833   0.924   1.118   7.990 -0.3306 -2.7701 -1.1194
  159SAPE  C31817834   0.740   1.106   8.116  0.5263  0.5937 -0.5659
  159SAPE  H18X17835   0.754   0.996   8.127 -1.8723  0.3438  0.5208
  159SAPE  H18Y17836   0.630   1.121   8.112 -0.1287 -2.5052  2.9976
  159SAPE  H18Z17837   0.776   1.158   8.207 -1.3612  1.9541 -0.5721
  160SAPE     N17838   1.220   0.175   5.958  0.0683  0.1658  0.3294
  160SAPE   HN117839   1.282   0.093   5.950  0.6471  0.7825 -1.7947
  160SAPE   HN217840   1.138   0.173   5.893  0.2835 -0.8405  0.0963
  160SAPE   HN317841   1.273   0.259   5.927 -0.4559 -0.2608 -1.8265
  160SAPE   C1217842   1.170   0.191   6.099 -0.6838 -0.4109  0.2168
  160SAPE  H12A17843   1.234   0.267   6.149 -0.6845 -1.4763  1.8699
  160SAPE  H12B17844   1.195   0.096   6.150 -1.1200  0.2705  1.7364
  160SAPE   C1117845   1.023   0.228   6.096  0.3221 -0.2057  0.0040
  160SAPE  H11A17846   1.006   0.334   6.066 -1.6875 -0.8879 -1.3523
  160SAPE  H11B17847   0.995   0.234   6.203 -0.7181  0.4366 -0.2961
  160SAPE     P17848   0.829   0.039   6.074 -0.1661 -0.4304  0.2857
  160SAPE   O1317849   0.732   0.129   6.130 -0.0330 -0.1030 -0.8133
  160SAPE   O1417850   0.789  -0.056   5.966  0.1180 -0.0607 -0.3386
  160SAPE   O1217851   0.950   0.137   6.017  0.3779 -0.0714 -0.3530
  160SAPE   O1117852   0.906  -0.048   6.188 -0.4858  0.4852 -0.0616
  160SAPE    C117853   0.890  -0.004   6.318  0.4827 -0.0728  0.2544
  160SAPE    HA17854   0.937   0.095   6.338  1.2539 -0.4979  0.5608
  160SAPE    HB17855   0.781  -0.006   6.340  0.3262 -0.8984 -0.5583
  160SAPE    C217856   0.970  -0.093   6.413 -0.6185  0.1841  0.6872
  160SAPE    HS17857   0.942  -0.199   6.397  0.6762  0.1908 -1.8694
  160SAPE   O2117858   0.963  -0.052   6.550  0.2739 -0.3510  0.6198
  160SAPE   C2117859   0.840  -0.084   6.602 -0.1902  0.3574 -0.9603
  160SAPE   O2217860   0.752  -0.134   6.540  0.3905 -0.2992 -0.1450
  160SAPE   C2217861   0.819  -0.048   6.748 -0.2720  0.1996 -0.1163
  160SAPE   H2R17862   0.834   0.062   6.753  1.9819 -0.1743  3.4769
  160SAPE   H2S17863   0.715  -0.072   6.780  0.6322 -3.3704  0.4023
  160SAPE    C317864   1.124  -0.093   6.379  0.2646 -0.0912  0.2869
  160SAPE    HX17865   1.127  -0.147   6.282 -0.5680  0.8149 -0.2524
  160SAPE    HY17866   1.163  -0.154   6.463 -1.1654  0.2784  1.2375
  160SAPE   O3117867   1.175   0.041   6.385  0.4978  0.0984 -0.2475
  160SAPE   C3117868   1.251   0.079   6.495 -1.1184  1.0519  0.8308
  160SAPE   O3217869   1.272   0.003   6.585 -0.2037 -0.2452 -0.2158
  160SAPE   C3217870   1.314   0.220   6.470  0.9374 -0.1521  0.7168
  160SAPE   H2X17871   1.301   0.246   6.363 -0.4859 -2.3412  0.3284
  160SAPE   H2Y17872   1.424   0.219   6.486  1.1314  1.4006 -0.4226
  160SAPE   C2317873   0.921  -0.129   6.835  0.0939  0.4149  0.9431
  160SAPE   H3R17874   1.028  -0.104   6.820  0.5605 -0.9229  1.9388
  160SAPE   H3S17875   0.903  -0.238   6.824 -0.1961  0.2292  3.0989
  160SAPE   C2417876   0.906  -0.096   6.988 -0.1774 -0.3282 -0.3036
  160SAPE   H4R17877   0.933   0.011   7.004 -2.5069  0.3027 -0.3946
  160SAPE   H4S17878   0.981  -0.159   7.042 -2.9760 -1.9519  1.8022
  160SAPE   C2517879   0.765  -0.116   7.040  0.6613 -0.4996 -0.0353
  160SAPE   H5R17880   0.737  -0.219   7.014  0.4940 -0.2539 -0.8418
  160SAPE   C2617881   0.671  -0.029   7.080  0.4300 -0.5247 -0.2578
  160SAPE   H6R17882   0.572  -0.057   7.117 -1.2551  4.4992 -0.5806
  160SAPE   C2717883   0.693   0.125   7.085  0.0677  0.0599  0.0990
  160SAPE   H7R17884   0.799   0.144   7.057  0.9808 -0.3895  3.0430
  160SAPE   H7S17885   0.660   0.154   7.187 -0.7533 -0.2554 -0.0758
  160SAPE   C2817886   0.638   0.213   6.974  0.0559 -0.0397  0.1347
  160SAPE   H8R17887   0.645   0.186   6.868 -1.3232 -0.7684  0.2190
  160SAPE   C2917888   0.595   0.335   6.993  0.4391  0.4451  0.5453
  160SAPE   H9R17889   0.563   0.390   6.903  0.3149 -1.4527 -0.5854
  160SAPE  C21017890   0.593   0.404   7.126 -0.0071  0.2143  0.1771
  160SAPE  H10R17891   0.684   0.388   7.187  1.6945  1.7010 -1.9270
  160SAPE  H10S17892   0.503   0.357   7.172  0.1603  0.2438  0.5400
  160SAPE  C21117893   0.577   0.551   7.126 -0.1935  0.6054  0.4638
  160SAPE  H11R17894   0.618   0.609   7.041 -0.6255  0.3816  0.1006
  160SAPE  C21217895   0.518   0.621   7.226 -0.0167 -0.2799 -1.4287
  160SAPE  H12R17896   0.508   0.728   7.201  2.5161  0.1258 -0.7442
  160SAPE  C21317897   0.455   0.578   7.362  0.0605 -0.0897  0.1049
  160SAPE  H13R17898   0.523   0.595   7.448 -2.6173  0.2506  2.2295
  160SAPE  H13S17899   0.442   0.468   7.367  0.3418 -0.2107 -1.3845
  160SAPE  C21417900   0.330   0.646   7.399  0.2304 -0.5890 -0.5212
  160SAPE  H14R17901   0.280   0.690   7.310  3.3386  0.6135 -1.7404
  160SAPE  C21517902   0.281   0.646   7.524 -0.3057  0.5403 -0.9720
  160SAPE  H15R17903   0.193   0.709   7.538  1.4765  2.5549  1.7090
  160SAPE  C21617904   0.333   0.569   7.646  0.4230 -0.0092 -0.2893
  160SAPE  H16R17905   0.351   0.643   7.727  1.3324  2.0648 -2.3180
  160SAPE  H16S17906   0.429   0.519   7.618  0.7170  0.7561 -0.6791
  160SAPE  C21717907   0.243   0.446   7.686  0.0627  0.3239  0.0602
  160SAPE  H17R17908   0.292   0.415   7.780  0.3974 -2.3148 -0.9319
  160SAPE  H17S17909   0.246   0.365   7.609  0.0666  0.7947 -0.4393
  160SAPE  C21817910   0.097   0.480   7.713 -0.0170 -0.2615 -0.2165
  160SAPE  H18R17911   0.034   0.393   7.743  2.6005 -1.3143  2.4409
  160SAPE  H18S17912   0.061   0.505   7.611 -0.3048  0.9950  0.1857
  160SAPE  C21917913   0.064   0.596   7.799 -0.4411  0.1051  0.8891
  160SAPE  H19R17914   0.128   0.681   7.765  0.3281 -0.7596  0.1753
  160SAPE  H19S17915   0.095   0.587   7.905  1.4012  0.5492  0.4072
  160SAPE  C22017916  -0.083   0.632   7.782  0.3487 -0.2339  0.4681
  160SAPE  H20R17917  -0.122   0.622   7.678  0.9446  0.1277  0.2090
  160SAPE  H20S17918  -0.109   0.733   7.818 -0.7100 -0.4925  0.4615
  160SAPE  H20T17919  -0.146   0.555   7.833  1.0024  0.0754  1.7586
  160SAPE   C3317920   1.238   0.318   6.552  0.1218  1.0313 -0.2253
  160SAPE   H3X17921   1.288   0.412   6.520 -0.5296  1.7488  0.8374
  160SAPE   H3Y17922   1.256   0.307   6.661 -1.3266 -2.8167 -0.3135
  160SAPE   C3417923   1.087   0.320   6.514  0.0822  0.2350 -0.3534
  160SAPE   H4X17924   1.041   0.230   6.560 -0.9657 -1.6936 -4.8290
  160SAPE   H4Y17925   1.082   0.291   6.407 -1.1524 -2.0543  0.2845
  160SAPE   C3517926   1.010   0.447   6.556 -0.1696 -1.1492 -1.1436
  160SAPE   H5X17927   0.905   0.450   6.522 -0.7459 -4.6627  0.1462
  160SAPE   H5Y17928   1.063   0.538   6.520  0.6694 -1.3743 -0.4849
  160SAPE   C3617929   1.001   0.454   6.708  0.5096 -0.7965  0.0545
  160SAPE   H6X17930   1.098   0.448   6.763  0.4192  0.2767  0.3347
  160SAPE   H6Y17931   0.943   0.365   6.740  0.9894 -1.0888  0.1163
  160SAPE   C3717932   0.921   0.580   6.754  0.4042 -0.0061  0.1489
  160SAPE   H7X17933   0.815   0.558   6.729  0.7189  0.4008 -1.6164
  160SAPE   H7Y17934   0.954   0.668   6.694  0.5106 -0.1168  0.0439
  160SAPE   C3817935   0.937   0.632   6.903 -0.0508  0.7836 -0.2096
  160SAPE   H8X17936   0.849   0.694   6.929  1.3757  2.1603  1.4674
  160SAPE   H8Y17937   1.033   0.688   6.901 -0.5952  1.7019 -1.0809
  160SAPE   C3917938   0.941   0.517   7.006 -0.3387  0.7659 -0.9840
  160SAPE   H9X17939   1.031   0.455   6.984 -0.3645  0.9025 -1.4756
  160SAPE   H9Y17940   0.859   0.443   6.991 -0.1293  0.8734 -2.8325
  160SAPE  C31017941   0.943   0.577   7.153 -0.0699 -0.3946  0.4855
  160SAPE  H10X17942   0.844   0.626   7.160  0.7445  1.7058 -1.8107
  160SAPE  H10Y17943   1.026   0.649   7.172 -1.2034  0.4195  2.5794
  160SAPE  C31117944   0.962   0.473   7.266  0.0239  0.1730  0.5316
  160SAPE  H11X17945   0.857   0.443   7.286 -0.0837  0.4881  0.4405
  160SAPE  H11Y17946   1.002   0.511   7.362 -0.3003  0.2246  0.6442
  160SAPE  C31217947   1.020   0.341   7.226 -0.2542 -0.2226  0.4060
  160SAPE  H12X17948   1.115   0.361   7.171  0.6244  0.2675  2.0607
  160SAPE  H12Y17949   0.954   0.291   7.152  0.6352 -1.2486  0.2897
  160SAPE  C31317950   1.055   0.244   7.343  0.5069 -0.6771 -0.1646
  160SAPE  H13X17951   1.088   0.317   7.420  0.0586 -2.1210  1.4174
  160SAPE  H13Y17952   1.142   0.184   7.308  0.2806 -0.2289 -1.5288
  160SAPE  C31417953   0.944   0.145   7.387  0.2116  0.1728 -0.0434
  160SAPE  H14X17954   0.978   0.098   7.482 -1.1438 -0.7744 -0.0218
  160SAPE  H14Y17955   0.935   0.064   7.311  0.3830  3.0320 -3.2212
  160SAPE  C31517956   0.813   0.200   7.441 -0.0271 -0.4877  0.4596
  160SAPE  H15X17957   0.777   0.267   7.359  1.1092 -1.2295 -0.6687
  160SAPE  H15Y17958   0.830   0.259   7.533  0.1422 -0.7239  0.5805
  160SAPE  C31617959   0.707   0.095   7.484  0.0728  0.3514  0.1126
  160SAPE  H16X17960   0.745   0.024   7.561  0.0325 -1.9909 -1.9414
  160SAPE  H16Y17961   0.700   0.026   7.397 -0.5097  0.9371 -0.3118
  160SAPE  C31717962   0.566   0.146   7.526  0.7692  0.2611 -0.0079
  160SAPE  H17X17963   0.522   0.050   7.560  0.4474 -0.3112 -2.0095
  160SAPE  H17Y17964   0.511   0.202   7.447  0.6200  1.7825  1.1385
  160SAPE  C31817965   0.572   0.237   7.653 -0.1227  0.2066  0.6010
  160SAPE  H18X17966   0.473   0.278   7.683 -0.5099 -1.1022  1.1723
  160SAPE  H18Y17967   0.628   0.332   7.637 -1.5871  1.6105  3.4884
  160SAPE  H18Z17968   0.633   0.189   7.732 -0.8400 -2.0407 -0.1630
  161SOPE     N17969   3.816   2.256  10.163  0.9307  0.3054  0.0020
  161SOPE   HN117970   3.781   2.159  10.149  2.6709 -0.3603  0.0583
  161SOPE   HN217971   3.769   2.309  10.239  0.1845  0.8695 -0.8597
  161SOPE   HN317972   3.809   2.301  10.070  1.3716  0.1607 -0.1022
  161SOPE   C1217973   3.965   2.232  10.179  0.4370  0.0715  0.4818
  161SOPE  H12A17974   3.994   2.162  10.098 -0.6404 -0.6548  0.7067
  161SOPE  H12B17975   3.986   2.174  10.271  0.7191  1.3715  1.2607
  161SOPE   C1117976   4.042   2.361  10.169 -0.4788 -0.1983 -0.1539
  161SOPE  H11A17977   4.147   2.329  10.152 -0.0419  0.7345  0.6879
  161SOPE  H11B17978   4.039   2.415  10.267 -0.4678  1.8054 -1.2282
  161SOPE     P17979   4.051   2.593  10.046  0.1499  0.2309  0.1176
  161SOPE   O1317980   4.197   2.588  10.030 -0.3744  0.5309  0.1080
  161SOPE   O1417981   3.994   2.685  10.149 -0.2678  0.9716  0.3338
  161SOPE   O1217982   3.994   2.444  10.067  0.2160  0.2987  0.2085
  161SOPE   O1117983   3.987   2.632   9.905  0.6541 -0.3109 -0.0203
  161SOPE    C117984   3.846   2.619   9.890  0.3764  0.4910 -0.6222
  161SOPE    HA17985   3.800   2.710   9.934 -1.8915 -1.2300  0.7050
  161SOPE    HB17986   3.812   2.530   9.948  0.7071  0.6854 -0.1252
  161SOPE    C217987   3.807   2.592   9.742 -0.7366 -0.0922  0.1626
  161SOPE    HS17988   3.846   2.490   9.719 -0.1935  0.7871 -3.1453
  161SOPE   O2117989   3.869   2.683   9.659 -0.2132 -0.1227 -0.3264
  161SOPE   C2117990   3.981   2.653   9.597  0.0679 -0.6702  0.7190
  161SOPE   O2217991   4.031   2.541   9.579  0.3904  0.1841  0.4496
  161SOPE   C2217992   4.036   2.778   9.526  0.3351  0.3715 -0.8070
  161SOPE   H2R17993   4.094   2.733   9.443  0.6612 -2.1247  0.7325
  161SOPE   H2S17994   4.111   2.831   9.588  1.3853  1.4390 -2.9209
  161SOPE    C317995   3.653   2.597   9.716 -1.0661  0.1492 -0.8229
  161SOPE    HX17996   3.618   2.694   9.757 -1.1438 -1.3729  2.9277
  161SOPE    HY17997   3.602   2.517   9.774  0.5246  0.4672  1.0516
  161SOPE   O3117998   3.623   2.576   9.577 -0.1470 -0.1848  0.2625
  161SOPE   C3117999   3.598   2.690   9.507 -0.6972 -0.1663 -0.5417
  161SOPE   O3218000   3.613   2.802   9.550  0.0767 -0.9430 -0.6102
  161SOPE   C3218001   3.540   2.645   9.365 -0.1538  0.2231 -0.7732
  161SOPE   H2X18002   3.471   2.557   9.368  0.4021 -0.2248 -1.1430
  161SOPE   H2Y18003   3.628   2.604   9.312 -1.2696 -1.4949 -1.3788
  161SOPE   C2318004   3.945   2.883   9.462  0.1150 -0.2433  0.3708
  161SOPE   H3R18005   4.016   2.965   9.438 -0.3474 -0.2339 -1.0437
  161SOPE   H3S18006   3.865   2.905   9.535  0.5820 -2.5604  1.6393
  161SOPE   C2418007   3.886   2.842   9.328  0.4357 -0.3206 -0.7709
  161SOPE   H4R18008   3.855   2.736   9.344  1.9683 -0.6446  0.1137
  161SOPE   H4S18009   3.793   2.899   9.307  0.8663  0.0396 -1.7049
  161SOPE   C2518010   3.982   2.850   9.209 -0.4811  0.1552  0.2907
  161SOPE   H5R18011   4.030   2.949   9.222 -0.3884  0.4841 -2.3308
  161SOPE   H5S18012   4.070   2.785   9.229  0.1885  1.3315  1.2509
  161SOPE   C2618013   3.906   2.833   9.074  0.5095  1.1275  0.2281
  161SOPE   H6R18014   3.827   2.909   9.059 -1.1297 -0.2333  1.7283
  161SOPE   H6S18015   3.974   2.855   8.989 -1.7050  0.5039 -1.7702
  161SOPE   C2718016   3.821   2.707   9.051 -0.2226 -0.2485 -0.5171
  161SOPE   H7R18017   3.730   2.720   9.113  0.0422 -2.5978  0.4112
  161SOPE   H7S18018   3.780   2.710   8.948  0.9788  0.3169 -1.0011
  161SOPE   C2818019   3.903   2.575   9.074 -0.1409 -0.6557  0.0920
  161SOPE   H8R18020   3.964   2.544   8.987 -0.4979  0.9943 -0.7506
  161SOPE   H8S18021   3.977   2.597   9.155 -0.3936  1.9167 -0.3270
  161SOPE   C2918022   3.830   2.447   9.122 -0.0891 -0.0920 -0.2075
  161SOPE   H9118023   3.852   2.411   9.223  0.1799  1.6655  0.3767
  161SOPE  C21018024   3.748   2.381   9.036 -0.1792 -0.5780 -0.2092
  161SOPE  H10118025   3.693   2.292   9.071 -1.6898  0.0739 -0.9002
  161SOPE  C21118026   3.720   2.413   8.894 -0.1339 -0.4869  0.0375
  161SOPE  H11R18027   3.789   2.489   8.851  0.8911 -0.9452  0.8624
  161SOPE  H11S18028   3.614   2.447   8.884 -0.1436 -1.3447 -3.1257
  161SOPE  C21218029   3.736   2.299   8.798  0.3804  0.3803 -0.2492
  161SOPE  H12R18030   3.663   2.222   8.831 -0.3778  0.7552 -1.0228
  161SOPE  H12S18031   3.832   2.243   8.793  0.0065 -0.3384  0.5939
  161SOPE  C21318032   3.708   2.334   8.658  0.2371 -0.3098  0.2978
  161SOPE  H13R18033   3.765   2.427   8.636 -0.5144  0.4310  1.4393
  161SOPE  H13S18034   3.606   2.377   8.651  0.7131  0.8044  0.1261
  161SOPE  C21418035   3.745   2.230   8.550 -0.2665  0.5626 -0.3365
  161SOPE  H14R18036   3.833   2.170   8.579 -1.4283 -1.0364 -0.0607
  161SOPE  H14S18037   3.780   2.289   8.462 -2.7245  1.4434 -0.7603
  161SOPE  C21518038   3.631   2.130   8.518  0.6134 -0.2048  0.0531
  161SOPE  H15R18039   3.601   2.075   8.609  1.3714 -0.1088  0.3656
  161SOPE  H15S18040   3.692   2.057   8.461  0.5054 -1.3802  1.4389
  161SOPE  C21618041   3.508   2.186   8.446  0.3464 -0.1792 -0.4797
  161SOPE  H16R18042   3.533   2.266   8.373  2.2889 -0.8109 -0.5189
  161SOPE  H16S18043   3.424   2.221   8.510 -2.2761 -0.9487 -3.3572
  161SOPE  C21718044   3.447   2.077   8.364  0.6012  0.9291  0.5098
  161SOPE  H17R18045   3.423   1.985   8.423  1.9883 -0.5953 -1.2351
  161SOPE  H17S18046   3.519   2.037   8.290 -1.4506 -2.5457  0.2595
  161SOPE  C21818047   3.326   2.119   8.283 -0.1132 -0.1122  0.6033
  161SOPE  H18R18048   3.247   2.150   8.354  0.6217 -0.8756  1.7656
  161SOPE  H18S18049   3.287   2.033   8.224 -2.8161  1.4318  0.0451
  161SOPE  H18T18050   3.348   2.195   8.205 -2.1135  0.0921  0.1884
  161SOPE   C3318051   3.473   2.763   9.293  0.5164 -0.7818  0.5322
  161SOPE   H3X18052   3.536   2.854   9.298 -0.0520 -0.2203 -2.0091
  161SOPE   H3Y18053   3.379   2.782   9.348  0.7562  2.1035  0.0309
  161SOPE   C3418054   3.444   2.711   9.147  0.2280  0.4171 -0.8278
  161SOPE   H4X18055   3.344   2.664   9.155 -0.3002  1.1647 -2.9432
  161SOPE   H4Y18056   3.522   2.636   9.118  1.1434  1.4970 -1.1818
  161SOPE   C3518057   3.446   2.834   9.053  0.6475 -0.2532  0.3651
  161SOPE   H5X18058   3.547   2.881   9.048  1.1448 -1.3501  0.0600
  161SOPE   H5Y18059   3.399   2.915   9.112 -0.2980 -1.8898  1.9159
  161SOPE   C3618060   3.380   2.814   8.921  0.2823 -0.7573 -0.3721
  161SOPE   H6X18061   3.352   2.908   8.869 -1.9820 -1.8692 -1.2156
  161SOPE   H6Y18062   3.284   2.762   8.938  1.4874 -1.9573  3.1179
  161SOPE   C3718063   3.472   2.732   8.829  0.3003  0.0861  0.2460
  161SOPE   H7X18064   3.400   2.656   8.791 -0.0860  0.0036  1.1286
  161SOPE   H7Y18065   3.550   2.682   8.890 -1.7038 -1.7695  1.3746
  161SOPE   C3818066   3.553   2.809   8.721  0.0893 -0.3445 -0.2826
  161SOPE   H8X18067   3.598   2.900   8.765 -0.7383 -0.7661  1.4976
  161SOPE   H8Y18068   3.483   2.841   8.641 -1.9630 -1.0829  1.1746
  161SOPE   C3918069   3.656   2.711   8.670 -0.3849  0.3485  0.6777
  161SOPE   H9X18070   3.619   2.630   8.603  2.9810 -1.9372  1.3952
  161SOPE   H9Y18071   3.696   2.655   8.758  2.8434 -1.6337 -1.9082
  161SOPE  C31018072   3.772   2.783   8.595 -0.8337  0.4147  0.6124
  161SOPE  H10X18073   3.849   2.705   8.579  1.0816  2.8908 -2.7663
  161SOPE  H10Y18074   3.813   2.861   8.662  1.4986 -1.3824  1.3544
  161SOPE  C31118075   3.730   2.847   8.467 -0.9196 -0.3263 -0.5581
  161SOPE  H11X18076   3.652   2.920   8.497  0.6642  0.3967  1.9683
  161SOPE  H11Y18077   3.691   2.778   8.389 -1.7741 -0.7212  0.2138
  161SOPE  C31218078   3.843   2.931   8.401 -0.1364  0.3178 -0.5825
  161SOPE  H12X18079   3.923   2.857   8.382  1.4488  1.3434  1.8374
  161SOPE  H12Y18080   3.873   3.019   8.462 -0.8626 -0.0786  0.3523
  161SOPE  C31318081   3.795   2.981   8.260  0.3134 -0.3460  0.3132
  161SOPE  H13X18082   3.686   3.003   8.256 -0.2179 -2.2555  2.7421
  161SOPE  H13Y18083   3.806   2.892   8.195 -0.3639 -0.4830  0.3860
  161SOPE  C31418084   3.866   3.107   8.205 -0.0934  0.5053  0.5639
  161SOPE  H14X18085   3.976   3.097   8.220 -0.1857  0.3268  1.1314
  161SOPE  H14Y18086   3.836   3.189   8.273 -0.9335 -0.1942  1.0560
  161SOPE  C31518087   3.831   3.143   8.063  0.5565 -0.0171  1.3656
  161SOPE  H15X18088   3.722   3.147   8.047  0.4608 -1.6195  1.5611
  161SOPE  H15Y18089   3.879   3.066   7.998  1.5111  1.9597 -0.3323
  161SOPE  C31618090   3.881   3.287   8.023  0.1214 -0.2283  0.4230
  161SOPE  H16X18091   3.989   3.283   8.046 -0.1318 -0.2562  1.6494
  161SOPE  H16Y18092   3.832   3.364   8.086  2.0128  1.8642 -0.6049
  161SOPE  C31718093   3.860   3.312   7.879 -0.5819  0.2081 -0.7979
  161SOPE  H17X18094   3.752   3.310   7.850 -0.5189 -1.2007 -0.9795
  161SOPE  H17Y18095   3.897   3.219   7.831  0.1570  0.0553  0.0587
  161SOPE  C31818096   3.937   3.429   7.818  0.0027  0.3108  0.0616
  161SOPE  H18X18097   3.901   3.444   7.714  0.1696 -2.0667 -0.3783
  161SOPE  H18Y18098   4.047   3.412   7.816 -0.1089 -1.0226  2.9892
  161SOPE  H18Z18099   3.910   3.527   7.862  0.9854  0.5883  0.0536
  162SOPE     N18100   4.021   1.729  10.203 -0.3613  0.2844 -0.0123
  162SOPE   HN118101   4.075   1.761  10.287 -1.2375 -1.8014  1.3782
  162SOPE   HN218102   3.925   1.709  10.238 -1.2513  1.5458 -1.6866
  162SOPE   HN318103   4.063   1.636  10.184  0.3689  1.1420 -2.7272
  162SOPE   C1218104   4.007   1.823  10.086  0.2563 -0.1075  0.1506
  162SOPE  H12A18105   4.105   1.829  10.033  0.0462  0.5810 -0.1735
  162SOPE  H12B18106   3.988   1.927  10.120  2.1342 -0.2544  1.7137
  162SOPE   C1118107   3.892   1.773   9.999 -0.0488  0.8273 -0.1566
  162SOPE  H11A18108   3.922   1.684   9.940 -1.9483  0.6705 -0.9453
  162SOPE  H11B18109   3.884   1.844   9.914  3.3959  2.2163  0.5944
  162SOPE     P18110   3.680   1.863  10.128 -0.0807 -0.1459 -0.0892
  162SOPE   O1318111   3.751   1.993  10.134  0.0741  0.0700  0.6943
  162SOPE   O1418112   3.607   1.820  10.252  0.0378 -0.0087  0.1461
  162SOPE   O1218113   3.778   1.748  10.082  0.1293 -0.4660  0.2416
  162SOPE   O1118114   3.572   1.872  10.013  0.4547 -0.9594 -0.3291
  162SOPE    C118115   3.499   1.749   9.980 -0.2358 -0.1327 -0.0307
  162SOPE    HA18116   3.459   1.707  10.075 -0.0059  2.3392  1.1891
  162SOPE    HB18117   3.567   1.670   9.942  0.7799  0.7769 -0.1005
  162SOPE    C218118   3.387   1.780   9.875 -0.3191 -0.5077  0.9189
  162SOPE    HS18119   3.341   1.681   9.856 -3.2845  0.8941  0.5674
  162SOPE   O2118120   3.451   1.833   9.757 -0.6611 -0.6190  0.5347
  162SOPE   C2118121   3.517   1.764   9.674 -0.0395 -0.0964  0.9426
  162SOPE   O2218122   3.538   1.644   9.687  0.5303 -1.0176 -0.5823
  162SOPE   C2218123   3.582   1.840   9.558 -0.4981  0.1587 -0.3015
  162SOPE   H2R18124   3.637   1.771   9.490 -0.0871  2.3230 -2.2485
  162SOPE   H2S18125   3.636   1.923   9.607  0.3100 -0.0638 -0.8116
  162SOPE    C318126   3.268   1.880   9.921 -0.3975  0.5239 -0.1373
  162SOPE    HX18127   3.314   1.980   9.933 -2.6657  1.6415 -0.4293
  162SOPE    HY18128   3.235   1.849  10.023  2.3205  0.2794  0.7031
  162SOPE   O3118129   3.161   1.888   9.829 -0.4253 -0.3357  0.3554
  162SOPE   C3118130   3.076   1.784   9.821 -0.1824 -0.4703  0.4177
  162SOPE   O3218131   3.072   1.698   9.903  0.4364  0.1968 -0.4472
  162SOPE   C3218132   3.010   1.783   9.697 -0.2275  0.2725  0.0208
  162SOPE   H2X18133   2.952   1.875   9.678 -1.8190 -0.8202 -0.5400
  162SOPE   H2Y18134   2.929   1.707   9.688 -0.7781  0.7774  0.6387
  162SOPE   C2318135   3.480   1.905   9.457  0.4108 -0.2287 -0.6515
  162SOPE   H3R18136   3.540   1.982   9.403 -0.0468  0.4983 -0.1320
  162SOPE   H3S18137   3.404   1.952   9.523  3.6848  0.8892  2.4286
  162SOPE   C2418138   3.418   1.812   9.354  0.3933  0.1142 -0.3701
  162SOPE   H4R18139   3.401   1.712   9.401  1.1981 -0.3869 -1.1274
  162SOPE   H4S18140   3.318   1.847   9.321  0.8194  1.2081 -0.5161
  162SOPE   C2518141   3.501   1.793   9.234 -0.1700  0.6827 -0.3648
  162SOPE   H5R18142   3.511   1.891   9.182  0.5754  0.9574  0.2779
  162SOPE   H5S18143   3.603   1.753   9.255 -0.5957 -0.8335 -1.0964
  162SOPE   C2618144   3.433   1.701   9.128  0.1578 -0.7372  0.0611
  162SOPE   H6R18145   3.336   1.751   9.111  0.9250  1.1923  1.1622
  162SOPE   H6S18146   3.486   1.696   9.030 -1.5936  3.3151 -1.1623
  162SOPE   C2718147   3.398   1.560   9.178 -0.0290  0.2179  0.0625
  162SOPE   H7R18148   3.471   1.540   9.260 -0.1141  0.6904  0.2549
  162SOPE   H7S18149   3.298   1.559   9.227 -0.4285  1.2031 -0.7161
  162SOPE   C2818150   3.408   1.439   9.082  0.2638  0.1046 -0.0677
  162SOPE   H8R18151   3.515   1.438   9.054  0.0343 -0.1252 -0.9281
  162SOPE   H8S18152   3.380   1.342   9.129 -0.5894 -0.3129 -1.4036
  162SOPE   C2918153   3.321   1.460   8.966  0.3326 -0.3888  0.5792
  162SOPE   H9118154   3.214   1.482   8.985  0.8878  2.9417  0.0831
  162SOPE  C21018155   3.363   1.470   8.840  0.0443 -0.4479  0.2849
  162SOPE  H10118156   3.280   1.490   8.771 -0.4948  1.3132  1.4061
  162SOPE  C21118157   3.494   1.453   8.778  0.4757 -0.5892 -0.0525
  162SOPE  H11R18158   3.566   1.443   8.862 -1.5176 -0.5117  1.7255
  162SOPE  H11S18159   3.523   1.531   8.704 -0.5726  0.7525  0.9119
  162SOPE  C21218160   3.489   1.317   8.709 -0.4007  0.3907  0.3215
  162SOPE  H12R18161   3.444   1.240   8.775  0.2683  2.4351  3.2515
  162SOPE  H12S18162   3.587   1.281   8.672 -1.3384 -0.9545 -0.9321
  162SOPE  C21318163   3.406   1.321   8.580 -0.0344  0.1062  0.5096
  162SOPE  H13R18164   3.430   1.406   8.512  0.9461  0.8177  1.7304
  162SOPE  H13S18165   3.297   1.328   8.600 -0.5074 -1.1982 -1.4824
  162SOPE  C21418166   3.434   1.204   8.482  0.2280 -0.7234 -0.3641
  162SOPE  H14R18167   3.355   1.128   8.503  0.2222 -0.3403  1.0364
  162SOPE  H14S18168   3.534   1.159   8.496  0.4455 -0.1914 -0.2132
  162SOPE  C21518169   3.404   1.230   8.340  0.2564 -0.3392  0.0706
  162SOPE  H15R18170   3.489   1.290   8.299  1.4574 -1.0633  1.4496
  162SOPE  H15S18171   3.305   1.281   8.331  0.4460 -0.0217 -0.2479
  162SOPE  C21618172   3.391   1.100   8.261  0.3205 -0.7436 -0.1610
  162SOPE  H16R18173   3.315   1.033   8.307 -0.7824  0.9011  0.4374
  162SOPE  H16S18174   3.483   1.038   8.260  0.2287 -0.9249  1.6752
  162SOPE  C21718175   3.336   1.119   8.118 -0.1861  0.0686  0.5950
  162SOPE  H17R18176   3.410   1.190   8.074  0.8945 -0.9875  0.6940
  162SOPE  H17S18177   3.241   1.178   8.119  0.0502  0.5650 -2.2299
  162SOPE  C21818178   3.337   0.993   8.035 -0.5224 -0.0736  0.2954
  162SOPE  H18R18179   3.273   0.909   8.068 -0.4143 -0.3491 -0.1832
  162SOPE  H18S18180   3.432   0.935   8.033  0.5658  1.6557  0.9547
  162SOPE  H18T18181   3.308   1.022   7.932 -1.8113  0.4756  0.8056
  162SOPE   C3318182   3.114   1.747   9.583 -0.0294 -0.1317  0.6583
  162SOPE   H3X18183   3.180   1.663   9.614  2.1406  1.5392  0.6280
  162SOPE   H3Y18184   3.178   1.836   9.567 -1.0078  0.3459 -0.7904
  162SOPE   C3418185   3.051   1.688   9.453 -0.0568  0.4036 -0.2397
  162SOPE   H4X18186   2.985   1.604   9.480 -1.2171  0.7986 -1.7844
  162SOPE   H4Y18187   3.129   1.644   9.387 -1.9863 -0.0527 -2.2360
  162SOPE   C3518188   2.966   1.793   9.389 -0.3402 -0.1504  0.4593
  162SOPE   H5X18189   3.030   1.883   9.380 -1.8032  0.9194  0.6320
  162SOPE   H5Y18190   2.878   1.823   9.449 -1.3582  1.5812 -1.8327
  162SOPE   C3618191   2.907   1.758   9.247 -0.3109 -0.4560  0.0475
  162SOPE   H6X18192   2.866   1.847   9.194  0.9733  0.6134  0.8134
  162SOPE   H6Y18193   2.828   1.690   9.284 -1.8973  1.0363 -0.5135
  162SOPE   C3718194   3.003   1.683   9.148  0.7133 -0.1890  0.5177
  162SOPE   H7X18195   3.039   1.595   9.205 -1.3229 -0.7762  0.9546
  162SOPE   H7Y18196   3.098   1.719   9.103 -0.4229  1.6293 -0.5197
  162SOPE   C3818197   2.921   1.623   9.023  0.0659 -0.3868  0.2811
  162SOPE   H8X18198   2.850   1.545   9.057 -0.7989 -0.0751 -0.7950
  162SOPE   H8Y18199   2.991   1.581   8.948  1.3944  0.2094  1.1523
  162SOPE   C3918200   2.832   1.727   8.952  0.9921 -0.4357  0.5058
  162SOPE   H9X18201   2.897   1.796   8.896  0.6139  0.7357  1.4816
  162SOPE   H9Y18202   2.766   1.783   9.022 -1.3858  0.6535 -2.4800
  162SOPE  C31018203   2.728   1.662   8.853 -0.5914  0.6230 -0.1642
  162SOPE  H10X18204   2.651   1.614   8.917  0.4334  2.0338  2.2200
  162SOPE  H10Y18205   2.794   1.589   8.802 -0.5610 -0.1759  0.9810
  162SOPE  C31118206   2.685   1.751   8.739  0.2689 -0.5600 -0.0136
  162SOPE  H11X18207   2.778   1.789   8.691  0.1566  1.7723  1.5387
  162SOPE  H11Y18208   2.621   1.834   8.777  3.4923  1.1615  1.9152
  162SOPE  C31218209   2.613   1.671   8.627  0.5042  0.0436  0.9656
  162SOPE  H12X18210   2.512   1.638   8.660  0.1389 -0.1059 -0.2846
  162SOPE  H12Y18211   2.678   1.584   8.609  0.8032  0.2849  0.8793
  162SOPE  C31318212   2.592   1.761   8.506  0.6426 -0.3575 -0.2533
  162SOPE  H13X18213   2.690   1.776   8.455  0.0852 -0.3638 -1.3190
  162SOPE  H13Y18214   2.547   1.854   8.546  1.1128  0.0837 -0.7375
  162SOPE  C31418215   2.492   1.694   8.406 -0.0351  0.2456 -0.0304
  162SOPE  H14X18216   2.466   1.769   8.328 -2.9177  0.2220  0.8589
  162SOPE  H14Y18217   2.400   1.666   8.460  0.2716  2.0043  1.4580
  162SOPE  C31518218   2.548   1.574   8.328  0.2966  0.0567 -0.2529
  162SOPE  H15X18219   2.556   1.484   8.393 -0.2816  0.8252  0.9011
  162SOPE  H15Y18220   2.648   1.597   8.286  0.6507 -1.7638 -0.4776
  162SOPE  C31618221   2.463   1.536   8.204  0.0028  0.4971  0.8870
  162SOPE  H16X18222   2.450   1.620   8.132  1.4084  2.5024  2.9054
  162SOPE  H16Y18223   2.358   1.532   8.239  0.2619 -0.2796  1.5845
  162SOPE  C31718224   2.477   1.395   8.141 -0.2705  0.7930 -0.6154
  162SOPE  H17X18225   2.406   1.389   8.055 -1.0498 -0.9192  0.1276
  162SOPE  H17Y18226   2.461   1.320   8.222 -0.9459 -0.4963 -1.9151
  162SOPE  C31818227   2.616   1.361   8.083  0.3877  0.2917 -0.0456
  162SOPE  H18X18228   2.624   1.261   8.035  0.7037  1.0825 -1.6565
  162SOPE  H18Y18229   2.690   1.371   8.166 -2.0354  0.4091  2.1474
  162SOPE  H18Z18230   2.648   1.442   8.014  2.8158  0.0202  0.7068
  163SOPE     N18231   4.671   1.801  10.416  0.0414 -0.6278  0.1737
  163SOPE   HN118232   4.612   1.819  10.500 -1.8691  0.0073 -1.2726
  163SOPE   HN218233   4.675   1.700  10.392  1.0892  0.1850 -3.4010
  163SOPE   HN318234   4.769   1.825  10.439 -0.4831  0.1888  1.6361
  163SOPE   C1218235   4.617   1.885  10.304  0.0706  0.1498  0.2927
  163SOPE  H12A18236   4.617   1.993  10.333 -2.1348  0.5636 -1.1152
  163SOPE  H12B18237   4.516   1.843  10.288  0.4333 -0.4466 -0.4879
  163SOPE   C1118238   4.702   1.851  10.178 -1.0881  0.9126 -0.8288
  163SOPE  H11A18239   4.809   1.873  10.196 -1.3049  2.5207 -1.4259
  163SOPE  H11B18240   4.662   1.923  10.103  2.2522  3.2361 -0.4898
  163SOPE     P18241   4.741   1.689   9.984  0.3110  0.3467  0.1856
  163SOPE   O1318242   4.679   1.798   9.901 -0.0879  0.6815  0.4875
  163SOPE   O1418243   4.704   1.547   9.954 -0.1343  0.3058 -0.6029
  163SOPE   O1218244   4.692   1.716  10.130 -0.0773 -0.0363 -0.1978
  163SOPE   O1118245   4.895   1.701   9.990  0.0369  0.2284  0.1309
  163SOPE    C118246   4.990   1.638   9.904  0.5854  0.7116 -0.2477
  163SOPE    HA18247   4.958   1.535   9.875 -0.1897  0.9470 -0.2406
  163SOPE    HB18248   5.083   1.624   9.962  0.7450  2.2276 -0.1329
  163SOPE    C218249   5.023   1.725   9.782  0.2845  0.5452 -0.9351
  163SOPE    HS18250   5.043   1.827   9.820  2.0113 -0.0636 -0.1482
  163SOPE   O2118251   4.909   1.731   9.706  0.6888 -0.4953  0.4127
  163SOPE   C2118252   4.882   1.837   9.642 -0.0847  0.1498 -0.0575
  163SOPE   O2218253   4.947   1.940   9.633 -0.3126 -0.2413  0.4593
  163SOPE   C2218254   4.744   1.810   9.571 -0.7770  0.1319  0.0933
  163SOPE   H2R18255   4.691   1.908   9.572  0.6976  0.9810 -2.0367
  163SOPE   H2S18256   4.687   1.736   9.632 -0.0521  0.2339  0.9003
  163SOPE    C318257   5.135   1.669   9.711  0.0660 -0.2062 -0.1240
  163SOPE    HX18258   5.216   1.678   9.786 -1.0825  0.5872  1.0446
  163SOPE    HY18259   5.164   1.735   9.626 -0.0234  1.1030  0.8498
  163SOPE   O3118260   5.112   1.538   9.663  0.1637 -0.3055  0.0973
  163SOPE   C3118261   5.060   1.519   9.534 -0.1910 -0.1784  0.1829
  163SOPE   O3218262   5.052   1.604   9.449 -0.7662 -0.6625 -0.1893
  163SOPE   C3218263   5.023   1.369   9.521  0.5160  0.3302  0.3492
  163SOPE   H2X18264   4.943   1.349   9.595 -0.7426 -1.2024 -1.3670
  163SOPE   H2Y18265   5.116   1.317   9.553 -0.0730 -0.7209  0.3847
  163SOPE   C2318266   4.779   1.766   9.426  0.0303  0.1693  0.2552
  163SOPE   H3R18267   4.810   1.660   9.438 -0.8384 -0.5293 -3.0173
  163SOPE   H3S18268   4.866   1.820   9.382  1.0905 -0.8981  0.9979
  163SOPE   C2418269   4.653   1.766   9.341  0.3100  0.2908  0.2257
  163SOPE   H4R18270   4.587   1.686   9.382  0.2447 -0.3555 -1.1241
  163SOPE   H4S18271   4.612   1.869   9.352  1.9266  0.7864  1.9479
  163SOPE   C2518272   4.689   1.735   9.194 -0.6587 -0.3934  0.6218
  163SOPE   H5R18273   4.782   1.787   9.162 -0.4923 -0.9239  0.2319
  163SOPE   H5S18274   4.711   1.626   9.186  0.1192 -0.1102 -1.5790
  163SOPE   C2618275   4.582   1.755   9.090  0.6816 -0.2607  0.0202
  163SOPE   H6R18276   4.485   1.714   9.126  0.0160  1.7607  0.6450
  163SOPE   H6S18277   4.579   1.867   9.089 -3.7280 -0.2293  2.1367
  163SOPE   C2718278   4.620   1.707   8.946 -0.6137  0.3517 -0.0106
  163SOPE   H7R18279   4.713   1.762   8.922 -0.6742  0.8169  0.7815
  163SOPE   H7S18280   4.658   1.604   8.961 -3.1844 -0.5482  0.6086
  163SOPE   C2818281   4.498   1.729   8.853 -0.0629 -0.5355  0.6697
  163SOPE   H8R18282   4.416   1.662   8.884 -1.6142  0.5283 -1.0476
  163SOPE   H8S18283   4.470   1.836   8.862 -2.0376 -0.8168 -1.7161
  163SOPE   C2918284   4.551   1.716   8.712 -0.1678  0.4080  0.3957
  163SOPE   H9118285   4.628   1.638   8.706 -0.7083  0.1137 -4.2764
  163SOPE  C21018286   4.502   1.780   8.607  0.7888 -0.0591  0.0615
  163SOPE  H10118287   4.551   1.766   8.509  2.9804  1.6850  0.8562
  163SOPE  C21118288   4.388   1.872   8.610  0.2966  0.2145  0.5672
  163SOPE  H11R18289   4.418   1.979   8.611 -0.7756  0.5587 -1.5517
  163SOPE  H11S18290   4.318   1.865   8.696  0.5543 -1.3147  0.6673
  163SOPE  C21218291   4.301   1.856   8.484 -0.2239  0.3125  0.8442
  163SOPE  H12R18292   4.254   1.755   8.496  0.0757  0.1666  0.7803
  163SOPE  H12S18293   4.356   1.859   8.388  0.6563 -0.6219  1.3167
  163SOPE  C21318294   4.186   1.955   8.466 -0.3700  0.1638  0.2706
  163SOPE  H13R18295   4.235   2.049   8.433  1.7083 -0.3236  1.8118
  163SOPE  H13S18296   4.133   1.964   8.564  1.4003 -0.2944  1.2951
  163SOPE  C21418297   4.099   1.904   8.354 -0.9567 -0.0260 -0.8770
  163SOPE  H14R18298   4.045   1.811   8.383  0.5700 -1.3718 -2.2156
  163SOPE  H14S18299   4.159   1.871   8.266  0.2188 -3.6733  1.1755
  163SOPE  C21518300   3.996   2.006   8.304  0.0927 -0.1023 -0.6795
  163SOPE  H15R18301   4.053   2.100   8.289  0.9053 -0.5514 -0.4087
  163SOPE  H15S18302   3.914   2.023   8.377 -4.9488 -2.4891 -5.4315
  163SOPE  C21618303   3.924   1.976   8.170 -0.4767 -0.1577  0.5355
  163SOPE  H16R18304   3.860   1.889   8.196 -0.5504 -0.3520 -0.2782
  163SOPE  H16S18305   4.002   1.955   8.093  1.5446 -0.2884  2.5888
  163SOPE  C21718306   3.830   2.088   8.121 -0.2054  0.1400  0.1125
  163SOPE  H17R18307   3.891   2.180   8.109  0.5200 -0.2359  0.8967
  163SOPE  H17S18308   3.765   2.114   8.208 -0.5831  0.8052 -0.3618
  163SOPE  C21818309   3.753   2.065   7.988 -0.9182  0.0502  0.1807
  163SOPE  H18R18310   3.741   2.162   7.935  1.3735  0.5087  0.4784
  163SOPE  H18S18311   3.657   2.010   7.999 -1.3240  0.8317  0.5631
  163SOPE  H18T18312   3.815   2.003   7.920  1.4100  2.2048  0.2677
  163SOPE   C3318313   4.992   1.329   9.375  0.1845  0.2153 -0.1649
  163SOPE   H3X18314   4.910   1.396   9.341 -1.3921 -2.5770 -2.0885
  163SOPE   H3Y18315   4.966   1.221   9.368  0.1872 -0.0036  2.6838
  163SOPE   C3418316   5.097   1.348   9.274 -0.2985  1.2286  0.2604
  163SOPE   H4X18317   5.189   1.287   9.288 -0.8036  0.5923  0.8500
  163SOPE   H4Y18318   5.130   1.454   9.269  0.6199  0.9126 -0.6748
  163SOPE   C3518319   5.045   1.329   9.132  0.3705 -0.3564 -0.0719
  163SOPE   H5X18320   4.968   1.250   9.126  2.1376 -2.2831  1.6372
  163SOPE   H5Y18321   5.130   1.296   9.068  0.2045  0.7571 -0.8889
  163SOPE   C3618322   5.000   1.449   9.065 -0.3224 -0.4768  0.7092
  163SOPE   H6X18323   5.085   1.521   9.065 -1.5879  1.0448  0.6122
  163SOPE   H6Y18324   4.909   1.485   9.118  1.4337  2.1314  2.0509
  163SOPE   C3718325   4.964   1.420   8.915  0.6579 -0.0096 -0.6153
  163SOPE   H7X18326   4.881   1.347   8.912  0.9678 -0.3075 -2.4664
  163SOPE   H7Y18327   5.056   1.378   8.869 -0.1784  0.7160 -2.9918
  163SOPE   C3818328   4.929   1.546   8.837 -0.0026 -0.4305 -0.6267
  163SOPE   H8X18329   5.011   1.619   8.852 -0.0208 -0.1743 -1.7352
  163SOPE   H8Y18330   4.840   1.595   8.882 -1.2350 -2.0018 -1.3248
  163SOPE   C3918331   4.904   1.525   8.691 -0.4773  0.4848  0.3082
  163SOPE   H9X18332   4.886   1.622   8.640 -0.2722  0.0421 -0.6214
  163SOPE   H9Y18333   4.828   1.444   8.679 -0.9629  1.2294 -1.8915
  163SOPE  C31018334   5.032   1.469   8.617 -0.2442 -0.2148 -0.5842
  163SOPE  H10X18335   5.057   1.362   8.638 -2.0150 -0.3094  1.1685
  163SOPE  H10Y18336   5.117   1.533   8.649 -1.0752  0.3662  0.4971
  163SOPE  C31118337   5.015   1.483   8.465  0.5993  0.2073 -0.6508
  163SOPE  H11X18338   5.089   1.410   8.426 -0.7017 -1.0465 -0.8317
  163SOPE  H11Y18339   5.042   1.588   8.443 -1.3017  1.2706  1.9054
  163SOPE  C31218340   4.876   1.448   8.407 -0.0809  0.4718  0.0379
  163SOPE  H12X18341   4.808   1.532   8.433 -1.0177 -0.5341  0.8740
  163SOPE  H12Y18342   4.835   1.354   8.449  0.7733 -0.4104 -1.0716
  163SOPE  C31318343   4.884   1.443   8.251  0.4114 -0.2862 -0.5748
  163SOPE  H13X18344   4.925   1.343   8.224  2.1846  0.1716  0.2901
  163SOPE  H13Y18345   4.971   1.508   8.226  0.2649 -1.1250 -3.3388
  163SOPE  C31418346   4.761   1.500   8.174  0.7325  0.5553 -0.1557
  163SOPE  H14X18347   4.667   1.448   8.202  0.7082  0.9499  0.5063
  163SOPE  H14Y18348   4.772   1.486   8.065 -0.1506 -2.3343  0.0948
  163SOPE  C31518349   4.757   1.651   8.191  0.1816 -0.2958  0.6581
  163SOPE  H15X18350   4.843   1.704   8.143 -0.4611 -1.5432 -1.9910
  163SOPE  H15Y18351   4.741   1.677   8.297 -3.5606  0.4039 -0.0095
  163SOPE  C31618352   4.632   1.716   8.127  0.1020 -1.0675 -0.0340
  163SOPE  H16X18353   4.546   1.690   8.191  0.6935  1.2571  1.7625
  163SOPE  H16Y18354   4.604   1.671   8.029  0.3823 -2.0240  0.3202
  163SOPE  C31718355   4.654   1.869   8.112  0.5224 -0.2475  0.3821
  163SOPE  H17X18356   4.741   1.886   8.045 -0.9811 -0.9884 -1.8174
  163SOPE  H17Y18357   4.677   1.919   8.208  1.0370  0.5845 -0.1646
  163SOPE  C31818358   4.528   1.931   8.053  0.8375 -0.4296 -0.1843
  163SOPE  H18X18359   4.446   1.877   8.105 -0.5331  3.0287  1.3745
  163SOPE  H18Y18360   4.524   1.921   7.942 -1.0598  1.0356 -0.2817
  163SOPE  H18Z18361   4.515   2.035   8.089  1.2818 -0.6142  0.5124
  164SOPE     N18362   5.835   4.799   9.973 -0.3689 -0.3097  0.5811
  164SOPE   HN118363   5.762   4.863   9.935  0.5250  0.9972  1.0572
  164SOPE   HN218364   5.871   4.722   9.913 -1.8683 -0.2529 -0.4231
  164SOPE   HN318365   5.795   4.745  10.052 -1.0952 -0.8060 -0.1083
  164SOPE   C1218366   5.934   4.872  10.054  0.4273  0.0939  0.2199
  164SOPE  H12A18367   6.021   4.896   9.988 -0.0880 -2.6148 -1.5326
  164SOPE  H12B18368   5.967   4.804  10.135  2.7614 -0.7879 -1.4198
  164SOPE   C1118369   5.879   5.008  10.105  0.0428  0.0888  0.2786
  164SOPE  H11A18370   5.955   5.041  10.179  0.0270  0.5086  0.1055
  164SOPE  H11B18371   5.782   4.986  10.154  0.3965  0.5083  1.1667
  164SOPE     P18372   5.870   5.235   9.976 -0.1690  0.3835  0.1620
  164SOPE   O1318373   5.998   5.264  10.044  1.0110 -0.1944 -0.5796
  164SOPE   O1418374   5.743   5.302  10.019  0.0023  0.6238 -0.0512
  164SOPE   O1218375   5.840   5.081   9.987 -0.2173  0.2721 -0.2921
  164SOPE   O1118376   5.891   5.250   9.815  0.0087  0.1568  0.1386
  164SOPE    C118377   5.816   5.168   9.722  0.1095  0.3982  0.2175
  164SOPE    HA18378   5.758   5.232   9.653  0.8878  0.2188 -0.6163
  164SOPE    HB18379   5.739   5.106   9.772 -0.3448  0.4267 -0.4506
  164SOPE    C218380   5.911   5.078   9.645 -0.8673 -0.0732  0.5480
  164SOPE    HS18381   5.965   5.008   9.712 -4.2427 -1.7897  1.5891
  164SOPE   O2118382   6.004   5.157   9.564  0.1993 -0.4314 -0.5144
  164SOPE   C2118383   6.116   5.102   9.527  0.4586 -0.1584  0.3172
  164SOPE   O2218384   6.157   4.992   9.556  0.0392 -0.7332  0.4669
  164SOPE   C2218385   6.168   5.188   9.411 -0.1894 -0.5848  0.2412
  164SOPE   H2R18386   6.134   5.292   9.435  0.2902  0.3069 -2.6785
  164SOPE   H2S18387   6.099   5.155   9.331 -2.0248  0.1237  1.4856
  164SOPE    C318388   5.826   4.982   9.553  0.2375 -0.3693  0.0889
  164SOPE    HX18389   5.772   5.040   9.475  1.4122  0.4699 -0.1147
  164SOPE    HY18390   5.753   4.943   9.627  0.8025 -1.2066  0.2181
  164SOPE   O3118391   5.898   4.873   9.489 -0.0767  0.3904 -0.6441
  164SOPE   C3118392   5.916   4.759   9.554  0.2033 -0.5480 -0.0778
  164SOPE   O3218393   5.890   4.734   9.669 -0.4414  0.2282 -0.6248
  164SOPE   C3218394   5.964   4.648   9.461  0.0472 -0.8189 -0.8840
  164SOPE   H2X18395   5.896   4.569   9.500 -0.6143  0.4860  0.6866
  164SOPE   H2Y18396   6.072   4.636   9.482  0.3469 -1.5912 -2.8258
  164SOPE   C2318397   6.313   5.157   9.379  0.2257 -0.2051  0.1078
  164SOPE   H3R18398   6.366   5.132   9.473  1.1795  3.2530  0.5642
  164SOPE   H3S18399   6.360   5.256   9.361  2.1758 -1.1302  0.1022
  164SOPE   C2418400   6.347   5.068   9.265 -0.7456 -0.2534  0.4918
  164SOPE   H4R18401   6.270   5.082   9.186 -0.5697  0.0220  0.3654
  164SOPE   H4S18402   6.447   5.099   9.228 -1.9824 -0.3619 -3.0827
  164SOPE   C2518403   6.356   4.918   9.302  0.6324 -0.4584  0.0815
  164SOPE   H5R18404   6.408   4.902   9.399 -0.6874 -0.0577  0.8656
  164SOPE   H5S18405   6.251   4.886   9.322  0.0410 -0.4270 -2.7137
  164SOPE   C2618406   6.415   4.826   9.191  0.2995 -0.0126 -0.1498
  164SOPE   H6R18407   6.344   4.850   9.108 -0.2237  2.2640  0.8950
  164SOPE   H6S18408   6.513   4.864   9.154  0.6701  1.1930  1.9891
  164SOPE   C2718409   6.435   4.678   9.236  0.1046  0.2156 -0.2109
  164SOPE   H7R18410   6.505   4.669   9.321  0.2148 -3.9193 -0.6322
  164SOPE   H7S18411   6.335   4.644   9.272  0.0534  0.1886 -0.3786
  164SOPE   C2818412   6.489   4.581   9.129  0.0717 -0.2895 -0.0935
  164SOPE   H8R18413   6.500   4.478   9.170  2.6132  0.2212  0.6545
  164SOPE   H8S18414   6.409   4.576   9.053 -0.8070  1.8146  0.6580
  164SOPE   C2918415   6.607   4.621   9.048 -0.4789 -0.3480  0.6639
  164SOPE   H9118416   6.704   4.622   9.100 -0.8802 -2.7673  1.5459
  164SOPE  C21018417   6.604   4.646   8.912  0.3121  0.3208 -0.4178
  164SOPE  H10118418   6.701   4.668   8.866  1.4837 -0.0411  1.8129
  164SOPE  C21118419   6.484   4.646   8.824  0.8091  0.4001  0.1523
  164SOPE  H11R18420   6.414   4.566   8.858  0.7563  0.5030  0.2823
  164SOPE  H11S18421   6.503   4.609   8.721 -4.8669  0.4927 -1.0513
  164SOPE  C21218422   6.399   4.779   8.813  0.2032 -0.2339 -0.4691
  164SOPE  H12R18423   6.360   4.817   8.910  1.9295  1.1316 -0.2896
  164SOPE  H12S18424   6.314   4.742   8.751  0.5004  0.0467 -1.0412
  164SOPE  C21318425   6.481   4.896   8.742  0.0813  0.5508 -0.0856
  164SOPE  H13R18426   6.568   4.911   8.809 -0.4663  4.2213 -0.0567
  164SOPE  H13S18427   6.414   4.984   8.754 -0.1527  0.1356  1.8349
  164SOPE  C21418428   6.530   4.864   8.598 -0.3617  0.8068  0.9366
  164SOPE  H14R18429   6.575   4.763   8.609  0.2440  1.1534  1.7308
  164SOPE  H14S18430   6.615   4.936   8.587 -0.0599  0.4567  0.9750
  164SOPE  C21518431   6.425   4.884   8.483  0.5592  0.2569 -0.0097
  164SOPE  H15R18432   6.351   4.957   8.523 -0.0382 -0.2261 -0.2180
  164SOPE  H15S18433   6.376   4.785   8.467 -1.9651  1.2627  1.1790
  164SOPE  C21618434   6.479   4.940   8.358  0.0811  0.1296 -0.5038
  164SOPE  H16R18435   6.548   5.024   8.381  0.7093 -0.5368  0.0549
  164SOPE  H16S18436   6.393   4.975   8.297 -0.0126  0.7042 -0.0490
  164SOPE  C21718437   6.561   4.838   8.271 -0.3825  0.1935 -0.0269
  164SOPE  H17R18438   6.644   4.805   8.337 -0.2364  1.8347  0.6223
  164SOPE  H17S18439   6.612   4.884   8.184 -0.1855  1.6226  0.8243
  164SOPE  C21818440   6.484   4.717   8.233  0.4560 -0.7722 -0.3599
  164SOPE  H18R18441   6.376   4.737   8.214 -0.0298 -3.2857 -0.4486
  164SOPE  H18S18442   6.478   4.653   8.323 -0.6975 -0.6454 -0.3397
  164SOPE  H18T18443   6.529   4.660   8.149 -0.9489 -0.6521 -1.2315
  164SOPE   C3318444   5.920   4.660   9.314 -0.1077  0.4609  0.5859
  164SOPE   H3X18445   5.818   4.703   9.319  0.0865  0.9025  0.7615
  164SOPE   H3Y18446   5.918   4.556   9.275  0.5073  0.4685  0.5291
  164SOPE   C3418447   6.004   4.747   9.216  0.0352  0.1280 -0.1396
  164SOPE   H4X18448   6.101   4.694   9.209  0.0925 -0.2817  3.1066
  164SOPE   H4Y18449   6.019   4.850   9.256 -0.7297  0.8747 -1.7426
  164SOPE   C3518450   5.947   4.770   9.073  0.2761  0.2809 -0.1145
  164SOPE   H5X18451   6.009   4.834   9.006 -0.8059 -1.5775 -3.0067
  164SOPE   H5Y18452   5.852   4.828   9.072 -0.3570 -0.7382 -0.2757
  164SOPE   C3618453   5.918   4.639   9.008  0.5140 -0.1009 -0.3875
  164SOPE   H6X18454   5.834   4.593   9.065  0.0693  0.8856 -0.2355
  164SOPE   H6Y18455   6.009   4.576   9.008  1.2590  0.9781 -1.3783
  164SOPE   C3718456   5.853   4.646   8.873 -0.1677  0.0902  0.2594
  164SOPE   H7X18457   5.764   4.713   8.868 -0.6938 -0.6985 -1.3955
  164SOPE   H7Y18458   5.823   4.545   8.837  1.4932 -0.0527 -0.8051
  164SOPE   C3818459   5.959   4.682   8.772  0.0864 -0.0267 -0.1847
  164SOPE   H8X18460   6.044   4.611   8.778 -0.0072 -0.0773  0.5800
  164SOPE   H8Y18461   6.003   4.782   8.791  0.8743 -0.5508  0.7083
  164SOPE   C3918462   5.892   4.685   8.634  0.6935 -0.0301 -0.3214
  164SOPE   H9X18463   5.828   4.775   8.645 -0.4514 -0.8678 -0.0910
  164SOPE   H9Y18464   5.820   4.603   8.617  0.4317  0.2883 -0.7577
  164SOPE  C31018465   5.992   4.689   8.519  0.3330 -0.5005 -0.0577
  164SOPE  H10X18466   6.062   4.603   8.510  0.4847 -0.2526 -1.2900
  164SOPE  H10Y18467   6.049   4.784   8.513 -1.5052  0.5232 -1.4300
  164SOPE  C31118468   5.915   4.681   8.381  0.0959 -0.3287 -0.0654
  164SOPE  H11X18469   5.835   4.758   8.386  0.2405 -0.1110 -0.9045
  164SOPE  H11Y18470   5.886   4.575   8.364  0.5156 -0.2733 -1.1670
  164SOPE  C31218471   6.007   4.698   8.264 -0.1614  0.2078  0.5838
  164SOPE  H12X18472   5.960   4.657   8.172 -0.2000  1.2399  0.1273
  164SOPE  H12Y18473   6.105   4.647   8.277  0.3363  1.2629  1.0599
  164SOPE  C31318474   6.037   4.844   8.225  0.1151  0.4525  0.6508
  164SOPE  H13X18475   6.095   4.892   8.307 -1.5981  1.6688  1.1628
  164SOPE  H13Y18476   5.941   4.899   8.217  0.8241  1.6836  0.4132
  164SOPE  C31418477   6.114   4.847   8.091  0.1738  0.5415  0.0537
  164SOPE  H14X18478   6.052   4.793   8.017  1.3398 -2.9366  1.5073
  164SOPE  H14Y18479   6.211   4.795   8.108 -0.2559 -0.7335 -1.3041
  164SOPE  C31518480   6.146   4.995   8.050 -0.0624 -0.1568 -0.2866
  164SOPE  H15X18481   6.205   5.040   8.133 -1.3302 -1.6186  1.4412
  164SOPE  H15Y18482   6.048   5.047   8.047 -0.4354 -0.8541 -0.3049
  164SOPE  C31618483   6.220   5.007   7.915 -0.3184 -0.0937  0.3727
  164SOPE  H16X18484   6.214   5.114   7.886  0.8106  0.1157  0.8624
  164SOPE  H16Y18485   6.169   4.950   7.835  0.5025 -0.4472  0.0985
  164SOPE  C31718486   6.372   4.969   7.919  0.2279  0.0887 -0.0150
  164SOPE  H17X18487   6.405   4.994   8.022  0.0151  1.0161 -0.1650
  164SOPE  H17Y18488   6.434   5.035   7.855  2.4487 -0.4187  1.5597
  164SOPE  C31818489   6.409   4.829   7.891  0.3231  0.0790 -0.4474
  164SOPE  H18X18490   6.361   4.751   7.953  1.5510 -0.1961  0.1622
  164SOPE  H18Y18491   6.516   4.807   7.909  0.1964 -1.3156 -1.3446
  164SOPE  H18Z18492   6.390   4.808   7.783  3.6312  0.9606 -1.2481
  165SOPE     N18493   4.639   6.308  10.160  0.1907  0.8036  0.0654
  165SOPE   HN118494   4.546   6.330  10.201  0.7127  3.0519  0.0768
  165SOPE   HN218495   4.647   6.391  10.099  0.2695  1.7520  1.3584
  165SOPE   HN318496   4.645   6.218  10.108 -1.9462 -1.0414  2.8453
  165SOPE   C1218497   4.730   6.284  10.277 -0.1986 -0.0411 -0.3697
  165SOPE  H12A18498   4.679   6.264  10.373  1.1169 -0.8645  0.1553
  165SOPE  H12B18499   4.792   6.375  10.291 -0.3679 -0.2790  2.0092
  165SOPE   C1118500   4.838   6.176  10.239  0.3047  0.1834  0.1978
  165SOPE  H11A18501   4.788   6.085  10.199  2.6954 -0.8525 -0.4628
  165SOPE  H11B18502   4.890   6.143  10.332 -1.6409 -1.3217  0.7920
  165SOPE     P18503   5.064   6.149  10.113 -0.3334 -0.3053  0.2758
  165SOPE   O1318504   5.069   6.006  10.144  0.2645  0.5369  0.1093
  165SOPE   O1418505   5.164   6.219  10.193 -0.0816 -0.2815  0.0567
  165SOPE   O1218506   4.928   6.219  10.138 -0.5776 -0.1777  0.2315
  165SOPE   O1118507   5.097   6.171   9.964 -0.4546 -0.0677 -0.0370
  165SOPE    C118508   5.014   6.237   9.869  0.4343  0.5490  0.6941
  165SOPE    HA18509   5.072   6.313   9.812 -0.4345  0.4732 -0.3273
  165SOPE    HB18510   4.933   6.295   9.919  0.5723  0.9945  0.4041
  165SOPE    C218511   4.950   6.141   9.765  0.1539 -0.3681 -0.7120
  165SOPE    HS18512   4.910   6.059   9.828 -0.6869  2.1365  2.1183
  165SOPE   O2118513   5.049   6.091   9.677  0.2724 -0.2948  0.2393
  165SOPE   C2118514   5.010   6.003   9.586  0.1756 -0.5585 -0.3359
  165SOPE   O2218515   4.903   5.949   9.584  0.0988 -0.3121  0.2989
  165SOPE   C2218516   5.128   5.985   9.491  0.3703  0.0822 -0.2262
  165SOPE   H2R18517   5.184   5.894   9.521 -0.2700 -0.7624 -1.5428
  165SOPE   H2S18518   5.201   6.069   9.498  0.1658  0.0378  3.9112
  165SOPE    C318519   4.838   6.211   9.681 -0.0741 -0.3752 -0.0740
  165SOPE    HX18520   4.764   6.259   9.748  0.4997  0.5554 -0.0874
  165SOPE    HY18521   4.774   6.140   9.625  0.1234  1.2950 -2.4803
  165SOPE   O3118522   4.902   6.315   9.597  0.1840  0.2381  0.2265
  165SOPE   C3118523   4.897   6.307   9.463  0.0519 -0.0148 -1.0880
  165SOPE   O3218524   4.824   6.233   9.405  0.4681 -0.0448  0.4562
  165SOPE   C3218525   5.007   6.386   9.394  0.6963 -0.4628  0.0497
  165SOPE   H2X18526   5.076   6.423   9.472 -0.7168  2.3218  0.0397
  165SOPE   H2Y18527   4.974   6.474   9.334  4.7822  1.0664 -0.0756
  165SOPE   C2318528   5.071   5.955   9.346 -1.0519 -0.2503  0.1121
  165SOPE   H3R18529   5.159   5.958   9.277 -1.1164 -1.6493 -0.0470
  165SOPE   H3S18530   5.000   6.032   9.308  0.3598 -0.1355 -2.3937
  165SOPE   C2418531   5.010   5.815   9.326  0.1398  0.0672  0.2468
  165SOPE   H4R18532   5.092   5.740   9.326 -1.0119 -1.1973  0.5238
  165SOPE   H4S18533   4.940   5.787   9.407  0.8330  0.6320  1.0521
  165SOPE   C2518534   4.922   5.804   9.195  0.3503  0.9741  0.4104
  165SOPE   H5R18535   4.856   5.716   9.208  1.4919 -0.0660 -0.7383
  165SOPE   H5S18536   4.875   5.901   9.169 -0.1341  0.7602  0.4827
  165SOPE   C2618537   5.012   5.764   9.076  0.3979  0.8271 -0.6048
  165SOPE   H6R18538   5.094   5.839   9.068  0.2765  1.4970  3.2111
  165SOPE   H6S18539   5.062   5.665   9.087  1.3959  1.2928 -0.8887
  165SOPE   C2718540   4.931   5.768   8.942 -0.3274  0.4115 -0.0511
  165SOPE   H7R18541   4.832   5.718   8.952 -0.3218  0.7509  1.9348
  165SOPE   H7S18542   4.911   5.871   8.904  2.5662  1.5834  1.4445
  165SOPE   C2818543   5.003   5.697   8.825 -0.5655  0.2180  0.0830
  165SOPE   H8R18544   5.020   5.595   8.865 -2.7301  0.0259  0.5454
  165SOPE   H8S18545   4.936   5.693   8.737 -0.0048 -1.2865 -0.2856
  165SOPE   C2918546   5.134   5.761   8.794  0.4767  0.1622 -0.4046
  165SOPE   H9118547   5.187   5.808   8.879  2.3594 -3.0068  0.2255
  165SOPE  C21018548   5.201   5.749   8.680 -0.2766  0.2944 -0.0560
  165SOPE  H10118549   5.296   5.802   8.665 -0.3710  0.1436 -1.2144
  165SOPE  C21118550   5.147   5.665   8.566 -0.4172 -0.0915 -0.9109
  165SOPE  H11R18551   5.061   5.717   8.517 -1.0294 -1.0214 -0.8350
  165SOPE  H11S18552   5.110   5.568   8.604 -0.0550  0.0802 -0.1296
  165SOPE  C21218553   5.255   5.646   8.459  0.0932 -0.0710 -0.8425
  165SOPE  H12R18554   5.202   5.588   8.381 -1.1625 -0.6593  0.4313
  165SOPE  H12S18555   5.343   5.587   8.492  0.7337  0.2308 -1.9628
  165SOPE  C21318556   5.303   5.778   8.394  0.5580 -0.1592  0.1541
  165SOPE  H13R18557   5.369   5.764   8.306  1.1181 -0.3996  0.6053
  165SOPE  H13S18558   5.361   5.842   8.465 -0.9837 -0.2156  1.4748
  165SOPE  C21418559   5.185   5.865   8.342 -0.0865  0.1254  0.2312
  165SOPE  H14R18560   5.120   5.905   8.423  1.5269  0.4470  1.3959
  165SOPE  H14S18561   5.116   5.797   8.287 -0.0271 -1.0360  1.5552
  165SOPE  C21518562   5.228   5.981   8.245 -0.2081  0.5864 -0.2401
  165SOPE  H15R18563   5.275   5.928   8.159  0.1439 -1.8944  1.4016
  165SOPE  H15S18564   5.306   6.042   8.297 -0.1110 -0.3757  0.7833
  165SOPE  C21618565   5.101   6.057   8.208  0.5968  0.6447  0.4166
  165SOPE  H16R18566   5.062   6.106   8.299 -1.7839  1.2799 -0.9143
  165SOPE  H16S18567   5.015   5.994   8.176  1.1195  0.9640 -1.7162
  165SOPE  C21718568   5.116   6.173   8.101 -0.0255  0.0187 -0.3958
  165SOPE  H17R18569   5.124   6.135   7.997 -2.6236 -1.2235 -0.1726
  165SOPE  H17S18570   5.219   6.204   8.129  0.5117  0.7637 -3.1244
  165SOPE  C21818571   5.005   6.287   8.092  0.3965  0.2727  0.0361
  165SOPE  H18R18572   5.042   6.357   8.014  0.8675  0.4291  0.4003
  165SOPE  H18S18573   4.995   6.335   8.191  2.9763  1.4026 -0.1948
  165SOPE  H18T18574   4.910   6.242   8.056  1.0582 -0.5762 -0.6993
  165SOPE   C3318575   5.091   6.311   9.290 -0.3423 -0.4447 -0.4005
  165SOPE   H3X18576   5.137   6.218   9.329 -0.2406 -0.3925 -0.3972
  165SOPE   H3Y18577   5.181   6.369   9.260 -0.5690 -0.8531 -1.9492
  165SOPE   C3418578   5.021   6.279   9.163  0.4498  0.3627 -0.4981
  165SOPE   H4X18579   4.975   6.371   9.121  2.4163  1.9133  0.6688
  165SOPE   H4Y18580   4.940   6.206   9.184  1.9017 -1.4610 -1.1091
  165SOPE   C3518581   5.103   6.209   9.053  0.1091 -0.3121  0.5834
  165SOPE   H5X18582   5.038   6.198   8.963  0.6313 -2.2616  0.4195
  165SOPE   H5Y18583   5.132   6.105   9.081  0.6375  0.0366  1.3460
  165SOPE   C3618584   5.232   6.275   9.015  0.2758  0.4966  0.1377
  165SOPE   H6X18585   5.298   6.214   8.950 -1.8726 -0.5309 -1.1021
  165SOPE   H6Y18586   5.299   6.293   9.102 -1.6987 -2.3049  2.3364
  165SOPE   C3718587   5.218   6.415   8.953  0.3382  0.3674 -0.1393
  165SOPE   H7X18588   5.202   6.490   9.033  0.1881 -1.0183  1.1488
  165SOPE   H7Y18589   5.134   6.404   8.880 -0.7657 -0.3822  1.2313
  165SOPE   C3818590   5.341   6.454   8.863  0.6439 -0.3991 -0.0218
  165SOPE   H8X18591   5.422   6.404   8.921  0.4115 -1.9479 -0.9969
  165SOPE   H8Y18592   5.363   6.562   8.870 -0.9718 -0.0723  0.2422
  165SOPE   C3918593   5.333   6.401   8.718  0.3898  0.4333  0.2342
  165SOPE   H9X18594   5.253   6.459   8.668  1.6257 -0.3355 -2.7251
  165SOPE   H9Y18595   5.287   6.299   8.717  1.4307 -0.0552  0.8703
  165SOPE  C31018596   5.462   6.408   8.639 -1.0053 -0.1513 -0.3226
  165SOPE  H10X18597   5.537   6.342   8.687 -0.5970  0.2579 -0.3968
  165SOPE  H10Y18598   5.505   6.511   8.634  1.0017 -0.7817  2.4134
  165SOPE  C31118599   5.442   6.372   8.491 -0.6291 -0.6576  0.6366
  165SOPE  H11X18600   5.360   6.437   8.454 -0.3045 -1.2638 -1.2158
  165SOPE  H11Y18601   5.405   6.268   8.496 -3.4824  0.3312  0.6192
  165SOPE  C31218602   5.566   6.404   8.397  0.2514 -0.8707  0.3630
  165SOPE  H12X18603   5.655   6.353   8.439  1.6881  0.0148 -1.5232
  165SOPE  H12Y18604   5.584   6.513   8.406 -0.7929 -0.7259  0.8136
  165SOPE  C31318605   5.542   6.380   8.249  0.4565 -0.1560  0.2226
  165SOPE  H13X18606   5.472   6.464   8.230  1.3172  0.2765 -1.0912
  165SOPE  H13Y18607   5.487   6.284   8.238 -0.9393  0.6519 -0.0313
  165SOPE  C31418608   5.661   6.386   8.158 -0.4096 -0.8449 -1.0941
  165SOPE  H14X18609   5.712   6.290   8.182 -2.2209 -1.4950  0.2621
  165SOPE  H14Y18610   5.733   6.467   8.183 -1.8425  0.2818 -0.5492
  165SOPE  C31518611   5.616   6.394   8.010 -0.2464  0.5031 -0.1926
  165SOPE  H15X18612   5.564   6.490   7.990  0.5126  1.0241  0.3579
  165SOPE  H15Y18613   5.533   6.322   7.997  1.7597 -1.7997 -0.6597
  165SOPE  C31618614   5.726   6.368   7.906  0.5177  0.2365  0.0355
  165SOPE  H16X18615   5.828   6.365   7.948  0.5715  0.6621 -0.0514
  165SOPE  H16Y18616   5.719   6.457   7.839 -1.8677  0.0632  0.0026
  165SOPE  C31718617   5.707   6.241   7.820 -0.0493  0.6488  0.6270
  165SOPE  H17X18618   5.614   6.242   7.760 -0.0607 -1.5188  0.5606
  165SOPE  H17Y18619   5.706   6.146   7.878 -1.6116 -0.0325 -0.4825
  165SOPE  C31818620   5.818   6.221   7.710 -0.4276  0.3274  0.1456
  165SOPE  H18X18621   5.921   6.201   7.746 -1.7684 -1.2134  3.3379
  165SOPE  H18Y18622   5.810   6.305   7.637  0.0021 -0.5247 -0.8939
  165SOPE  H18Z18623   5.793   6.131   7.650 -0.6438  1.9923 -2.3775
  166SOPE     N18624   0.035   6.134  10.343 -0.4358 -0.1382 -0.2138
  166SOPE   HN118625   0.072   6.070  10.269 -0.2021 -0.1805 -0.0585
  166SOPE   HN218626   0.120   6.177  10.384 -1.1027 -0.1702  1.2158
  166SOPE   HN318627  -0.018   6.085  10.418  2.7922 -2.2920  0.7421
  166SOPE   C1218628  -0.024   6.251  10.294  0.8513  0.7661 -0.6892
  166SOPE  H12A18629   0.049   6.321  10.249  0.8817  1.1566 -0.0447
  166SOPE  H12B18630  -0.072   6.301  10.381 -0.5199 -1.0854 -0.3326
  166SOPE   C1118631  -0.129   6.218  10.187  0.4136  0.0166  0.8339
  166SOPE  H11A18632  -0.171   6.314  10.150  0.4516  0.1737  1.1977
  166SOPE  H11B18633  -0.215   6.166  10.235  0.8397 -1.7780 -0.2967
  166SOPE     P18634  -0.026   6.211   9.954 -0.3463  0.0936 -0.1065
  166SOPE   O1318635   0.023   6.117   9.853  0.5319  0.2660  0.1699
  166SOPE   O1418636   0.075   6.306   9.997  0.1572  0.3121 -0.1268
  166SOPE   O1218637  -0.075   6.137  10.084  0.0324 -0.1610 -0.1830
  166SOPE   O1118638  -0.160   6.286   9.903 -0.1397  0.2482 -0.2489
  166SOPE    C118639  -0.268   6.202   9.858  0.0638  0.2661 -0.0013
  166SOPE    HA18640  -0.359   6.212   9.921 -2.3546 -1.0330 -3.1777
  166SOPE    HB18641  -0.239   6.095   9.867 -0.7130  0.1295  1.0864
  166SOPE    C218642  -0.312   6.226   9.715  0.0476 -0.6098  0.4652
  166SOPE    HS18643  -0.373   6.143   9.673  0.8437 -1.4425  0.9409
  166SOPE   O2118644  -0.193   6.244   9.637 -0.1318 -0.3391  0.1684
  166SOPE   C2118645  -0.150   6.130   9.592  0.3755 -0.1313  0.1438
  166SOPE   O2218646  -0.213   6.023   9.608 -0.3334  0.4096 -0.0189
  166SOPE   C2218647  -0.016   6.151   9.529  0.1788 -0.2661 -0.2441
  166SOPE   H2R18648   0.056   6.146   9.613 -0.3570 -0.8716  0.1863
  166SOPE   H2S18649  -0.002   6.249   9.478 -2.5503  0.9275  1.1820
  166SOPE    C318650  -0.407   6.352   9.698 -0.0384  0.0753  0.6460
  166SOPE    HX18651  -0.349   6.430   9.751 -0.2741  0.2606  0.6302
  166SOPE    HY18652  -0.504   6.338   9.752  0.2721 -0.7129  1.0059
  166SOPE   O3118653  -0.437   6.375   9.560 -0.3450  0.5496  0.1074
  166SOPE   C3118654  -0.363   6.466   9.507 -0.3143  0.6245 -0.1029
  166SOPE   O3218655  -0.300   6.548   9.559  0.4318  0.1526 -0.3811
  166SOPE   C3218656  -0.376   6.455   9.355 -0.5985 -0.3874 -0.6075
  166SOPE   H2X18657  -0.422   6.551   9.325  1.4653  1.6187  2.3406
  166SOPE   H2Y18658  -0.443   6.375   9.318  0.9223 -0.5272 -3.1792
  166SOPE   C2318659   0.023   6.040   9.422 -0.4919  0.1577  0.2878
  166SOPE   H3R18660   0.010   5.942   9.472  0.9587 -0.0170  0.3323
  166SOPE   H3S18661   0.131   6.049   9.397 -0.6320  0.5329 -0.2000
  166SOPE   C2418662  -0.062   6.058   9.294  0.0943  0.1833 -0.2600
  166SOPE   H4R18663  -0.169   6.070   9.321  0.4905  0.8064  1.1266
  166SOPE   H4S18664  -0.023   6.149   9.243  1.0728  0.8585  1.6187
  166SOPE   C2518665  -0.037   5.944   9.196 -0.7299  0.3497  0.5981
  166SOPE   H5R18666   0.030   5.863   9.232 -0.9694  0.8036  2.1030
  166SOPE   H5S18667  -0.133   5.891   9.178 -0.6828  0.7449 -0.8726
  166SOPE   C2618668   0.003   6.005   9.060 -0.4603 -0.0784  0.2016
  166SOPE   H6R18669  -0.078   6.076   9.035  0.9135  1.3992 -0.0814
  166SOPE   H6S18670   0.097   6.054   9.092 -0.8707 -0.3641  1.9260
  166SOPE   C2718671   0.028   5.902   8.955  0.1359  0.2660  0.9275
  166SOPE   H7R18672   0.116   5.847   8.993  0.6563  0.8188  0.5394
  166SOPE   H7S18673  -0.058   5.832   8.954  1.5539 -1.4785 -0.3087
  166SOPE   C2818674   0.048   5.949   8.807  0.4433  0.0743  0.3253
  166SOPE   H8R18675   0.138   6.014   8.792  0.3720 -0.1547 -1.1501
  166SOPE   H8S18676   0.052   5.857   8.745 -4.1894  0.5305 -0.8055
  166SOPE   C2918677  -0.066   6.036   8.767  0.4188 -0.1073 -0.2261
  166SOPE   H9118678  -0.129   6.064   8.852  0.4073  0.4280 -0.4095
  166SOPE  C21018679  -0.112   6.082   8.643  0.3554 -0.8058  0.0249
  166SOPE  H10118680  -0.214   6.122   8.635 -0.0018 -1.2018  2.2955
  166SOPE  C21118681  -0.038   6.045   8.517 -0.0683 -0.1595 -0.4359
  166SOPE  H11R18682  -0.107   6.010   8.437 -0.5211  0.2470 -0.2252
  166SOPE  H11S18683   0.033   5.960   8.530 -0.6124 -0.6354 -0.5308
  166SOPE  C21218684   0.031   6.172   8.448  0.1418 -0.0732  0.3868
  166SOPE  H12R18685   0.132   6.182   8.492  0.8773  0.9966 -1.4780
  166SOPE  H12S18686  -0.044   6.252   8.466 -0.3974 -0.2539 -1.0034
  166SOPE  C21318687   0.032   6.159   8.293 -0.5298  0.6536  0.6640
  166SOPE  H13R18688  -0.070   6.131   8.259  0.1763 -0.1050 -0.8596
  166SOPE  H13S18689   0.085   6.066   8.263 -1.3406  0.4337 -0.0910
  166SOPE  C21418690   0.068   6.294   8.218 -0.4780  0.1467 -0.5993
  166SOPE  H14R18691   0.002   6.367   8.268  0.3023  0.3057  0.2109
  166SOPE  H14S18692   0.049   6.296   8.109  0.5471 -0.1292 -0.7890
  166SOPE  C21518693   0.207   6.348   8.236 -0.2523 -1.2895 -0.2341
  166SOPE  H15R18694   0.282   6.278   8.193  1.2099 -0.0830  0.2920
  166SOPE  H15S18695   0.247   6.366   8.337  0.8537 -0.3609 -0.8231
  166SOPE  C21618696   0.217   6.492   8.164 -0.5950  0.3230  0.0947
  166SOPE  H16R18697   0.320   6.529   8.181 -0.5523  0.1092  0.3093
  166SOPE  H16S18698   0.144   6.567   8.204  2.5211  3.4837  0.0471
  166SOPE  C21718699   0.202   6.492   8.009  0.1987 -0.3135  0.4340
  166SOPE  H17R18700   0.096   6.477   7.980 -0.3525  1.2723  1.6220
  166SOPE  H17S18701   0.251   6.401   7.967 -1.8924 -2.1606  1.8290
  166SOPE  C21818702   0.258   6.618   7.940 -0.6153 -0.8781  1.8006
  166SOPE  H18R18703   0.363   6.641   7.971 -0.4252 -0.5818  0.9410
  166SOPE  H18S18704   0.195   6.708   7.951  0.4547  0.2640 -1.0395
  166SOPE  H18T18705   0.257   6.595   7.831 -2.7708 -1.5501  1.9485
  166SOPE   C3318706  -0.233   6.454   9.292  0.5274  0.5640 -0.1675
  166SOPE   H3X18707  -0.177   6.375   9.345  1.1866  1.4817  0.5051
  166SOPE   H3Y18708  -0.194   6.553   9.323  1.4111 -0.0910  0.8145
  166SOPE   C3418709  -0.233   6.441   9.147 -0.1079  0.4945  1.0669
  166SOPE   H4X18710  -0.291   6.526   9.107  0.0181  0.1838  0.2071
  166SOPE   H4Y18711  -0.303   6.360   9.118  0.0153  0.4657  0.8529
  166SOPE   C3518712  -0.093   6.430   9.085 -0.2423  0.2399 -0.3479
  166SOPE   H5X18713  -0.044   6.334   9.111 -0.9605 -0.4671 -1.5718
  166SOPE   H5Y18714  -0.030   6.511   9.127  0.0548  1.3212 -2.7614
  166SOPE   C3618715  -0.103   6.458   8.932  0.5229 -0.6645 -0.3996
  166SOPE   H6X18716  -0.176   6.540   8.914 -0.1642 -1.3368 -0.6784
  166SOPE   H6Y18717  -0.151   6.371   8.882 -2.5515 -0.3534  1.8796
  166SOPE   C3718718   0.036   6.486   8.871  0.0861 -0.2074 -0.2207
  166SOPE   H7X18719   0.094   6.556   8.935 -0.2999 -0.2693  0.1981
  166SOPE   H7Y18720   0.010   6.546   8.781  0.6709 -1.2241 -1.0701
  166SOPE   C3818721   0.128   6.364   8.851 -0.3855  0.6638  0.5384
  166SOPE   H8X18722   0.058   6.294   8.802 -0.2669 -1.1136  2.8076
  166SOPE   H8Y18723   0.189   6.340   8.941  1.2288  1.1274 -0.4088
  166SOPE   C3918724   0.238   6.405   8.751  0.7371 -0.0188  0.0898
  166SOPE   H9X18725   0.296   6.494   8.784  2.0414 -0.7662 -0.1271
  166SOPE   H9Y18726   0.189   6.446   8.660  0.6533 -1.7098 -0.6414
  166SOPE  C31018727   0.329   6.293   8.705 -0.6053 -0.3555 -0.0599
  166SOPE  H10X18728   0.268   6.205   8.675 -2.4204  1.1406 -0.9150
  166SOPE  H10Y18729   0.397   6.262   8.787 -0.2967  1.0438  0.2228
  166SOPE  C31118730   0.412   6.343   8.585  0.0234 -0.4208 -0.4268
  166SOPE  H11X18731   0.354   6.398   8.509 -0.7640 -1.9244 -0.9289
  166SOPE  H11Y18732   0.455   6.258   8.529  2.8324  0.9504 -0.4641
  166SOPE  C31218733   0.531   6.428   8.628  0.9204  0.0825 -0.0961
  166SOPE  H12X18734   0.577   6.377   8.716 -0.9232  0.9192  1.3906
  166SOPE  H12Y18735   0.501   6.529   8.664 -0.6427 -0.8797  1.3888
  166SOPE  C31318736   0.632   6.443   8.512  0.2223 -0.8066  0.4256
  166SOPE  H13X18737   0.675   6.349   8.472 -1.2457 -1.0246 -0.6599
  166SOPE  H13Y18738   0.711   6.515   8.543  0.5878 -0.0519 -2.1353
  166SOPE  C31418739   0.577   6.521   8.390 -0.2541 -0.2821  0.5393
  166SOPE  H14X18740   0.585   6.626   8.425  2.4316 -0.9831  2.1698
  166SOPE  H14Y18741   0.470   6.502   8.367 -0.6786  1.9131  0.6437
  166SOPE  C31518742   0.655   6.487   8.255  0.1581 -0.0667  0.3376
  166SOPE  H15X18743   0.765   6.483   8.269  0.3934 -1.0906 -1.5944
  166SOPE  H15Y18744   0.626   6.573   8.192  0.9463  0.8922  1.2806
  166SOPE  C31618745   0.625   6.343   8.197 -0.1273  0.1794  0.8685
  166SOPE  H16X18746   0.539   6.330   8.128  0.0639 -2.3311  1.0523
  166SOPE  H16Y18747   0.601   6.274   8.280 -2.8785 -0.2573 -0.2257
  166SOPE  C31718748   0.753   6.302   8.124  0.3316 -0.0917 -0.8016
  166SOPE  H17X18749   0.741   6.196   8.094  0.7395 -0.0482 -1.1390
  166SOPE  H17Y18750   0.835   6.298   8.199 -0.7475  3.2162  0.6609
  166SOPE  C31818751   0.806   6.390   8.007  0.5605  0.4768 -0.1207
  166SOPE  H18X18752   0.812   6.500   8.024 -1.7873  0.4694  1.0357
  166SOPE  H18Y18753   0.744   6.375   7.916  0.6953 -0.4198 -0.0634
  166SOPE  H18Z18754   0.906   6.359   7.970  0.4515  1.1198 -0.9822
  167SOPE     N18755   4.621   3.672   5.424 -0.2064  0.2340  0.1949
  167SOPE   HN118756   4.546   3.600   5.423 -1.4149  1.4628 -1.0298
  167SOPE   HN218757   4.563   3.758   5.428 -2.1960 -0.9272 -2.5963
  167SOPE   HN318758   4.668   3.672   5.332  0.7921  2.6542  0.6607
  167SOPE   C1218759   4.714   3.656   5.547 -0.2561 -0.5180  0.3453
  167SOPE  H12A18760   4.815   3.683   5.510  0.3148 -1.7829  0.9566
  167SOPE  H12B18761   4.711   3.549   5.577  0.0707 -0.3432  1.0157
  167SOPE   C1118762   4.670   3.733   5.670 -0.7783  0.1497  0.3983
  167SOPE  H11A18763   4.563   3.710   5.686 -0.2161 -1.6754  1.7713
  167SOPE  H11B18764   4.683   3.841   5.650  1.1623 -0.1402 -0.0559
  167SOPE     P18765   4.876   3.751   5.824  0.2104 -0.0990  1.0469
  167SOPE   O1318766   4.881   3.898   5.800 -0.4030 -0.1447 -0.5713
  167SOPE   O1418767   4.982   3.668   5.768 -0.6969  0.3094 -0.3675
  167SOPE   O1218768   4.735   3.692   5.784  0.4208 -0.1184  0.2481
  167SOPE   O1118769   4.868   3.728   5.979  0.5654  0.3124  0.0162
  167SOPE    C118770   4.991   3.699   6.051 -0.2911  0.5284  0.3356
  167SOPE    HA18771   4.977   3.727   6.157 -2.0622 -1.2558  0.5880
  167SOPE    HB18772   5.080   3.753   6.011  0.4945 -1.3452 -0.5487
  167SOPE    C218773   5.028   3.549   6.057 -0.3972  0.6711  0.5451
  167SOPE    HS18774   4.952   3.502   5.990  0.7145 -3.1598  1.8638
  167SOPE   O2118775   5.015   3.503   6.192 -0.7204  0.2612 -0.0952
  167SOPE   C2118776   4.997   3.375   6.215  0.6306 -0.2873 -0.0076
  167SOPE   O2218777   4.993   3.287   6.134  0.0420 -0.6268  0.3787
  167SOPE   C2218778   4.983   3.347   6.357 -0.1985 -0.2574 -0.2947
  167SOPE   H2R18779   4.996   3.237   6.366  0.9758 -0.1153 -0.2697
  167SOPE   H2S18780   4.882   3.376   6.393  0.2157  1.3398 -0.3733
  167SOPE    C318781   5.166   3.505   6.003  0.0878 -0.6922  0.4455
  167SOPE    HX18782   5.176   3.519   5.893 -0.4128 -2.0560  0.2153
  167SOPE    HY18783   5.164   3.395   6.013 -0.2484 -0.6232  1.1544
  167SOPE   O3118784   5.279   3.565   6.082  0.7151 -0.3605  0.1883
  167SOPE   C3118785   5.334   3.485   6.170  0.8305  0.0959 -0.9231
  167SOPE   O3218786   5.300   3.370   6.201 -0.0605  0.5830  0.2260
  167SOPE   C3218787   5.439   3.570   6.249 -0.1356 -0.1197  0.5960
  167SOPE   H2X18788   5.411   3.677   6.252 -2.3947 -0.7046  2.1980
  167SOPE   H2Y18789   5.533   3.562   6.190  0.3215 -1.8570  1.5126
  167SOPE   C2318790   5.083   3.424   6.444  0.0401  0.5950 -0.1161
  167SOPE   H3R18791   5.057   3.531   6.457  1.7075  0.9675  0.2927
  167SOPE   H3S18792   5.185   3.414   6.401 -0.5149  0.7135 -1.4680
  167SOPE   C2418793   5.105   3.362   6.584  0.6724 -0.2860  0.2157
  167SOPE   H4R18794   5.007   3.371   6.635  0.5131 -0.7030 -0.0196
  167SOPE   H4S18795   5.125   3.256   6.561 -3.3732 -0.8800 -1.0182
  167SOPE   C2518796   5.207   3.434   6.672 -0.0150  0.5812  0.1893
  167SOPE   H5R18797   5.306   3.417   6.625 -0.7028  0.8776 -1.4107
  167SOPE   H5S18798   5.188   3.543   6.673  0.7801  0.7512 -1.5773
  167SOPE   C2618799   5.219   3.374   6.810  0.3980 -0.4320  0.0605
  167SOPE   H6R18800   5.118   3.367   6.856  0.6684 -1.4882  0.5069
  167SOPE   H6S18801   5.246   3.267   6.792 -0.2044 -0.5836  0.0515
  167SOPE   C2718802   5.318   3.453   6.889 -0.5730 -0.1859 -0.4358
  167SOPE   H7R18803   5.423   3.450   6.853 -0.2837 -1.8786  0.4661
  167SOPE   H7S18804   5.288   3.559   6.875 -0.6505 -0.2323 -0.6305
  167SOPE   C2818805   5.315   3.418   7.039  0.7354  0.2282  0.1522
  167SOPE   H8R18806   5.211   3.391   7.067  0.5226 -1.2147 -1.8890
  167SOPE   H8S18807   5.360   3.317   7.054  0.2416  0.0778  0.6281
  167SOPE   C2918808   5.383   3.526   7.124 -0.1584  0.2738  0.0207
  167SOPE   H9118809   5.489   3.551   7.108  0.1329  0.4472  2.1515
  167SOPE  C21018810   5.321   3.602   7.222  0.5241 -0.4624  0.5134
  167SOPE  H10118811   5.390   3.671   7.272  0.7524  0.0660 -0.5250
  167SOPE  C21118812   5.176   3.600   7.270 -0.0914 -0.6251 -0.3552
  167SOPE  H11R18813   5.130   3.498   7.271  0.1795 -0.7426  0.8033
  167SOPE  H11S18814   5.125   3.657   7.189 -0.3534 -0.4195 -0.0430
  167SOPE  C21218815   5.152   3.683   7.401  0.8714  0.2528 -0.3025
  167SOPE  H12R18816   5.207   3.634   7.483 -1.2710  0.1262  1.0985
  167SOPE  H12S18817   5.046   3.661   7.426  1.3968 -0.2183  1.5596
  167SOPE  C21318818   5.168   3.836   7.407 -0.2093 -1.0253  0.1208
  167SOPE  H13R18819   5.087   3.897   7.363 -0.6625 -0.9609  1.0368
  167SOPE  H13S18820   5.264   3.855   7.354 -1.0069 -3.2015 -2.1571
  167SOPE  C21418821   5.185   3.891   7.551  0.4437 -1.2846 -0.7792
  167SOPE  H14R18822   5.269   3.841   7.605  2.0966  0.0093 -2.0747
  167SOPE  H14S18823   5.102   3.870   7.621  0.0622 -2.7476 -1.6440
  167SOPE  C21518824   5.217   4.037   7.546 -0.9201 -0.0386 -0.1722
  167SOPE  H15R18825   5.144   4.092   7.483 -0.7646  2.0702  1.4129
  167SOPE  H15S18826   5.322   4.059   7.518 -0.7079 -3.8669 -2.8047
  167SOPE  C21618827   5.205   4.104   7.683 -0.4671  0.6008 -0.4667
  167SOPE  H16R18828   5.284   4.076   7.756 -0.8504  3.0263  0.9455
  167SOPE  H16S18829   5.114   4.067   7.734  0.6957 -0.4346  0.9254
  167SOPE  C21718830   5.207   4.253   7.675 -0.1058  0.2476  0.3683
  167SOPE  H17R18831   5.111   4.291   7.636  0.4489  1.7066  0.3960
  167SOPE  H17S18832   5.292   4.289   7.613 -0.9090 -0.4972 -1.1897
  167SOPE  C21818833   5.225   4.314   7.813 -0.5927 -0.6760  0.2976
  167SOPE  H18R18834   5.306   4.266   7.871 -0.7052 -0.1400  0.8927
  167SOPE  H18S18835   5.134   4.306   7.876 -0.9266  0.7081  0.0170
  167SOPE  H18T18836   5.245   4.422   7.796 -1.0912 -0.5096  0.7416
  167SOPE   C3318837   5.467   3.524   6.388 -0.4779  1.3685  0.1163
  167SOPE   H3X18838   5.496   3.417   6.383 -2.4587  0.7825  0.7314
  167SOPE   H3Y18839   5.372   3.541   6.443 -1.5626 -2.3642 -0.4880
  167SOPE   C3418840   5.568   3.629   6.458 -0.8916 -0.3003  0.4666
  167SOPE   H4X18841   5.523   3.729   6.441 -2.9767 -0.9018  2.1590
  167SOPE   H4Y18842   5.666   3.643   6.409 -0.6783 -2.4155  0.2272
  167SOPE   C3518843   5.584   3.600   6.608 -0.5369  0.2223  0.1887
  167SOPE   H5X18844   5.647   3.512   6.633 -0.0535  0.7961  1.0478
  167SOPE   H5Y18845   5.491   3.552   6.646  0.4047 -0.6886  1.3750
  167SOPE   C3618846   5.626   3.727   6.691  0.5499  0.3201 -0.0035
  167SOPE   H6X18847   5.575   3.818   6.653 -1.7711 -0.7190  0.4801
  167SOPE   H6Y18848   5.736   3.733   6.679  0.4433  0.9925 -0.6747
  167SOPE   C3718849   5.598   3.717   6.841  0.2127 -0.2465 -0.5132
  167SOPE   H7X18850   5.637   3.619   6.878 -2.9481 -1.8123 -1.1742
  167SOPE   H7Y18851   5.488   3.710   6.855  0.2767  1.1097  0.8317
  167SOPE   C3818852   5.653   3.832   6.918 -0.1412  1.4975 -0.7730
  167SOPE   H8X18853   5.611   3.932   6.892  0.5268  1.9520 -0.1357
  167SOPE   H8Y18854   5.763   3.848   6.915  0.3348 -0.5041  2.8657
  167SOPE   C3918855   5.633   3.807   7.069  0.9753 -0.3042  0.7423
  167SOPE   H9X18856   5.668   3.705   7.095  1.4746  0.0138  1.3452
  167SOPE   H9Y18857   5.522   3.812   7.081  0.8611 -0.0349 -0.4384
  167SOPE  C31018858   5.693   3.913   7.163  0.6354 -0.1270  0.5792
  167SOPE  H10X18859   5.660   4.013   7.128  0.7065 -0.1272  0.5126
  167SOPE  H10Y18860   5.803   3.921   7.151  0.5097 -0.2998 -0.8148
  167SOPE  C31118861   5.658   3.913   7.317 -0.0345  0.2592  0.1873
  167SOPE  H11X18862   5.558   3.959   7.334 -0.8276 -1.1050 -0.6473
  167SOPE  H11Y18863   5.733   3.979   7.366 -0.9737  1.2265  0.3411
  167SOPE  C31218864   5.677   3.772   7.379 -0.1452 -0.4274  0.3844
  167SOPE  H12X18865   5.778   3.737   7.345 -1.3128 -3.1786 -0.4287
  167SOPE  H12Y18866   5.617   3.705   7.313 -1.0400  1.0357 -0.3166
  167SOPE  C31318867   5.650   3.770   7.530  0.0676  0.1587  0.7693
  167SOPE  H13X18868   5.543   3.796   7.545 -0.0029  0.3908 -0.1084
  167SOPE  H13Y18869   5.709   3.844   7.589  1.3531  1.4204 -2.0299
  167SOPE  C31418870   5.674   3.633   7.587 -0.2321 -0.7943  0.1332
  167SOPE  H14X18871   5.775   3.590   7.572 -0.4629 -1.0869 -0.6280
  167SOPE  H14Y18872   5.601   3.561   7.543 -1.7248  0.1932  0.9648
  167SOPE  C31518873   5.656   3.651   7.733 -0.1109  0.3795 -0.8500
  167SOPE  H15X18874   5.749   3.696   7.773 -1.1653  1.7123  0.1889
  167SOPE  H15Y18875   5.644   3.554   7.786 -0.4060  0.9050  0.0645
  167SOPE  C31618876   5.537   3.728   7.786  0.0769  0.0720 -0.4503
  167SOPE  H16X18877   5.444   3.676   7.755  1.3125 -2.2806 -0.3098
  167SOPE  H16Y18878   5.527   3.832   7.747 -1.0707  0.7487  1.5475
  167SOPE  C31718879   5.540   3.731   7.941 -0.3910 -1.5640 -0.2551
  167SOPE  H17X18880   5.447   3.781   7.977  0.6935 -0.7743  1.5125
  167SOPE  H17Y18881   5.626   3.797   7.965 -2.1981  0.2007  1.6450
  167SOPE  C31818882   5.559   3.598   8.023 -0.5244  0.0233 -0.2133
  167SOPE  H18X18883   5.563   3.625   8.131  0.4820  1.1662 -0.5236
  167SOPE  H18Y18884   5.652   3.545   7.995  0.0405  0.9676 -0.1439
  167SOPE  H18Z18885   5.478   3.525   8.001  0.3807 -1.2755  0.7264
  168SOPE     N18886   3.924   0.983   5.908 -0.1395 -0.0125  0.2392
  168SOPE   HN118887   3.850   0.913   5.885 -1.4180  1.4094 -0.0471
  168SOPE   HN218888   3.928   1.065   5.844  2.0817 -1.7848 -1.9862
  168SOPE   HN318889   4.020   0.947   5.891 -0.1381 -0.2318  0.6856
  168SOPE   C1218890   3.923   1.032   6.053 -0.6364  0.0471 -0.1180
  168SOPE  H12A18891   3.975   0.953   6.111  1.6989  0.5427 -1.4818
  168SOPE  H12B18892   3.817   1.030   6.085  0.1940 -1.8344  2.7156
  168SOPE   C1118893   3.991   1.169   6.076 -0.1800 -0.7716 -0.8237
  168SOPE  H11A18894   4.102   1.175   6.073 -0.2465  0.6376 -0.5821
  168SOPE  H11B18895   3.963   1.186   6.182  1.7397 -2.9629  0.0923
  168SOPE     P18896   4.021   1.323   5.866 -0.1248  0.0298  0.2918
  168SOPE   O1318897   3.966   1.454   5.818 -0.1417  0.1953  0.2154
  168SOPE   O1418898   4.006   1.215   5.764  0.2573  0.3773 -0.1371
  168SOPE   O1218899   3.937   1.271   5.987  0.1374  0.2408  0.2080
  168SOPE   O1118900   4.170   1.328   5.914  0.0340 -0.1926  0.2708
  168SOPE    C118901   4.195   1.407   6.030  0.3888 -0.3466  0.8419
  168SOPE    HA18902   4.137   1.384   6.123 -0.2752 -2.5967 -0.1024
  168SOPE    HB18903   4.172   1.514   6.007 -1.1599 -0.7148  0.6107
  168SOPE    C218904   4.338   1.402   6.089  0.1724  0.4904 -0.2929
  168SOPE    HS18905   4.398   1.443   6.005 -0.9383  1.0877 -0.7975
  168SOPE   O2118906   4.379   1.270   6.118  0.6706 -0.1845 -0.2519
  168SOPE   C2118907   4.507   1.247   6.114 -0.1990  0.1309  0.5168
  168SOPE   O2218908   4.597   1.329   6.087  0.0171  0.4510 -0.1071
  168SOPE   C2218909   4.544   1.099   6.148  0.4332  0.0060 -0.2254
  168SOPE   H2R18910   4.610   1.112   6.236  0.6177  2.3221 -0.6744
  168SOPE   H2S18911   4.596   1.047   6.065  1.9723  0.4861  0.4275
  168SOPE    C318912   4.344   1.483   6.218 -0.1529  0.2984 -1.0865
  168SOPE    HX18913   4.313   1.587   6.196 -2.1024 -0.1406 -0.4991
  168SOPE    HY18914   4.450   1.477   6.252 -0.8230 -2.1533  0.7206
  168SOPE   O3118915   4.263   1.437   6.328 -0.5063  0.0796  0.4890
  168SOPE   C3118916   4.313   1.334   6.393  0.3559  0.4852  0.2021
  168SOPE   O3218917   4.431   1.291   6.398  0.1775 -0.7690  0.4931
  168SOPE   C3218918   4.204   1.282   6.485  1.2195 -0.3002  0.3585
  168SOPE   H2X18919   4.108   1.328   6.454  1.2148  0.1242  1.0023
  168SOPE   H2Y18920   4.220   1.314   6.590 -0.5617  0.6189  0.3657
  168SOPE   C2318921   4.423   1.008   6.189  0.3764 -0.1263  0.1566
  168SOPE   H3R18922   4.357   0.980   6.104 -1.4509  2.8797  0.5210
  168SOPE   H3S18923   4.369   1.068   6.265  1.8372  0.0235  1.1092
  168SOPE   C2418924   4.470   0.874   6.253  0.0233 -0.1160 -0.0475
  168SOPE   H4R18925   4.377   0.812   6.257 -0.7346  1.0772  1.5393
  168SOPE   H4S18926   4.534   0.822   6.179  1.2047  1.4088 -0.1205
  168SOPE   C2518927   4.543   0.883   6.390 -0.6804 -0.3136  0.2716
  168SOPE   H5R18928   4.653   0.889   6.374 -0.3537 -1.3680  1.9856
  168SOPE   H5S18929   4.510   0.977   6.440 -0.1161  0.4107 -0.7066
  168SOPE   C2618930   4.515   0.762   6.473  0.4880  0.1000 -0.4658
  168SOPE   H6R18931   4.406   0.748   6.486  0.8108 -0.9225  1.3073
  168SOPE   H6S18932   4.553   0.675   6.414  4.5810  0.8015  0.9761
  168SOPE   C2718933   4.605   0.753   6.601  0.1757  0.3362  0.1189
  168SOPE   H7R18934   4.607   0.649   6.639 -1.0916  0.2316 -0.0906
  168SOPE   H7S18935   4.707   0.780   6.566  0.1296 -0.4694 -0.6538
  168SOPE   C2818936   4.567   0.838   6.721  0.0229 -0.0966  0.1661
  168SOPE   H8R18937   4.634   0.803   6.802  0.4422 -0.8306 -0.4881
  168SOPE   H8S18938   4.600   0.941   6.694 -1.1473  0.0090 -0.9164
  168SOPE   C2918939   4.420   0.840   6.758  0.2616 -0.7220  0.6118
  168SOPE   H9118940   4.353   0.767   6.711 -0.8163  0.0487  0.9370
  168SOPE  C21018941   4.368   0.940   6.827  0.5803  0.3179  0.1038
  168SOPE  H10118942   4.261   0.930   6.849  0.1082  2.8380 -0.8391
  168SOPE  C21118943   4.438   1.068   6.882  0.0866 -0.0751 -0.3700
  168SOPE  H11R18944   4.541   1.070   6.840  0.0044 -1.5855 -0.6780
  168SOPE  H11S18945   4.447   1.072   6.992 -1.5265 -2.4129 -0.1129
  168SOPE  C21218946   4.364   1.192   6.822  0.4080  0.0420 -0.4064
  168SOPE  H12R18947   4.254   1.183   6.833  0.2366  3.4048  1.1424
  168SOPE  H12S18948   4.393   1.199   6.715  0.9468 -2.0442 -0.4094
  168SOPE  C21318949   4.414   1.308   6.905 -0.1778  0.2194 -0.1439
  168SOPE  H13R18950   4.524   1.312   6.916 -0.3599 -1.6770  3.0295
  168SOPE  H13S18951   4.372   1.290   7.006  1.2500  0.4426  0.4907
  168SOPE  C21418952   4.373   1.449   6.861  0.0635  0.1588  0.7737
  168SOPE  H14R18953   4.395   1.518   6.945  0.3880 -1.2443  1.8536
  168SOPE  H14S18954   4.263   1.450   6.844  0.1224  1.0053  0.4306
  168SOPE  C21518955   4.421   1.503   6.724 -0.3934  0.2857 -0.7882
  168SOPE  H15R18956   4.386   1.428   6.650 -1.9778 -0.5824  0.8086
  168SOPE  H15S18957   4.532   1.510   6.727 -0.2377 -2.0305  0.7941
  168SOPE  C21618958   4.360   1.635   6.683 -0.5488  0.1898 -1.0408
  168SOPE  H16R18959   4.375   1.707   6.767  0.9254 -0.8108 -0.4217
  168SOPE  H16S18960   4.251   1.622   6.666 -0.9522  1.3817  0.4513
  168SOPE  C21718961   4.437   1.696   6.559  0.1959 -0.1042 -0.5027
  168SOPE  H17R18962   4.423   1.626   6.474  2.0525 -3.5800  1.9686
  168SOPE  H17S18963   4.545   1.715   6.570 -0.1830  2.1591 -0.4571
  168SOPE  C21818964   4.379   1.832   6.518 -0.2009 -0.2487 -0.0024
  168SOPE  H18R18965   4.430   1.881   6.432 -1.8881  0.9620 -0.3440
  168SOPE  H18S18966   4.388   1.900   6.604 -1.3172 -1.9943  1.5329
  168SOPE  H18T18967   4.272   1.817   6.494  0.2934 -1.9717 -1.2738
  168SOPE   C3318968   4.193   1.127   6.491 -0.3995  0.1603 -0.6905
  168SOPE   H3X18969   4.155   1.092   6.590  1.5494 -1.6412 -0.5404
  168SOPE   H3Y18970   4.288   1.071   6.481  0.3172  1.8247 -3.6596
  168SOPE   C3418971   4.091   1.060   6.397 -0.0156 -0.2616  0.9213
  168SOPE   H4X18972   4.141   1.056   6.299  0.5355  2.4344  1.0545
  168SOPE   H4Y18973   3.999   1.122   6.400 -0.4234 -0.7456 -1.2987
  168SOPE   C3518974   4.040   0.921   6.429 -0.2284  0.0667  1.0366
  168SOPE   H5X18975   3.956   0.887   6.364 -0.8429  1.3302  1.1612
  168SOPE   H5Y18976   3.989   0.920   6.528  0.2790 -1.8443  1.3072
  168SOPE   C3618977   4.152   0.812   6.412 -0.0522  0.3119  0.2821
  168SOPE   H6X18978   4.241   0.840   6.473 -0.9767  2.2057  0.8177
  168SOPE   H6Y18979   4.169   0.803   6.303  1.0348 -0.3037  0.4943
  168SOPE   C3718980   4.110   0.670   6.447 -0.4878 -0.4639 -0.0960
  168SOPE   H7X18981   4.192   0.598   6.428  1.8588  2.2516 -0.6239
  168SOPE   H7Y18982   4.028   0.638   6.379 -0.7552 -0.4990  0.2390
  168SOPE   C3818983   4.062   0.653   6.595 -0.0824  0.2805  0.1912
  168SOPE   H8X18984   3.954   0.679   6.599 -0.8314 -2.6330  0.4741
  168SOPE   H8Y18985   4.124   0.734   6.639  0.6921  1.3123 -2.7288
  168SOPE   C3918986   4.082   0.521   6.667  0.4760 -0.1527 -0.6523
  168SOPE   H9X18987   4.189   0.493   6.660  0.8657  1.0939 -0.0147
  168SOPE   H9Y18988   4.030   0.441   6.611 -0.7200  0.7682 -0.8938
  168SOPE  C31018989   4.044   0.540   6.814  0.2645 -0.0189 -0.1082
  168SOPE  H10X18990   3.979   0.461   6.857  1.3531 -1.4144 -0.9643
  168SOPE  H10Y18991   3.983   0.632   6.823  0.3935  0.0925 -0.3620
  168SOPE  C31118992   4.172   0.543   6.895 -0.4088  0.2587 -0.0582
  168SOPE  H11X18993   4.242   0.621   6.859  0.8409 -0.3305  1.0359
  168SOPE  H11Y18994   4.229   0.451   6.869 -2.6201 -1.0499 -0.3973
  168SOPE  C31218995   4.145   0.549   7.046 -0.1392  0.0708 -0.4211
  168SOPE  H12X18996   4.088   0.458   7.073 -0.7504  0.6092  0.1154
  168SOPE  H12Y18997   4.080   0.635   7.073 -1.4225 -0.7600 -0.8477
  168SOPE  C31318998   4.277   0.556   7.125  0.1258 -0.9224 -0.9567
  168SOPE  H13X18999   4.345   0.474   7.095  1.0781 -0.6221  0.3467
  168SOPE  H13Y19000   4.250   0.535   7.231 -3.0075  0.9624 -1.3088
  168SOPE  C31419001   4.339   0.692   7.112 -0.3383 -0.5266 -0.1947
  168SOPE  H14X19002   4.270   0.777   7.130 -0.7323 -0.6452 -1.1280
  168SOPE  H14Y19003   4.386   0.694   7.012  1.3209 -0.5933  0.5641
  168SOPE  C31519004   4.451   0.706   7.202 -1.0776  0.2259  1.0204
  168SOPE  H15X19005   4.528   0.629   7.180 -0.9753  0.5745  0.1038
  168SOPE  H15Y19006   4.422   0.675   7.305  1.6821 -2.0144  1.1901
  168SOPE  C31619007   4.530   0.836   7.200  0.2822  0.6120  0.0187
  168SOPE  H16X19008   4.558   0.856   7.094 -1.5436  1.3358 -0.3611
  168SOPE  H16Y19009   4.621   0.825   7.261  0.1699 -3.4886 -0.4555
  168SOPE  C31719010   4.458   0.957   7.266 -0.3226 -0.3525  0.2824
  168SOPE  H17X19011   4.409   0.924   7.360  1.5450  1.0184  1.7657
  168SOPE  H17Y19012   4.383   0.989   7.190  0.9071 -2.9736 -2.1447
  168SOPE  C31819013   4.551   1.077   7.289 -0.3861  0.2736  0.4329
  168SOPE  H18X19014   4.637   1.052   7.354 -0.6971 -0.2774  0.6280
  168SOPE  H18Y19015   4.502   1.170   7.327 -1.5709  1.0183 -2.7354
  168SOPE  H18Z19016   4.605   1.089   7.193 -1.0439 -1.6780 -0.1940
  169SOPE     N19017   0.887   3.092   5.714  0.5841 -0.0823  0.4457
  169SOPE   HN119018   0.845   3.056   5.625  0.9414  0.3255  0.1078
  169SOPE   HN219019   0.821   3.140   5.778 -1.1656  1.3701 -2.3610
  169SOPE   HN319020   0.961   3.163   5.700 -0.0402  0.7567  1.3351
  169SOPE   C1219021   0.955   2.981   5.779 -0.5291 -0.1770 -1.2461
  169SOPE  H12A19022   1.032   2.940   5.711 -0.7213 -1.4171 -0.7324
  169SOPE  H12B19023   0.880   2.900   5.792 -1.2720  0.4414 -1.6553
  169SOPE   C1119024   1.009   3.021   5.921 -0.4137 -0.2874 -0.4223
  169SOPE  H11A19025   1.073   3.110   5.903 -1.1691  0.9566  2.8182
  169SOPE  H11B19026   1.086   2.943   5.945  0.4910  1.0252  1.0479
  169SOPE     P19027   0.850   3.195   6.041  0.0879 -0.3014  0.2636
  169SOPE   O1319028   0.718   3.178   6.110  0.4011  0.2803 -0.1150
  169SOPE   O1419029   0.840   3.266   5.911  0.0726  0.2807  0.3265
  169SOPE   O1219030   0.910   3.052   6.008  0.0386  0.1114  0.3272
  169SOPE   O1119031   0.954   3.270   6.129  0.1792 -0.4146  0.0891
  169SOPE    C119032   1.060   3.201   6.197  1.0967 -0.1277  0.0575
  169SOPE    HA19033   1.149   3.260   6.166  0.5066 -0.2282 -1.9035
  169SOPE    HB19034   1.071   3.096   6.162 -0.6262 -0.3087 -0.0014
  169SOPE    C219035   1.048   3.211   6.354 -0.1779 -0.0231  0.1459
  169SOPE    HS19036   1.141   3.177   6.404  0.1450 -1.0052 -1.1014
  169SOPE   O2119037   0.929   3.148   6.411 -0.4871  0.4470  0.0031
  169SOPE   C2119038   0.930   3.019   6.404 -0.5370 -0.0867  0.0912
  169SOPE   O2219039   1.020   2.952   6.366 -0.4374  0.0701  0.5656
  169SOPE   C2219040   0.805   2.963   6.466 -0.0030 -0.4781 -0.1881
  169SOPE   H2R19041   0.757   2.886   6.402 -0.1877  0.8929 -1.7338
  169SOPE   H2S19042   0.736   3.049   6.482  1.5502  0.2148  3.3551
  169SOPE    C319043   1.044   3.364   6.391  0.0830 -0.0359  0.4531
  169SOPE    HX19044   0.954   3.393   6.332  1.3517 -0.5352 -1.7960
  169SOPE    HY19045   1.133   3.413   6.344 -0.4948  0.4830 -0.1231
  169SOPE   O3119046   1.019   3.390   6.531  0.3647  0.0482 -0.0755
  169SOPE   C3119047   1.128   3.362   6.609  0.8299 -0.0383 -0.5741
  169SOPE   O3219048   1.236   3.320   6.569 -0.0014  0.2763 -0.7359
  169SOPE   C3219049   1.089   3.384   6.755 -0.9040  0.1608  0.2287
  169SOPE   H2X19050   0.984   3.351   6.769 -0.8398  0.3906  1.3375
  169SOPE   H2Y19051   1.087   3.495   6.761  1.3765  0.2015  0.5771
  169SOPE   C2319052   0.826   2.904   6.607 -0.0289  1.2286 -0.0961
  169SOPE   H3R19053   0.723   2.891   6.647  0.5664  1.4405  1.5212
  169SOPE   H3S19054   0.876   2.977   6.673  1.2483 -0.2350  0.6039
  169SOPE   C2419055   0.915   2.777   6.614 -0.8155 -0.1719  0.0131
  169SOPE   H4R19056   0.884   2.728   6.519 -1.3511  0.4899 -0.1617
  169SOPE   H4S19057   1.024   2.798   6.619 -0.7221 -0.6259 -0.0439
  169SOPE   C2519058   0.876   2.687   6.737  0.2666  0.6853  0.0681
  169SOPE   H5R19059   0.872   2.759   6.821  2.2017  2.4177 -1.2806
  169SOPE   H5S19060   0.772   2.652   6.721 -0.3472  1.3661  2.3501
  169SOPE   C2619061   0.966   2.565   6.771  0.7656 -0.0299  0.2295
  169SOPE   H6R19062   0.972   2.484   6.695 -0.5732 -1.2511  1.4009
  169SOPE   H6S19063   1.070   2.604   6.775  0.3384  1.0060  1.4817
  169SOPE   C2719064   0.930   2.497   6.905 -0.2322 -0.1695  0.0310
  169SOPE   H7R19065   0.820   2.487   6.915  0.0144 -1.3717  1.7924
  169SOPE   H7S19066   0.970   2.393   6.906  0.0656 -0.0838 -1.6439
  169SOPE   C2819067   0.976   2.570   7.022  0.0029  0.1526 -0.7006
  169SOPE   H8R19068   1.084   2.592   7.011  0.2900 -0.2134  1.2510
  169SOPE   H8S19069   0.919   2.663   7.044  0.3979 -0.0830  1.4624
  169SOPE   C2919070   0.971   2.476   7.143 -0.0386  0.4604  0.6224
  169SOPE   H9119071   1.029   2.384   7.128 -2.0371 -0.9265  1.1818
  169SOPE  C21019072   0.887   2.498   7.251  0.0670  0.2154  0.3382
  169SOPE  H10119073   0.883   2.425   7.334 -0.8334 -1.2004 -0.9329
  169SOPE  C21119074   0.795   2.610   7.275 -0.1226  0.3782  0.1521
  169SOPE  H11R19075   0.707   2.567   7.326  1.1004 -0.5595  1.5042
  169SOPE  H11S19076   0.767   2.636   7.171 -0.7315 -0.2477  0.1523
  169SOPE  C21219077   0.840   2.735   7.354  0.1270  0.6724 -0.8352
  169SOPE  H12R19078   0.929   2.778   7.303 -1.0331  2.8143 -1.0834
  169SOPE  H12S19079   0.872   2.683   7.447 -0.7051 -0.0209 -0.9323
  169SOPE  C21319080   0.740   2.849   7.377 -0.4170  0.1005 -0.0025
  169SOPE  H13R19081   0.711   2.900   7.282 -2.4024  1.5444  1.3521
  169SOPE  H13S19082   0.780   2.935   7.435 -0.9727  1.4698 -1.5913
  169SOPE  C21419083   0.615   2.804   7.443  0.1947 -0.5860 -0.2693
  169SOPE  H14R19084   0.572   2.718   7.386 -1.3236 -0.3287  0.4600
  169SOPE  H14S19085   0.542   2.888   7.438 -2.0358 -2.5806 -2.3525
  169SOPE  C21519086   0.647   2.766   7.582 -0.2860  0.2929 -0.7618
  169SOPE  H15R19087   0.686   2.855   7.636  0.8296 -0.6828  0.0630
  169SOPE  H15S19088   0.716   2.680   7.589 -1.1339 -0.3186  0.2398
  169SOPE  C21619089   0.514   2.725   7.656 -0.0944  0.0622  0.4552
  169SOPE  H16R19090   0.472   2.636   7.604 -0.6165  1.0664 -0.8646
  169SOPE  H16S19091   0.433   2.800   7.645  1.1430  1.3036 -0.3065
  169SOPE  C21719092   0.516   2.693   7.803  0.0285 -0.7600 -0.0470
  169SOPE  H17R19093   0.427   2.642   7.845  0.1937  0.7956  2.3531
  169SOPE  H17S19094   0.512   2.795   7.847 -0.1426 -0.9802  0.4549
  169SOPE  C21819095   0.644   2.612   7.850  0.4327 -0.5200 -0.1458
  169SOPE  H18R19096   0.658   2.515   7.798  2.9035 -0.3761  0.1872
  169SOPE  H18S19097   0.667   2.594   7.957 -0.2433  0.3397  0.1473
  169SOPE  H18T19098   0.733   2.673   7.823  0.5462 -0.2309  0.8747
  169SOPE   C3319099   1.188   3.330   6.851 -0.7905  0.5676 -0.7901
  169SOPE   H3X19100   1.291   3.366   6.827 -0.5900  0.8220  0.4558
  169SOPE   H3Y19101   1.200   3.220   6.841  1.3727  0.6946  0.1777
  169SOPE   C3419102   1.165   3.365   6.999 -0.1975  0.2246  0.6471
  169SOPE   H4X19103   1.068   3.326   7.036 -0.8056  0.9590 -0.1420
  169SOPE   H4Y19104   1.162   3.475   7.013 -0.0868  0.4716 -1.1199
  169SOPE   C3519105   1.275   3.298   7.081  0.1662 -0.5848 -0.4438
  169SOPE   H5X19106   1.365   3.290   7.016 -1.3395 -3.5750 -2.2785
  169SOPE   H5Y19107   1.236   3.196   7.101 -0.8029 -0.2639 -0.6988
  169SOPE   C3619108   1.288   3.365   7.220  0.1256  0.0884 -0.3323
  169SOPE   H6X19109   1.316   3.472   7.211 -1.1911  0.3437 -1.5147
  169SOPE   H6Y19110   1.367   3.315   7.280  0.1294 -0.4846 -0.8038
  169SOPE   C3719111   1.156   3.362   7.295 -0.4096 -0.2649 -0.5263
  169SOPE   H7X19112   1.094   3.274   7.267 -0.5309 -0.8587  1.4648
  169SOPE   H7Y19113   1.100   3.450   7.259  1.1527  0.5580 -0.9756
  169SOPE   C3819114   1.199   3.385   7.445 -0.6946 -0.6731  0.9717
  169SOPE   H8X19115   1.244   3.290   7.480  0.2847 -0.0992  1.2835
  169SOPE   H8Y19116   1.275   3.465   7.435  2.6434 -3.8565 -0.2326
  169SOPE   C3919117   1.086   3.430   7.534  0.1396  0.1880  0.0277
  169SOPE   H9X19118   1.128   3.443   7.637  1.1871 -3.2599  0.1030
  169SOPE   H9Y19119   1.011   3.350   7.551  0.5212  0.0955  1.4165
  169SOPE  C31019120   1.011   3.556   7.490  0.7616  0.5154  0.1363
  169SOPE  H10X19121   0.938   3.522   7.414  2.0504 -1.5283 -0.2179
  169SOPE  H10Y19122   1.080   3.622   7.433  1.1767  0.0702  0.1191
  169SOPE  C31119123   0.947   3.639   7.603  0.4068  0.5379  0.3159
  169SOPE  H11X19124   0.918   3.737   7.560 -0.1400  0.0804 -0.3750
  169SOPE  H11Y19125   1.015   3.662   7.688  1.4980 -1.8801  0.1274
  169SOPE  C31219126   0.828   3.574   7.673 -0.2730  0.8457 -0.3915
  169SOPE  H12X19127   0.861   3.468   7.679 -1.2043  0.4633 -1.6671
  169SOPE  H12Y19128   0.739   3.588   7.607  1.2974 -0.4530 -2.8391
  169SOPE  C31319129   0.795   3.632   7.817  0.5904 -0.4731  0.0678
  169SOPE  H13X19130   0.790   3.739   7.791 -1.5319 -1.3196 -3.2224
  169SOPE  H13Y19131   0.878   3.612   7.889  0.2902  0.9531  0.8270
  169SOPE  C31419132   0.659   3.578   7.864 -0.3822 -0.7169 -0.5407
  169SOPE  H14X19133   0.576   3.624   7.806  0.5356  0.7073 -0.7310
  169SOPE  H14Y19134   0.644   3.624   7.964 -0.7531  0.7985 -1.2886
  169SOPE  C31519135   0.645   3.425   7.867 -0.4850 -0.0184  1.2210
  169SOPE  H15X19136   0.706   3.386   7.952 -1.3741  0.8386  2.2599
  169SOPE  H15Y19137   0.684   3.377   7.775  0.6317 -1.1545  2.2774
  169SOPE  C31619138   0.504   3.372   7.889  0.2103 -0.2772 -0.5150
  169SOPE  H16X19139   0.439   3.442   7.832 -0.0378 -1.4948 -1.7404
  169SOPE  H16Y19140   0.482   3.382   7.998  0.7891 -0.5853 -0.3667
  169SOPE  C31719141   0.468   3.232   7.834 -0.7275  0.0559 -0.4850
  169SOPE  H17X19142   0.516   3.160   7.903  3.1611  1.3508 -1.7255
  169SOPE  H17Y19143   0.526   3.200   7.745  0.1927 -1.7756  0.7403
  169SOPE  C31819144   0.320   3.196   7.825 -0.2575 -0.6299 -0.1949
  169SOPE  H18X19145   0.268   3.206   7.923 -0.6306 -1.6584 -0.2868
  169SOPE  H18Y19146   0.321   3.088   7.800  0.3990 -1.0416  1.5343
  169SOPE  H18Z19147   0.261   3.253   7.749  0.4780  0.5749  0.1341
  170SOPE     N19148   2.736   6.223   6.210 -0.4017  0.2400  0.4008
  170SOPE   HN119149   2.831   6.205   6.171  0.1010  1.5184  0.9860
  170SOPE   HN219150   2.724   6.186   6.307 -2.0609 -0.2032  0.0368
  170SOPE   HN319151   2.672   6.178   6.142  0.5174  1.7985 -1.5454
  170SOPE   C1219152   2.691   6.365   6.206  1.0433 -0.2142 -0.5950
  170SOPE  H12A19153   2.719   6.423   6.116  2.4499  2.1401  1.2838
  170SOPE  H12B19154   2.743   6.406   6.296  0.0036 -0.6175  0.2070
  170SOPE   C1119155   2.535   6.373   6.202  0.1794  0.2592 -0.1953
  170SOPE  H11A19156   2.505   6.479   6.214 -1.5864 -0.2678  0.2560
  170SOPE  H11B19157   2.497   6.331   6.298  0.9637 -1.0196 -0.4339
  170SOPE     P19158   2.393   6.360   5.981  0.1573  0.2154  0.0025
  170SOPE   O1319159   2.377   6.262   5.866  0.9450 -0.6742 -0.6385
  170SOPE   O1419160   2.441   6.491   5.940 -0.4334 -0.3568 -0.3851
  170SOPE   O1219161   2.488   6.299   6.095  0.0610  0.7853  0.9175
  170SOPE   O1119162   2.252   6.380   6.053  0.0384  0.2062 -0.1214
  170SOPE    C119163   2.194   6.257   6.104  0.1577 -0.2769  0.0303
  170SOPE    HA19164   2.253   6.163   6.093  0.8389  0.1868 -0.3536
  170SOPE    HB19165   2.102   6.229   6.048  1.5553  0.0417 -2.5337
  170SOPE    C219166   2.170   6.264   6.259 -0.1801 -0.4265  0.0006
  170SOPE    HS19167   2.271   6.290   6.297 -1.8231 -0.3254  4.5420
  170SOPE   O2119168   2.126   6.143   6.315  0.2428 -0.2439  0.7574
  170SOPE   C2119169   2.208   6.064   6.376  0.0120 -1.2807  0.1386
  170SOPE   O2219170   2.324   6.094   6.402 -0.0968  0.4654 -0.1600
  170SOPE   C2219171   2.142   5.947   6.423 -0.0650 -0.8274  0.2886
  170SOPE   H2R19172   2.211   5.861   6.417  0.1382 -0.6424 -0.0820
  170SOPE   H2S19173   2.058   5.923   6.354 -0.8516  0.6862  0.6821
  170SOPE    C319174   2.073   6.385   6.298  0.4422  0.6777 -0.3833
  170SOPE    HX19175   1.971   6.348   6.275  0.8947 -1.9580  1.5716
  170SOPE    HY19176   2.104   6.474   6.239 -1.7179  1.4957 -0.3263
  170SOPE   O3119177   2.080   6.411   6.441 -0.2444 -0.5631 -0.0916
  170SOPE   C3119178   2.192   6.459   6.495 -0.0004 -0.3095 -0.7347
  170SOPE   O3219179   2.286   6.502   6.429 -0.2712 -0.3954 -0.1190
  170SOPE   C3219180   2.172   6.480   6.648  0.5638  0.0781 -0.0191
  170SOPE   H2X19181   2.081   6.542   6.663  1.3757  1.2837 -0.0714
  170SOPE   H2Y19182   2.259   6.536   6.686 -1.2847  1.9543  1.5950
  170SOPE   C2319183   2.090   5.968   6.565 -0.8529 -0.2687 -0.2534
  170SOPE   H3R19184   2.032   5.876   6.588  0.7962 -1.0760  0.7723
  170SOPE   H3S19185   2.026   6.058   6.570 -0.8905 -0.2525 -0.9809
  170SOPE   C2419186   2.204   5.976   6.671  0.0082  0.4577 -0.0324
  170SOPE   H4R19187   2.278   5.895   6.651 -2.4289 -1.6348 -0.8278
  170SOPE   H4S19188   2.254   6.075   6.663 -1.3410  1.2250  0.7635
  170SOPE   C2519189   2.147   5.959   6.815 -0.6424  0.3717 -0.2438
  170SOPE   H5R19190   2.077   6.042   6.840  0.3591  1.4175 -0.8634
  170SOPE   H5S19191   2.094   5.861   6.813  0.0087 -0.0000  0.5765
  170SOPE   C2619192   2.266   5.969   6.917  0.6590  0.6519 -0.0230
  170SOPE   H6R19193   2.363   5.927   6.884  0.8931  0.3604  1.0184
  170SOPE   H6S19194   2.293   6.073   6.941  1.0451  0.1167  1.9583
  170SOPE   C2719195   2.237   5.881   7.046  0.1442 -0.0625 -0.2501
  170SOPE   H7R19196   2.150   5.912   7.107  1.5169  1.8731  0.7838
  170SOPE   H7S19197   2.220   5.774   7.019 -1.1493  0.0999 -0.0704
  170SOPE   C2819198   2.361   5.873   7.140 -0.0229  0.0218  0.0461
  170SOPE   H8R19199   2.445   5.834   7.079 -0.0073  2.6699 -1.7220
  170SOPE   H8S19200   2.382   5.976   7.176 -0.5466  0.2315 -0.2512
  170SOPE   C2919201   2.338   5.777   7.252  0.5274  0.2481 -0.3099
  170SOPE   H9119202   2.341   5.671   7.224 -1.3441 -0.0342  0.5069
  170SOPE  C21019203   2.309   5.808   7.378  0.1754 -0.6377  0.5678
  170SOPE  H10119204   2.288   5.732   7.454  1.6329 -1.1469  0.4720
  170SOPE  C21119205   2.300   5.949   7.424 -0.0384 -0.4162 -0.2496
  170SOPE  H11R19206   2.193   5.979   7.424 -0.6704 -2.5878  0.8178
  170SOPE  H11S19207   2.356   6.025   7.366 -1.2252  2.0322  1.7215
  170SOPE  C21219208   2.363   5.966   7.568  0.2857 -0.2829  0.6440
  170SOPE  H12R19209   2.314   5.883   7.623  1.0575 -1.5999 -0.6189
  170SOPE  H12S19210   2.350   6.062   7.623 -1.3976  1.4312 -2.5617
  170SOPE  C21319211   2.508   5.923   7.577 -0.7118 -0.1390  0.3188
  170SOPE  H13R19212   2.578   5.989   7.632  0.7129 -0.1470 -1.4238
  170SOPE  H13S19213   2.548   5.940   7.475 -1.7154 -0.6374 -0.1616
  170SOPE  C21419214   2.527   5.781   7.622  0.4853  0.5078 -0.1809
  170SOPE  H14R19215   2.636   5.763   7.618  0.3417 -0.3259 -0.5620
  170SOPE  H14S19216   2.472   5.708   7.558 -2.2096  2.5776 -0.3019
  170SOPE  C21519217   2.488   5.756   7.769  0.2893 -0.0447 -0.1454
  170SOPE  H15R19218   2.394   5.810   7.794 -0.0134  0.5411 -2.5011
  170SOPE  H15S19219   2.564   5.806   7.833 -0.4378 -0.0876  0.7641
  170SOPE  C21619220   2.484   5.610   7.810  0.3337 -0.0103  0.2941
  170SOPE  H16R19221   2.587   5.575   7.788  0.4948  0.5435  0.1490
  170SOPE  H16S19222   2.412   5.563   7.740  1.5312  1.1465 -1.8125
  170SOPE  C21719223   2.452   5.570   7.956  0.6744  0.0173  0.0265
  170SOPE  H17R19224   2.353   5.613   7.986  0.4767  0.0417 -0.6591
  170SOPE  H17S19225   2.523   5.618   8.027  1.5717  1.0885 -1.5715
  170SOPE  C21819226   2.473   5.418   7.991 -0.0598 -0.1106 -0.7073
  170SOPE  H18R19227   2.383   5.355   7.978  0.2335 -0.5149 -0.7731
  170SOPE  H18S19228   2.501   5.400   8.097 -2.3115 -1.1774 -0.2607
  170SOPE  H18T19229   2.560   5.374   7.938 -0.5814 -2.6038  0.4120
  170SOPE   C3319230   2.153   6.344   6.707 -0.0604  0.3235 -0.7959
  170SOPE   H3X19231   2.240   6.280   6.681 -1.2306 -1.5397 -0.2622
  170SOPE   H3Y19232   2.060   6.297   6.668 -2.4171  2.0617  2.4518
  170SOPE   C3419233   2.123   6.345   6.864  0.1094 -0.1379  0.3383
  170SOPE   H4X19234   2.066   6.253   6.887 -0.1252  0.1854  1.0713
  170SOPE   H4Y19235   2.058   6.429   6.897 -0.1038 -0.8292  1.7091
  170SOPE   C3519236   2.252   6.347   6.938 -0.1612  0.3150 -0.1537
  170SOPE   H5X19237   2.299   6.446   6.918  0.4312  0.3529  1.3315
  170SOPE   H5Y19238   2.315   6.264   6.901 -0.6687 -0.4674  0.7202
  170SOPE   C3619239   2.236   6.314   7.093 -0.4549  0.0190 -0.5176
  170SOPE   H6X19240   2.336   6.296   7.139 -0.5646  3.0966  1.0351
  170SOPE   H6Y19241   2.180   6.218   7.098  0.4212 -0.4935 -0.4342
  170SOPE   C3719242   2.167   6.438   7.161 -0.0563  0.2559  1.1101
  170SOPE   H7X19243   2.063   6.448   7.124 -0.5341 -0.5547  2.2043
  170SOPE   H7Y19244   2.215   6.535   7.137  0.0702  0.3824  1.8647
  170SOPE   C3819245   2.155   6.415   7.308 -0.2311  0.0330  0.1966
  170SOPE   H8X19246   2.113   6.315   7.331  0.7358 -1.0829 -2.6863
  170SOPE   H8Y19247   2.085   6.487   7.356  0.7320  1.3849 -0.3820
  170SOPE   C3919248   2.287   6.400   7.391  0.3421 -0.0575 -0.0210
  170SOPE   H9X19249   2.342   6.489   7.355 -3.6713  3.1300  1.3386
  170SOPE   H9Y19250   2.341   6.310   7.355 -0.9508 -0.2036 -1.7143
  170SOPE  C31019251   2.295   6.400   7.545 -0.1255 -0.2058 -0.4357
  170SOPE  H10X19252   2.303   6.504   7.583 -0.8922  0.0421 -0.9384
  170SOPE  H10Y19253   2.385   6.347   7.581 -1.5812 -1.6328  1.2052
  170SOPE  C31119254   2.179   6.329   7.613 -0.5164 -0.2053 -0.3730
  170SOPE  H11X19255   2.179   6.226   7.571  2.5015  0.2340 -1.6123
  170SOPE  H11Y19256   2.083   6.380   7.593  0.5836  1.6045 -1.1421
  170SOPE  C31219257   2.194   6.322   7.765 -0.1531 -0.1924  0.1852
  170SOPE  H12X19258   2.196   6.423   7.813 -0.7971 -0.4560  0.7757
  170SOPE  H12Y19259   2.294   6.280   7.789 -0.1847  0.1324  0.9081
  170SOPE  C31319260   2.086   6.237   7.840 -0.4924  0.1241  0.2089
  170SOPE  H13X19261   2.071   6.147   7.777  0.6229  0.4350 -0.5271
  170SOPE  H13Y19262   1.990   6.290   7.820 -0.9686 -0.3518  1.2362
  170SOPE  C31419263   2.131   6.193   7.981  0.0459 -0.4569  0.6592
  170SOPE  H14X19264   2.036   6.186   8.038 -0.1458 -1.8670  0.1879
  170SOPE  H14Y19265   2.195   6.268   8.032  0.6851  0.2507 -1.1320
  170SOPE  C31519266   2.209   6.061   7.980 -0.0417  0.1936 -0.0426
  170SOPE  H15X19267   2.303   6.065   7.922 -0.2544  0.3894 -0.3753
  170SOPE  H15Y19268   2.157   5.978   7.929  1.0595 -1.5097  1.5532
  170SOPE  C31619269   2.227   6.015   8.123  0.3819  0.2229  0.0387
  170SOPE  H16X19270   2.130   5.991   8.171 -0.2363 -1.0180 -1.7861
  170SOPE  H16Y19271   2.264   6.102   8.182  1.7900  0.3919 -1.0469
  170SOPE  C31719272   2.324   5.897   8.130 -0.1642 -0.4495 -0.0022
  170SOPE  H17X19273   2.430   5.914   8.099 -0.4641 -1.0378 -1.3980
  170SOPE  H17Y19274   2.292   5.820   8.057  0.8779 -0.3323 -0.5973
  170SOPE  C31819275   2.314   5.834   8.270  0.8009 -0.6276 -0.1011
  170SOPE  H18X19276   2.233   5.758   8.280 -0.2406  0.6564  1.5845
  170SOPE  H18Y19277   2.302   5.916   8.344  0.4687 -0.7128 -0.0561
  170SOPE  H18Z19278   2.393   5.760   8.293  1.6385  1.1047  2.8770
  171SOPE     N19279   7.146   5.345   5.711  0.0633  0.3706  0.0285
  171SOPE   HN119280   7.098   5.401   5.638  1.2930  0.5862 -0.6232
  171SOPE   HN219281   7.240   5.388   5.719  0.9756 -1.2697 -1.3744
  171SOPE   HN319282   7.157   5.246   5.679 -1.0796  0.3331 -0.2755
  171SOPE   C1219283   7.066   5.354   5.837  0.1978 -0.3808 -0.2246
  171SOPE  H12A19284   6.963   5.314   5.826  0.4920 -1.4496  0.8355
  171SOPE  H12B19285   7.069   5.461   5.867 -0.8051 -0.1317 -0.9802
  171SOPE   C1119286   7.146   5.273   5.944  0.7687 -0.1268  0.2659
  171SOPE  H11A19287   7.105   5.294   6.046  1.1790 -0.8516  0.5872
  171SOPE  H11B19288   7.249   5.315   5.951  0.6396 -0.0280  1.7955
  171SOPE     P19289   7.107   5.010   5.996  0.1288 -0.1233 -0.6276
  171SOPE   O1319290   7.186   5.005   6.122  0.5236  0.4167  0.1829
  171SOPE   O1419291   7.103   4.888   5.914  0.0800 -0.2541 -0.1159
  171SOPE   O1219292   7.147   5.136   5.908  0.6958  0.4330 -0.2165
  171SOPE   O1119293   6.963   5.049   6.036  0.4793 -0.4182 -0.4346
  171SOPE    C119294   6.873   4.955   6.099 -0.7503 -0.1097  0.5132
  171SOPE    HA19295   6.895   4.850   6.072  0.5126 -0.0479  1.2760
  171SOPE    HB19296   6.769   4.988   6.077 -0.4182  0.0369 -0.8795
  171SOPE    C219297   6.876   4.954   6.253 -0.3577  0.1640  0.0802
  171SOPE    HS19298   6.976   4.923   6.291 -1.6972 -1.8960  2.0332
  171SOPE   O2119299   6.770   4.878   6.299 -0.3226 -0.2283  0.3025
  171SOPE   C2119300   6.780   4.748   6.285 -0.6728  0.0362 -1.2553
  171SOPE   O2219301   6.888   4.687   6.266 -0.2165 -0.3518 -0.5416
  171SOPE   C2219302   6.639   4.680   6.303  0.4155 -0.1910  0.2368
  171SOPE   H2R19303   6.596   4.683   6.200  0.4573  3.6199  0.2552
  171SOPE   H2S19304   6.573   4.731   6.376 -0.9512 -2.9083  0.9552
  171SOPE    C319305   6.853   5.094   6.314 -0.6692  0.1460  0.2400
  171SOPE    HX19306   6.753   5.138   6.293 -0.5541  0.6707  0.7562
  171SOPE    HY19307   6.917   5.169   6.262 -0.8574  0.0148 -0.1773
  171SOPE   O3119308   6.888   5.095   6.454 -1.0378  0.3946 -0.5289
  171SOPE   C3119309   7.008   5.144   6.480 -1.0730  0.9714  0.1952
  171SOPE   O3219310   7.090   5.185   6.395  0.5874 -0.2213 -0.3074
  171SOPE   C3219311   7.032   5.154   6.623  0.0742  0.0276 -0.5640
  171SOPE   H2X19312   7.133   5.200   6.632  0.2086 -0.4431  0.4239
  171SOPE   H2Y19313   7.026   5.049   6.657 -1.3560 -0.2350 -1.5473
  171SOPE   C2319314   6.653   4.530   6.358 -0.1619 -0.5896 -0.0409
  171SOPE   H3R19315   6.754   4.501   6.323 -0.0447  0.2927 -0.4531
  171SOPE   H3S19316   6.577   4.463   6.313 -1.8075  0.8958  0.4656
  171SOPE   C2419317   6.645   4.515   6.515  0.0702 -0.6094 -0.6435
  171SOPE   H4R19318   6.543   4.531   6.557  1.5450  0.5365  2.6292
  171SOPE   H4S19319   6.672   4.408   6.530  0.8725 -0.2421  0.6006
  171SOPE   C2519320   6.740   4.615   6.597 -0.4949  0.2886 -0.4915
  171SOPE   H5R19321   6.837   4.616   6.545 -1.8689  0.1041 -3.1314
  171SOPE   H5S19322   6.695   4.717   6.588 -0.8210  0.0344 -1.7893
  171SOPE   C2619323   6.770   4.569   6.742  0.1900  0.5540  0.3705
  171SOPE   H6R19324   6.679   4.531   6.794  0.9655 -1.4195  0.3274
  171SOPE   H6S19325   6.849   4.491   6.742 -1.1980 -0.9055 -1.7562
  171SOPE   C2719326   6.822   4.688   6.826  0.9442  0.2983 -0.2254
  171SOPE   H7R19327   6.910   4.724   6.770  1.0684  0.2562 -0.0574
  171SOPE   H7S19328   6.745   4.767   6.815 -1.3184 -1.9080 -1.0602
  171SOPE   C2819329   6.857   4.651   6.972 -0.6676 -0.1714  0.3819
  171SOPE   H8R19330   6.934   4.570   6.968  0.3087  0.7901 -0.4485
  171SOPE   H8S19331   6.910   4.740   7.012 -0.6080 -0.7516  1.6488
  171SOPE   C2919332   6.735   4.617   7.053 -0.3073 -0.3154  0.7699
  171SOPE   H9119333   6.682   4.533   7.006 -0.4155  0.7772 -1.1036
  171SOPE  C21019334   6.710   4.672   7.173 -0.1718 -0.5281  0.7881
  171SOPE  H10119335   6.626   4.629   7.229 -1.5237 -1.7271 -2.0763
  171SOPE  C21119336   6.784   4.773   7.257  0.4388  0.7018 -0.0553
  171SOPE  H11R19337   6.718   4.816   7.335 -0.9366 -1.9019  0.2491
  171SOPE  H11S19338   6.817   4.857   7.192 -1.0196  1.1201 -0.2634
  171SOPE  C21219339   6.908   4.727   7.330 -0.9502 -0.1520  0.1440
  171SOPE  H12R19340   6.992   4.693   7.265 -1.5192 -0.2312 -0.5652
  171SOPE  H12S19341   6.884   4.640   7.394  0.9309 -0.9788 -0.2300
  171SOPE  C21319342   6.970   4.839   7.411  0.2341  0.0654 -0.0502
  171SOPE  H13R19343   6.901   4.865   7.494  0.9455  0.6959  0.3491
  171SOPE  H13S19344   6.973   4.930   7.348  1.9018  0.5359  0.6745
  171SOPE  C21419345   7.112   4.817   7.464  0.4466  0.3209 -0.0163
  171SOPE  H14R19346   7.160   4.914   7.491  0.6060  0.6545 -1.4596
  171SOPE  H14S19347   7.180   4.785   7.382  0.4552  0.2250  0.0281
  171SOPE  C21519348   7.141   4.716   7.578 -0.2411 -0.1086 -0.0340
  171SOPE  H15R19349   7.249   4.720   7.605 -0.0117 -0.3041 -0.9249
  171SOPE  H15S19350   7.116   4.611   7.552  0.8399 -0.6085  0.9152
  171SOPE  C21619351   7.054   4.744   7.704 -0.0539 -0.3315  0.7561
  171SOPE  H16R19352   6.950   4.710   7.685  0.0932  1.0278 -2.7605
  171SOPE  H16S19353   7.053   4.855   7.705 -1.2656 -0.3319  0.7671
  171SOPE  C21719354   7.112   4.677   7.832  0.3794 -0.0026 -0.3886
  171SOPE  H17R19355   7.191   4.744   7.874 -0.9540  0.7425  0.9618
  171SOPE  H17S19356   7.170   4.588   7.798 -1.3527 -1.2859 -0.0497
  171SOPE  C21819357   7.015   4.639   7.941 -0.3828  0.7733  0.4584
  171SOPE  H18R19358   6.946   4.564   7.896 -0.0474 -0.4669  1.9376
  171SOPE  H18S19359   6.960   4.725   7.984 -0.9556  0.1634  0.9668
  171SOPE  H18T19360   7.055   4.574   8.021 -0.1271  0.6514  0.2319
  171SOPE   C3319361   6.944   5.247   6.708  0.6287  0.0959  0.6943
  171SOPE   H3X19362   6.841   5.204   6.708  1.1563 -1.1826  0.1818
  171SOPE   H3Y19363   6.940   5.346   6.658  0.2240 -0.2144  0.1007
  171SOPE   C3419364   6.972   5.271   6.858 -0.2823  0.8613  0.2938
  171SOPE   H4X19365   6.903   5.350   6.896  0.2735  1.2928  0.3998
  171SOPE   H4Y19366   7.068   5.318   6.886 -0.2648  0.7818  0.3651
  171SOPE   C3519367   6.952   5.144   6.933 -1.2247 -0.7433 -0.2896
  171SOPE   H5X19368   7.033   5.067   6.933 -1.2147 -0.7500  1.4003
  171SOPE   H5Y19369   6.862   5.092   6.894 -2.6157 -0.9548  3.0956
  171SOPE   C3619370   6.919   5.168   7.079  0.4871 -0.1665 -0.3544
  171SOPE   H6X19371   6.890   5.079   7.140  1.1411  0.6161  1.1306
  171SOPE   H6Y19372   6.830   5.236   7.080 -0.0662 -0.8899 -0.1667
  171SOPE   C3719373   7.021   5.246   7.157  0.2971 -0.2048 -0.0414
  171SOPE   H7X19374   7.028   5.346   7.108 -1.4991  0.3661  0.8352
  171SOPE   H7Y19375   7.116   5.187   7.156  0.2316 -0.3997 -4.8150
  171SOPE   C3819376   6.985   5.261   7.303  0.5416 -0.0605 -0.0891
  171SOPE   H8X19377   6.963   5.161   7.347  2.2838 -0.6986 -0.5941
  171SOPE   H8Y19378   6.898   5.329   7.314  0.5599 -0.4345  2.8941
  171SOPE   C3919379   7.105   5.313   7.388  0.6096 -0.5555 -0.0776
  171SOPE   H9X19380   7.155   5.404   7.348  1.3834 -0.7579  0.4251
  171SOPE   H9Y19381   7.181   5.234   7.375  1.5848  0.1238  1.3453
  171SOPE  C31019382   7.075   5.337   7.537  0.3019 -0.8875  0.1761
  171SOPE  H10X19383   7.160   5.298   7.597  0.0215 -1.3879  0.2428
  171SOPE  H10Y19384   6.986   5.275   7.557  0.4071 -1.6100 -1.4794
  171SOPE  C31119385   7.045   5.485   7.571 -0.6444  0.3742 -0.0369
  171SOPE  H11X19386   6.937   5.512   7.577 -0.7181  0.5512 -1.7214
  171SOPE  H11Y19387   7.092   5.545   7.490 -2.0599 -1.4311 -2.2359
  171SOPE  C31219388   7.110   5.541   7.701  0.0817 -0.2809 -1.1360
  171SOPE  H12X19389   7.088   5.649   7.711 -1.0978 -0.7467  1.5479
  171SOPE  H12Y19390   7.221   5.538   7.700  0.0654 -2.1139  0.4996
  171SOPE  C31319391   7.056   5.474   7.834 -0.5734 -0.4871  0.1827
  171SOPE  H13X19392   7.108   5.377   7.849  1.0328  0.9066  4.3862
  171SOPE  H13Y19393   6.946   5.463   7.828 -0.6437 -0.3034  1.0482
  171SOPE  C31419394   7.095   5.559   7.957 -0.1556 -0.0862  0.7038
  171SOPE  H14X19395   7.015   5.558   8.034 -0.6630 -0.3655  0.1822
  171SOPE  H14Y19396   7.105   5.664   7.921 -0.1422 -0.3339 -0.0222
  171SOPE  C31519397   7.227   5.521   8.021  0.0699 -0.0814 -0.1872
  171SOPE  H15X19398   7.316   5.561   7.967 -1.5879  0.2344 -2.7659
  171SOPE  H15Y19399   7.236   5.410   8.015  0.7074  0.0090 -1.1454
  171SOPE  C31619400   7.240   5.561   8.169  0.9480 -0.5856  0.6490
  171SOPE  H16X19401   7.322   5.501   8.214  1.7747 -0.3621 -0.5260
  171SOPE  H16Y19402   7.150   5.531   8.227 -0.0587  1.4576  0.1856
  171SOPE  C31719403   7.268   5.713   8.190 -0.4845 -0.2445  0.8111
  171SOPE  H17X19404   7.268   5.736   8.298 -1.3534  2.3182  0.3085
  171SOPE  H17Y19405   7.178   5.768   8.156  3.0068  3.4888 -3.1222
  171SOPE  C31819406   7.397   5.767   8.116 -0.1767 -0.2011  0.1353
  171SOPE  H18X19407   7.371   5.788   8.010  1.9787 -0.1185 -0.4138
  171SOPE  H18Y19408   7.477   5.689   8.120  1.9308  1.7663 -1.8124
  171SOPE  H18Z19409   7.438   5.859   8.165  0.1151 -0.0324 -0.4301
  172SOPE     N19410   1.622   7.244   5.659  0.4756  0.1088 -0.0207
  172SOPE   HN119411   1.616   7.255   5.556 -2.5400 -1.9800 -0.1456
  172SOPE   HN219412   1.697   7.172   5.668  1.3143  0.8564 -1.0756
  172SOPE   HN319413   1.532   7.201   5.689  0.5314 -0.5181 -0.7410
  172SOPE   C1219414   1.661   7.353   5.745 -0.3853 -0.7161 -0.1821
  172SOPE  H12A19415   1.632   7.330   5.849  2.4644  1.1095  1.0812
  172SOPE  H12B19416   1.601   7.444   5.726 -1.8805 -1.3090  1.5364
  172SOPE   C1119417   1.808   7.374   5.739  0.0694  0.1209 -0.7606
  172SOPE  H11A19418   1.828   7.464   5.801 -0.0472 -1.2204  1.2598
  172SOPE  H11B19419   1.840   7.382   5.633  1.0798 -2.0431 -0.6348
  172SOPE     P19420   1.954   7.257   5.926 -0.3666 -0.4088 -0.2438
  172SOPE   O1319421   2.084   7.331   5.917 -0.0971 -0.2257  0.1293
  172SOPE   O1419422   1.959   7.123   5.983  0.4474 -0.0562  0.2708
  172SOPE   O1219423   1.883   7.259   5.786  0.0405 -0.7156  0.2612
  172SOPE   O1119424   1.850   7.343   6.012  0.2712 -0.3875 -0.1803
  172SOPE    C119425   1.773   7.274   6.114  0.0269  0.3405  0.4505
  172SOPE    HA19426   1.827   7.271   6.211  1.9172  1.6530 -0.5221
  172SOPE    HB19427   1.730   7.178   6.078  2.4308 -0.1637 -1.2612
  172SOPE    C219428   1.649   7.370   6.141 -0.1494 -0.0923  0.4109
  172SOPE    HS19429   1.600   7.405   6.048 -0.8410  2.3477  1.6464
  172SOPE   O2119430   1.701   7.481   6.208 -0.5481 -0.3165 -0.6490
  172SOPE   C2119431   1.620   7.582   6.233  0.7734  0.3074  0.1701
  172SOPE   O2219432   1.506   7.589   6.187 -0.7162 -0.7267  0.0262
  172SOPE   C2219433   1.696   7.682   6.324 -0.2455 -0.4050  0.6915
  172SOPE   H2R19434   1.646   7.781   6.329 -0.4194 -0.4583  0.0679
  172SOPE   H2S19435   1.787   7.707   6.265 -0.2873  0.3773  0.9585
  172SOPE    C319436   1.538   7.289   6.226 -0.5926 -0.1390 -0.7839
  172SOPE    HX19437   1.530   7.186   6.184 -1.1423 -1.5638  2.6016
  172SOPE    HY19438   1.441   7.343   6.221 -1.1288 -1.2373 -2.7327
  172SOPE   O3119439   1.573   7.286   6.366 -0.3574  0.2275 -0.5993
  172SOPE   C3119440   1.514   7.189   6.433 -0.1758 -0.2624 -0.3923
  172SOPE   O3219441   1.456   7.097   6.378  0.2745  0.6134 -0.4082
  172SOPE   C3219442   1.538   7.189   6.585  0.3888  0.0313  0.2423
  172SOPE   H2X19443   1.486   7.271   6.639 -1.7511 -1.9511  1.2692
  172SOPE   H2Y19444   1.647   7.202   6.600  0.5077 -0.1648 -0.4335
  172SOPE   C2319445   1.726   7.636   6.465 -0.0985  0.0490 -0.0932
  172SOPE   H3R19446   1.636   7.600   6.519 -1.2216 -2.0675 -3.2145
  172SOPE   H3S19447   1.783   7.717   6.515  1.0241  0.1271 -1.4763
  172SOPE   C2419448   1.826   7.521   6.469 -0.3815 -0.1606 -0.3975
  172SOPE   H4R19449   1.773   7.426   6.447 -0.4393 -0.0779 -0.6160
  172SOPE   H4S19450   1.897   7.548   6.388 -0.7212 -0.7977 -0.9140
  172SOPE   C2519451   1.895   7.523   6.607 -0.4721  0.0716 -0.2895
  172SOPE   H5R19452   1.983   7.455   6.593 -3.1451 -3.4948 -0.6043
  172SOPE   H5S19453   1.923   7.626   6.637 -3.0430  0.8380 -0.3957
  172SOPE   C2619454   1.809   7.464   6.719  0.8948 -0.5245 -0.5010
  172SOPE   H6R19455   1.721   7.531   6.737 -1.5178 -3.4773 -0.9580
  172SOPE   H6S19456   1.776   7.370   6.670  0.3610 -2.3488  3.1845
  172SOPE   C2719457   1.894   7.424   6.841  0.1048  0.8038 -0.1797
  172SOPE   H7R19458   1.832   7.387   6.925  1.0920 -2.1009 -0.6626
  172SOPE   H7S19459   1.962   7.337   6.825 -2.1122 -0.8570 -0.8736
  172SOPE   C2819460   1.972   7.533   6.912 -0.0052 -0.6269 -1.1508
  172SOPE   H8R19461   2.022   7.483   6.997  0.1426 -0.6291 -1.2384
  172SOPE   H8S19462   2.049   7.569   6.840  0.8315  0.1666  0.1122
  172SOPE   C2919463   1.890   7.656   6.952  0.0751 -0.5923  0.5134
  172SOPE   H9119464   1.852   7.716   6.868  0.3394  0.9080  1.4613
  172SOPE  C21019465   1.870   7.698   7.078  0.8633 -0.0712 -0.0883
  172SOPE  H10119466   1.827   7.798   7.092 -0.3070 -0.7100  1.0370
  172SOPE  C21119467   1.916   7.637   7.211 -0.0899 -0.1411  0.5952
  172SOPE  H11R19468   1.999   7.567   7.187 -1.3192 -0.4722 -2.9160
  172SOPE  H11S19469   1.831   7.574   7.245  1.6364 -1.4227  2.6753
  172SOPE  C21219470   1.954   7.740   7.307  1.0653 -0.0483 -0.0917
  172SOPE  H12R19471   1.868   7.807   7.329 -0.1555 -1.5920 -0.0864
  172SOPE  H12S19472   2.040   7.800   7.270  1.3833 -0.2540  0.3076
  172SOPE  C21319473   2.001   7.689   7.439 -0.0558 -0.0148  0.1836
  172SOPE  H13R19474   2.072   7.604   7.435  0.8701  0.7967 -1.2564
  172SOPE  H13S19475   1.917   7.649   7.499  0.7472 -2.3194 -0.1969
  172SOPE  C21419476   2.085   7.798   7.512  0.4367  0.2283 -0.3798
  172SOPE  H14R19477   2.006   7.876   7.519 -0.4152 -0.7397  1.0677
  172SOPE  H14S19478   2.173   7.818   7.448  1.6149 -1.9052  0.5231
  172SOPE  C21519479   2.141   7.753   7.649  0.4658 -0.1836  0.1889
  172SOPE  H15R19480   2.203   7.662   7.633  0.0047 -0.4828  0.1239
  172SOPE  H15S19481   2.052   7.738   7.714  0.3450  1.8338  0.5194
  172SOPE  C21619482   2.226   7.858   7.720 -0.3717  0.2782  0.1261
  172SOPE  H16R19483   2.168   7.948   7.746 -0.1447  0.4347  0.0982
  172SOPE  H16S19484   2.304   7.892   7.648 -1.1044  1.5981 -0.0507
  172SOPE  C21719485   2.292   7.796   7.846 -0.0394 -0.0040 -0.3311
  172SOPE  H17R19486   2.363   7.869   7.891 -0.4453 -0.2561  0.7333
  172SOPE  H17S19487   2.349   7.705   7.818 -0.0200 -0.0907 -0.0073
  172SOPE  C21819488   2.186   7.754   7.947 -0.5232 -0.0186  0.6232
  172SOPE  H18R19489   2.128   7.665   7.915 -0.6565  0.1575  0.3726
  172SOPE  H18S19490   2.120   7.841   7.967 -0.0044  0.6408 -0.4268
  172SOPE  H18T19491   2.236   7.711   8.036  1.6480 -2.0630 -1.5214
  172SOPE   C3319492   1.485   7.062   6.649  0.2257 -0.4715 -0.5469
  172SOPE   H3X19493   1.538   6.969   6.618 -0.2691 -0.6452 -0.8801
  172SOPE   H3Y19494   1.380   7.049   6.614  0.8070 -1.9990 -1.8123
  172SOPE   C3419495   1.484   7.062   6.801  0.4591 -0.2226 -0.1521
  172SOPE   H4X19496   1.443   6.970   6.847 -1.4083 -0.4945 -2.2995
  172SOPE   H4Y19497   1.421   7.147   6.835 -0.2668 -0.5555 -0.6600
  172SOPE   C3519498   1.622   7.093   6.857  0.2229  0.5977  0.2365
  172SOPE   H5X19499   1.656   7.198   6.844 -0.5631  0.4665 -3.3533
  172SOPE   H5Y19500   1.693   7.027   6.803 -0.2417  0.0847  0.2441
  172SOPE   C3619501   1.629   7.062   7.010  0.4734 -0.2488 -0.8543
  172SOPE   H6X19502   1.630   6.953   7.031 -0.1457 -0.2136 -0.6293
  172SOPE   H6Y19503   1.540   7.099   7.066  1.8562  1.0335  0.5303
  172SOPE   C3719504   1.745   7.141   7.078 -0.3268 -0.3691  0.5151
  172SOPE   H7X19505   1.726   7.248   7.055 -0.0966 -0.1061  1.4894
  172SOPE   H7Y19506   1.845   7.112   7.040  0.0628  3.1637 -1.3826
  172SOPE   C3819507   1.759   7.115   7.228 -0.1034 -0.1457 -0.3270
  172SOPE   H8X19508   1.780   7.006   7.237 -1.5711 -0.5876 -1.8601
  172SOPE   H8Y19509   1.660   7.138   7.273  0.3455 -0.2423  0.6984
  172SOPE   C3919510   1.874   7.205   7.287 -0.1472  0.6340 -0.3252
  172SOPE   H9X19511   1.871   7.299   7.228 -1.8466  0.6413 -0.2488
  172SOPE   H9Y19512   1.973   7.160   7.270  0.1568  0.3653  1.9996
  172SOPE  C31019513   1.847   7.220   7.439 -0.3684  0.3752 -0.3485
  172SOPE  H10X19514   1.757   7.285   7.447 -0.4048  0.2363  0.3751
  172SOPE  H10Y19515   1.933   7.283   7.471  1.4296 -2.6507  0.9480
  172SOPE  C31119516   1.826   7.104   7.533 -0.2372 -0.3036 -0.4183
  172SOPE  H11X19517   1.919   7.044   7.542  0.7699  1.3695  0.7824
  172SOPE  H11Y19518   1.744   7.039   7.496 -0.1002 -0.9700  0.4559
  172SOPE  C31219519   1.793   7.143   7.676 -0.0656  0.1178 -0.9723
  172SOPE  H12X19520   1.697   7.198   7.687  0.0768  0.6650 -2.3766
  172SOPE  H12Y19521   1.884   7.191   7.718 -0.5595 -0.0967  0.3608
  172SOPE  C31319522   1.783   7.023   7.769  0.2102 -0.4450 -0.0980
  172SOPE  H13X19523   1.886   6.979   7.772  1.2837  1.9942 -0.4046
  172SOPE  H13Y19524   1.716   6.943   7.730 -0.4856  0.3626 -0.5632
  172SOPE  C31419525   1.713   7.056   7.907  0.4368  0.0909  0.8480
  172SOPE  H14X19526   1.708   7.166   7.919 -2.0182 -0.0448  1.2878
  172SOPE  H14Y19527   1.773   7.017   7.992 -1.5044 -0.1503  2.1312
  172SOPE  C31519528   1.574   6.985   7.926  0.3063  0.6937  0.0863
  172SOPE  H15X19529   1.590   6.875   7.918 -0.0434  0.7426 -1.6179
  172SOPE  H15Y19530   1.512   7.017   7.839 -1.0628  1.3597  1.3035
  172SOPE  C31619531   1.495   7.013   8.051  0.4611  0.5213 -1.1903
  172SOPE  H16X19532   1.466   7.120   8.043 -0.3765  0.4745  0.8620
  172SOPE  H16Y19533   1.555   7.001   8.144 -0.3369  2.2895 -0.4180
  172SOPE  C31719534   1.364   6.928   8.063 -0.0405 -0.1770  0.0223
  172SOPE  H17X19535   1.406   6.825   8.057  0.4104 -0.0125  0.3215
  172SOPE  H17Y19536   1.284   6.947   7.989  0.2978 -1.9932 -0.8279
  172SOPE  C31819537   1.306   6.943   8.202  0.0054  0.6803  0.1959
  172SOPE  H18X19538   1.378   6.896   8.272 -1.2783  0.7799  1.6155
  172SOPE  H18Y19539   1.212   6.889   8.225  1.1668 -0.5439  2.1483
  172SOPE  H18Z19540   1.293   7.051   8.228 -1.1439  0.7638 -0.6891
  173SAPI   C1219541   2.981   4.993  10.342  0.0618  0.1018 -0.5273
  173SAPI    H219542   2.969   5.026  10.236  0.3969  4.2405  0.6591
  173SAPI    O219543   3.117   5.013  10.385  0.2919 -0.3329  0.3243
  173SAPI   HO219544   3.173   4.974  10.318  0.0174 -0.6571  0.2814
  173SAPI   C1319545   2.885   5.068  10.427 -0.5677 -0.4642  0.3330
  173SAPI    H319546   2.784   5.045  10.387 -0.7773  3.6558 -1.7320
  173SAPI    O319547   2.898   5.204  10.408  0.1520 -0.7318 -0.1149
  173SAPI   HO319548   2.950   5.237  10.482 -0.3207 -0.3419  0.0497
  173SAPI   C1419549   2.891   5.022  10.574 -0.1020  0.3596 -0.5527
  173SAPI    H419550   2.996   5.028  10.610  0.5852  0.0545 -2.4528
  173SAPI    O419551   2.807   5.105  10.659 -0.0142 -0.1347  0.1463
  173SAPI   HO419552   2.811   5.065  10.746 -0.7733  0.2803  0.3809
  173SAPI   C1519553   2.841   4.881  10.579  0.8738 -0.9805  0.2595
  173SAPI    H519554   2.735   4.880  10.544  1.7525 -0.6605 -2.5058
  173SAPI    O519555   2.835   4.835  10.707 -0.1073 -0.0220 -0.1699
  173SAPI   HO519556   2.922   4.809  10.739 -0.0623  0.5213  0.1464
  173SAPI   C1619557   2.936   4.795  10.487 -0.2310 -0.5010  1.1824
  173SAPI    H619558   3.038   4.804  10.529  0.8864  1.8678 -1.8521
  173SAPI    O619559   2.892   4.663  10.502 -0.1818 -0.3314  0.5121
  173SAPI   HO619560   2.967   4.610  10.477 -1.8383 -2.1646 -0.6789
  173SAPI   C1119561   2.936   4.850  10.343  0.0861 -0.5533  0.8920
  173SAPI    H119562   2.832   4.839  10.308  0.6616 -4.0813  0.0848
  173SAPI     P19563   2.975   4.774  10.090 -0.1665  0.0305  0.0194
  173SAPI   O1319564   2.840   4.832  10.056  0.6848  0.3619 -0.4971
  173SAPI   O1419565   2.998   4.634  10.045  0.1282  0.3130  0.2450
  173SAPI   O1219566   3.009   4.772  10.250 -0.1125 -0.0164 -0.1481
  173SAPI   O1119567   3.097   4.854  10.028  0.1528 -0.1591 -0.9264
  173SAPI    C119568   3.162   4.812   9.905  0.1716 -0.3766 -0.4483
  173SAPI    HA19569   3.226   4.722   9.913  0.0394 -0.5163 -0.9569
  173SAPI    HB19570   3.085   4.765   9.842 -1.5486  1.9074 -0.1283
  173SAPI    C219571   3.246   4.929   9.854 -0.5010 -0.0073  0.8440
  173SAPI    HS19572   3.311   4.966   9.936 -0.5309  2.1375 -0.0773
  173SAPI   O2119573   3.159   5.040   9.807 -0.3466  0.3296  0.3485
  173SAPI   C2119574   3.222   5.157   9.800 -1.1458 -0.2235  0.2533
  173SAPI   O2219575   3.330   5.183   9.849  0.0864 -0.2446 -0.0706
  173SAPI   C2219576   3.129   5.258   9.736 -0.5923 -0.3674  0.3606
  173SAPI   H2R19577   3.028   5.226   9.770 -0.8033 -1.6378 -1.4228
  173SAPI   H2S19578   3.155   5.356   9.782  2.0681 -0.9293  0.1433
  173SAPI    C319579   3.336   4.875   9.748 -0.4947  0.0121  0.1326
  173SAPI    HX19580   3.385   4.782   9.785 -1.1783 -1.3103 -2.1763
  173SAPI    HY19581   3.408   4.955   9.721 -0.1282 -0.4165 -0.1987
  173SAPI   O3119582   3.271   4.852   9.621  0.1084  0.5839 -0.3011
  173SAPI   C3119583   3.196   4.743   9.603 -0.6006 -0.2058 -0.1508
  173SAPI   O3219584   3.196   4.636   9.663  0.3934  0.4651  0.0027
  173SAPI   C3219585   3.094   4.780   9.496 -0.3160  0.8411  0.2485
  173SAPI   H2X19586   3.036   4.690   9.467  1.1559 -0.3285  0.8714
  173SAPI   H2Y19587   3.154   4.822   9.413  0.5781 -0.6856  0.1086
  173SAPI   C2319588   3.147   5.255   9.587  0.2445  0.0657  0.0255
  173SAPI   H3R19589   3.065   5.272   9.514 -0.1663 -0.4144  0.3729
  173SAPI   H3S19590   3.175   5.155   9.549  1.3530  0.7215 -0.9161
  173SAPI   C2419591   3.269   5.346   9.553 -0.1902  0.3142  0.0208
  173SAPI   H4R19592   3.270   5.433   9.622 -0.8137  0.8361 -0.6226
  173SAPI   H4S19593   3.254   5.386   9.451 -0.9043 -1.8605 -0.7571
  173SAPI   C2519594   3.401   5.272   9.550  0.1358 -0.3194 -0.7274
  173SAPI   H5R19595   3.472   5.301   9.629  0.2401  0.5488 -1.1429
  173SAPI   C2619596   3.440   5.172   9.459  0.0815  0.3203  1.0621
  173SAPI   H6R19597   3.542   5.131   9.467 -0.2700 -0.8704 -0.4066
  173SAPI   C2719598   3.366   5.106   9.337 -0.1435 -0.8807 -0.6305
  173SAPI   H7R19599   3.284   5.049   9.384 -1.0263 -0.8485 -2.1208
  173SAPI   H7S19600   3.429   5.023   9.297 -1.9646 -1.6765 -1.8933
  173SAPI   C2819601   3.333   5.202   9.234  0.2976  0.8742  0.2179
  173SAPI   H8R19602   3.387   5.298   9.241 -3.9640  3.2628  2.5043
  173SAPI   C2919603   3.248   5.197   9.129  0.2543  0.3541  0.0113
  173SAPI   H9R19604   3.227   5.293   9.080 -1.6847  0.6885  1.4365
  173SAPI  C21019605   3.161   5.083   9.088 -0.0926 -0.2577 -0.3440
  173SAPI  H10R19606   3.186   4.987   9.139 -1.7973  0.5563  2.1341
  173SAPI  H10S19607   3.186   5.066   8.981  2.5914 -2.0243  0.4979
  173SAPI  C21119608   3.010   5.103   9.095  0.2659 -0.2767 -0.0529
  173SAPI  H11R19609   2.970   5.205   9.094  0.6013 -0.1418 -0.6310
  173SAPI  C21219610   2.916   5.007   9.083  0.2628 -0.4987  0.4869
  173SAPI  H12R19611   2.811   5.034   9.068  0.1255 -1.5590 -0.5761
  173SAPI  C21319612   2.938   4.865   9.059 -0.5491  0.1776  0.1227
  173SAPI  H13R19613   2.917   4.813   9.155 -1.2890 -1.1820 -0.7487
  173SAPI  H13S19614   3.045   4.846   9.039 -1.2516 -0.0591 -3.8166
  173SAPI  C21419615   2.844   4.810   8.953  0.0038 -0.6053 -0.2990
  173SAPI  H14R19616   2.742   4.844   8.972  0.0757 -0.5906  0.0524
  173SAPI  C21519617   2.864   4.755   8.837 -0.9218  0.3749 -0.0519
  173SAPI  H15R19618   2.780   4.710   8.783 -1.2086 -0.1824  0.8450
  173SAPI  C21619619   3.007   4.726   8.779  0.0818  0.8486 -0.0243
  173SAPI  H16R19620   3.029   4.619   8.759  2.1148  1.5822 -1.9872
  173SAPI  H16S19621   3.086   4.742   8.855  0.2866 -1.5937  0.3108
  173SAPI  C21719622   3.050   4.811   8.656 -0.0815 -0.4777 -0.7160
  173SAPI  H17R19623   3.157   4.787   8.637 -0.1887  0.4518 -2.6054
  173SAPI  H17S19624   3.040   4.919   8.683 -1.9960 -0.8532  0.1177
  173SAPI  C21819625   2.973   4.773   8.533 -0.0717 -0.8748  0.2021
  173SAPI  H18R19626   3.022   4.824   8.447 -0.3608 -2.3873 -0.8674
  173SAPI  H18S19627   2.866   4.800   8.548  0.3513  1.4843 -0.8335
  173SAPI  C21919628   2.973   4.623   8.492  0.1823 -0.3260 -0.3764
  173SAPI  H19R19629   2.898   4.604   8.411 -2.1372  1.5524  1.2675
  173SAPI  H19S19630   2.933   4.568   8.580 -0.3555 -0.1400 -0.5013
  173SAPI  C22019631   3.102   4.573   8.453 -0.2917  0.1358  0.4280
  173SAPI  H20R19632   3.125   4.620   8.355 -3.3138  1.1313  0.1435
  173SAPI  H20S19633   3.117   4.463   8.452 -0.7257  0.0680 -1.7021
  173SAPI  H20T19634   3.180   4.611   8.522 -1.1221 -2.5854  2.9875
  173SAPI   C3319635   2.984   4.881   9.541 -0.2221 -0.7980 -0.4653
  173SAPI   H3X19636   3.032   4.979   9.561 -1.2563 -0.4308  0.2361
  173SAPI   H3Y19637   2.937   4.847   9.635 -2.6959  1.3762 -0.8740
  173SAPI   C3419638   2.880   4.908   9.435  0.7239 -0.1472 -0.4960
  173SAPI   H4X19639   2.818   4.817   9.424 -0.9398  0.9350 -0.2077
  173SAPI   H4Y19640   2.937   4.920   9.341 -0.1644  0.6021 -0.9415
  173SAPI   C3519641   2.792   5.025   9.460 -1.1521  0.8350  0.7471
  173SAPI   H5X19642   2.847   5.114   9.423  0.4615 -0.6588 -0.5379
  173SAPI   H5Y19643   2.774   5.037   9.569  0.3259 -1.3873  1.2759
  173SAPI   C3619644   2.657   5.027   9.384 -0.1158  0.0493 -0.5162
  173SAPI   H6X19645   2.676   5.006   9.276  0.2570 -3.2905  0.1390
  173SAPI   H6Y19646   2.605   5.124   9.395 -0.0922 -0.0591  0.5341
  173SAPI   C3719647   2.552   4.929   9.448  0.1351  0.4161  0.1624
  173SAPI   H7X19648   2.555   4.947   9.557 -1.4218  2.1388 -0.0539
  173SAPI   H7Y19649   2.585   4.825   9.427  0.7339  0.7876 -0.7581
  173SAPI   C3819650   2.412   4.961   9.396  0.2142  0.0882 -0.5183
  173SAPI   H8X19651   2.404   5.072   9.398  1.5173  0.2598 -2.8450
  173SAPI   H8Y19652   2.335   4.925   9.468  1.0797  1.5916  1.1975
  173SAPI   C3919653   2.389   4.904   9.260 -0.2063 -0.0784  0.0254
  173SAPI   H9X19654   2.386   4.793   9.256 -0.9652 -0.0997  1.0090
  173SAPI   H9Y19655   2.482   4.925   9.202 -0.6711 -0.0320 -0.6944
  173SAPI  C31019656   2.270   4.977   9.197  0.0812  0.0727 -1.0163
  173SAPI  H10X19657   2.259   5.079   9.241  1.0105 -0.9265  1.6689
  173SAPI  H10Y19658   2.184   4.919   9.238  1.3260 -1.4814 -0.5415
  173SAPI  C31119659   2.285   4.972   9.044  0.2518 -0.1391  0.3155
  173SAPI  H11X19660   2.258   4.873   9.002 -2.1631  0.2596  0.8785
  173SAPI  H11Y19661   2.394   4.977   9.023  0.2868  3.3888  1.0118
  173SAPI  C31219662   2.201   5.069   8.972 -0.4326 -0.3640  0.1610
  173SAPI  H12X19663   2.226   5.169   9.013 -1.7449 -0.3212  0.8948
  173SAPI  H12Y19664   2.092   5.052   8.986 -0.6564 -0.8884 -1.9727
  173SAPI  C31319665   2.224   5.062   8.824 -0.2557 -0.2154  0.1076
  173SAPI  H13X19666   2.257   4.962   8.787 -0.0804  0.3577 -1.3114
  173SAPI  H13Y19667   2.319   5.120   8.815 -1.7236  2.3653  0.7365
  173SAPI  C31419668   2.115   5.119   8.726  0.1591  0.5124  0.0801
  173SAPI  H14X19669   2.096   5.220   8.767 -0.5645 -0.1278  1.3381
  173SAPI  H14Y19670   2.016   5.070   8.725  0.9882 -1.2109 -1.1696
  173SAPI  C31519671   2.165   5.127   8.581  0.4847 -0.4277 -0.0374
  173SAPI  H15X19672   2.121   5.036   8.534 -0.7635 -0.0755  0.4241
  173SAPI  H15Y19673   2.274   5.106   8.583  0.3754 -0.9210  1.0064
  173SAPI  C31619674   2.118   5.251   8.503  0.8137 -0.3738 -0.0624
  173SAPI  H16X19675   2.138   5.337   8.570  0.2522 -0.2353 -0.0710
  173SAPI  H16Y19676   2.007   5.249   8.500  0.7492  0.5171  1.3515
  173SAPI  C31719677   2.193   5.282   8.374  0.6033 -0.0953  0.6314
  173SAPI  H17X19678   2.173   5.213   8.289  3.7771 -0.0380 -0.2455
  173SAPI  H17Y19679   2.302   5.271   8.393  0.8676 -0.3879 -0.9515
  173SAPI  C31819680   2.164   5.425   8.319  0.4884 -0.0028  0.0233
  173SAPI  H18X19681   2.190   5.439   8.212  2.8677 -1.0190  0.4174
  173SAPI  H18Y19682   2.210   5.501   8.386  1.2046 -0.1728 -0.2689
  173SAPI  H18Z19683   2.058   5.457   8.314  0.8830  1.0346 -2.0129
  174SAPI   C1219684   4.087   6.035  10.177  0.0144  0.3515 -0.1261
  174SAPI    H219685   4.027   5.944  10.198  1.6069 -0.2245  2.1222
  174SAPI    O219686   4.077   6.083  10.043  0.2795  0.9184  0.6895
  174SAPI   HO219687   3.988   6.119  10.036 -0.0454  0.1337  0.7338
  174SAPI   C1319688   4.042   6.142  10.276 -0.7034 -0.0923 -0.1978
  174SAPI    H319689   4.038   6.086  10.372 -0.7038  1.1076  0.5095
  174SAPI    O319690   3.913   6.188  10.241  0.1475 -0.3552 -0.5839
  174SAPI   HO319691   3.868   6.204  10.324 -0.8971 -0.1389 -1.1888
  174SAPI   C1419692   4.142   6.256  10.277 -0.5701  0.1667  0.0971
  174SAPI    H419693   4.143   6.287  10.171 -1.5493  1.0720  0.3396
  174SAPI    O419694   4.104   6.370  10.356 -0.4263 -0.3257 -0.6144
  174SAPI   HO419695   4.090   6.450  10.306  0.8653  0.4554  0.2256
  174SAPI   C1519696   4.282   6.206  10.307 -0.2618 -0.2645 -1.0042
  174SAPI    H519697   4.284   6.168  10.411  0.6852  1.4822 -0.3660
  174SAPI    O519698   4.379   6.316  10.305  0.1300  1.0510  0.3837
  174SAPI   HO519699   4.353   6.386  10.366 -1.3206 -0.2080  1.2272
  174SAPI   C1619700   4.329   6.098  10.207 -0.1745  0.4551  0.3209
  174SAPI    H619701   4.326   6.144  10.105  0.6682  3.2483  1.5118
  174SAPI    O619702   4.468   6.062  10.232 -0.4213  0.4508 -0.5504
  174SAPI   HO619703   4.482   5.982  10.181  1.9421  0.7737 -0.4620
  174SAPI   C1119704   4.227   5.987  10.213 -0.0358  0.3041  0.4474
  174SAPI    H119705   4.223   5.950  10.318  3.7659 -1.3555  0.0766
  174SAPI     P19706   4.210   5.725  10.152 -0.4605  0.0638  0.4332
  174SAPI   O1319707   4.122   5.678  10.045  0.3087  0.5940 -0.0030
  174SAPI   O1419708   4.175   5.705  10.294 -0.7323 -0.1980 -0.1961
  174SAPI   O1219709   4.260   5.882  10.128 -0.0641  0.5422 -0.4396
  174SAPI   O1119710   4.349   5.645  10.129  0.5535  0.1516 -0.0085
  174SAPI    C119711   4.447   5.683  10.035  0.3157 -0.3340 -0.2200
  174SAPI    HA19712   4.452   5.794  10.024  1.2847 -0.5086 -1.7043
  174SAPI    HB19713   4.546   5.648  10.073 -0.3299 -1.5262  0.3735
  174SAPI    C219714   4.426   5.624   9.887  0.6900 -0.0598  0.6205
  174SAPI    HS19715   4.527   5.625   9.839  1.0040  1.5474  1.2737
  174SAPI   O2119716   4.342   5.716   9.816  0.3603 -0.4122 -0.0505
  174SAPI   C2119717   4.388   5.836   9.777  1.3240  0.1302  0.1124
  174SAPI   O2219718   4.507   5.869   9.785 -0.3340 -0.4682  0.8869
  174SAPI   C2219719   4.282   5.925   9.715 -0.7253  0.5220 -0.4116
  174SAPI   H2R19720   4.183   5.899   9.758 -0.2449 -1.1035 -0.2440
  174SAPI   H2S19721   4.287   6.033   9.740  1.4107 -0.1295  2.2301
  174SAPI    C319722   4.353   5.485   9.895 -0.4547 -0.2532  0.0142
  174SAPI    HX19723   4.265   5.496   9.962  0.1931  1.9351  0.5567
  174SAPI    HY19724   4.411   5.404   9.943  2.0582  0.5447 -1.5798
  174SAPI   O3119725   4.306   5.440   9.767 -0.2561  0.0207  0.5804
  174SAPI   C3119726   4.403   5.408   9.675  0.2225 -0.0510 -0.9598
  174SAPI   O3219727   4.522   5.395   9.697 -0.4749 -0.4795  0.0552
  174SAPI   C3219728   4.339   5.385   9.534  0.0282 -0.5436 -0.4830
  174SAPI   H2X19729   4.421   5.388   9.459 -0.9627  0.9368 -1.5353
  174SAPI   H2Y19730   4.266   5.468   9.520  2.8626  1.8575 -1.6433
  174SAPI   C2319731   4.270   5.896   9.565  0.9472 -0.5700 -0.6166
  174SAPI   H3R19732   4.171   5.933   9.532  1.9232  1.8128 -1.0384
  174SAPI   H3S19733   4.277   5.787   9.546 -1.6637 -0.9481  0.3784
  174SAPI   C2419734   4.353   5.992   9.475  0.5251 -0.3520  0.3498
  174SAPI   H4R19735   4.333   6.100   9.488  5.1416  0.3647  2.3372
  174SAPI   H4S19736   4.318   5.969   9.371 -1.7212 -0.1044  1.0129
  174SAPI   C2519737   4.500   5.979   9.487 -0.7506  0.6444 -0.1909
  174SAPI   H5R19738   4.543   6.055   9.554 -0.5475 -0.1530  0.5996
  174SAPI   C2619739   4.578   5.888   9.424 -0.3734 -0.0338 -0.1913
  174SAPI   H6R19740   4.687   5.894   9.432 -0.3644 -1.2296  0.7475
  174SAPI   C2719741   4.528   5.783   9.330 -0.0988 -0.9580 -0.4572
  174SAPI   H7R19742   4.570   5.807   9.230 -1.6502  1.9627 -0.4568
  174SAPI   H7S19743   4.417   5.787   9.325 -0.1344 -1.0979  0.1057
  174SAPI   C2819744   4.569   5.647   9.381 -0.3873 -0.6916  0.1052
  174SAPI   H8R19745   4.553   5.635   9.489 -1.5962 -1.0873 -0.1102
  174SAPI   C2919746   4.628   5.542   9.312  0.3574  0.3913 -0.1809
  174SAPI   H9R19747   4.646   5.446   9.363 -2.3645  0.2523  0.5967
  174SAPI  C21019748   4.658   5.547   9.165 -0.1120 -0.1724  0.5228
  174SAPI  H10R19749   4.759   5.503   9.151 -0.1746 -0.3485  0.6252
  174SAPI  H10S19750   4.665   5.651   9.126  1.9468 -0.1541  0.9023
  174SAPI  C21119751   4.563   5.474   9.074  0.0168  0.1027  0.4345
  174SAPI  H11R19752   4.458   5.490   9.102 -1.3786  0.6676 -4.5807
  174SAPI  C21219753   4.597   5.397   8.961 -0.5685 -0.4127  0.2812
  174SAPI  H12R19754   4.508   5.348   8.917 -0.6662 -0.4495  0.5166
  174SAPI  C21319755   4.742   5.372   8.915 -1.3330  0.0593  0.8290
  174SAPI  H13R19756   4.810   5.382   9.002 -0.1546  0.9268 -0.1635
  174SAPI  H13S19757   4.768   5.455   8.846 -1.9762  0.9203  1.6185
  174SAPI  C21419758   4.777   5.235   8.863  0.0974  0.6366  0.3846
  174SAPI  H14R19759   4.719   5.150   8.901  0.5816 -0.5167 -1.3963
  174SAPI  C21519760   4.853   5.198   8.762 -0.1253 -0.9883  0.0592
  174SAPI  H15R19761   4.874   5.094   8.732  1.4311 -0.8116  0.4483
  174SAPI  C21619762   4.929   5.301   8.677  0.2228  0.2897 -0.1719
  174SAPI  H16R19763   5.012   5.342   8.738 -0.1641  3.2298 -1.5408
  174SAPI  H16S19764   4.867   5.389   8.652 -0.2072 -0.3125 -1.2916
  174SAPI  C21719765   4.989   5.245   8.554  0.0844 -0.0905  0.3476
  174SAPI  H17R19766   4.901   5.217   8.492  0.4146  0.9510 -0.6174
  174SAPI  H17S19767   5.056   5.160   8.579  1.2288  0.4219 -0.9348
  174SAPI  C21819768   5.069   5.343   8.475  1.0675 -0.8215  0.5904
  174SAPI  H18R19769   5.150   5.381   8.541  0.4304  0.7044  0.5140
  174SAPI  H18S19770   5.012   5.438   8.461 -0.1783 -1.2852  2.3587
  174SAPI  C21919771   5.129   5.278   8.355 -0.1404 -0.0721  0.5548
  174SAPI  H19R19772   5.154   5.172   8.376 -2.4110 -0.9310 -0.8082
  174SAPI  H19S19773   5.218   5.340   8.332  0.4851 -0.3481  2.1915
  174SAPI  C22019774   5.029   5.282   8.234  0.4241  0.6557 -0.6711
  174SAPI  H20R19775   5.082   5.246   8.143  1.0814  0.2603 -0.1362
  174SAPI  H20S19776   4.996   5.388   8.229  1.0962  0.8598 -0.7556
  174SAPI  H20T19777   4.939   5.221   8.260  0.5620  0.1271 -1.4323
  174SAPI   C3319778   4.261   5.253   9.528  0.2776 -0.4289  0.6496
  174SAPI   H3X19779   4.226   5.200   9.619  2.1773 -0.6553  1.2684
  174SAPI   H3Y19780   4.336   5.183   9.483  0.9451  1.8275 -1.9067
  174SAPI   C3419781   4.148   5.271   9.430 -0.0138  0.4214  0.2441
  174SAPI   H4X19782   4.118   5.173   9.386  1.9034 -1.1440  2.3050
  174SAPI   H4Y19783   4.187   5.329   9.344  0.4937  1.0393  0.8868
  174SAPI   C3519784   4.021   5.345   9.473  0.0952 -0.6613 -0.2698
  174SAPI   H5X19785   4.040   5.441   9.525  0.8952 -1.2497  0.5297
  174SAPI   H5Y19786   3.948   5.283   9.530  1.5823 -0.3831  2.0205
  174SAPI   C3619787   3.935   5.381   9.345  0.2051 -0.5044 -0.5505
  174SAPI   H6X19788   3.913   5.287   9.290 -1.7232 -1.1711  1.2847
  174SAPI   H6Y19789   4.000   5.433   9.271  2.2366 -1.6672  0.3670
  174SAPI   C3719790   3.804   5.446   9.375 -0.0014 -0.4717 -0.1194
  174SAPI   H7X19791   3.831   5.554   9.380 -0.0623 -0.4258 -0.7359
  174SAPI   H7Y19792   3.758   5.411   9.470  0.1742  0.8380  0.4601
  174SAPI   C3819793   3.695   5.428   9.266  0.1744  0.3771 -0.1140
  174SAPI   H8X19794   3.661   5.324   9.284  1.1169  0.0866 -0.0303
  174SAPI   H8Y19795   3.751   5.418   9.170  1.2264  1.2635  0.3940
  174SAPI   C3919796   3.598   5.547   9.258  0.0009  0.7323 -0.7468
  174SAPI   H9X19797   3.654   5.643   9.261  0.9832  0.2476 -2.9341
  174SAPI   H9Y19798   3.532   5.540   9.348  1.1094  2.3848  0.2205
  174SAPI  C31019799   3.508   5.552   9.135  0.9033 -0.2832  0.4561
  174SAPI  H10X19800   3.463   5.652   9.119 -1.0610 -1.1439  0.4020
  174SAPI  H10Y19801   3.424   5.486   9.165 -0.1600  1.2686  0.9393
  174SAPI  C31119802   3.565   5.510   9.002  0.1325  0.4453 -0.0672
  174SAPI  H11X19803   3.479   5.508   8.932  0.3577  0.6291 -0.3543
  174SAPI  H11Y19804   3.622   5.416   9.015  2.0144  1.8464  2.1828
  174SAPI  C31219805   3.664   5.615   8.939 -0.1498 -0.3985  0.2343
  174SAPI  H12X19806   3.721   5.568   8.856  0.8224 -4.0807  2.8436
  174SAPI  H12Y19807   3.746   5.645   9.008 -0.8479  2.2738 -0.0198
  174SAPI  C31319808   3.606   5.746   8.879  1.1843  0.1207 -0.5720
  174SAPI  H13X19809   3.583   5.818   8.961  2.2716 -0.3656  0.1694
  174SAPI  H13Y19810   3.510   5.712   8.836  0.3139  0.0168  1.4313
  174SAPI  C31419811   3.702   5.814   8.788 -0.0153  0.1418  0.1616
  174SAPI  H14X19812   3.747   5.743   8.716  2.1230  1.0014  0.6011
  174SAPI  H14Y19813   3.792   5.842   8.847  1.8459 -2.7219 -1.2258
  174SAPI  C31519814   3.655   5.941   8.715  0.2247  0.0143 -0.0236
  174SAPI  H15X19815   3.592   6.007   8.777  1.1310  1.0811 -0.2124
  174SAPI  H15Y19816   3.579   5.900   8.645 -0.9808 -0.2484  1.4332
  174SAPI  C31619817   3.771   5.997   8.637 -0.1139 -0.2175  0.3341
  174SAPI  H16X19818   3.838   5.920   8.593  1.0916 -0.4182  2.4273
  174SAPI  H16Y19819   3.822   6.070   8.705  0.3413 -0.2987  0.0827
  174SAPI  C31719820   3.736   6.082   8.504 -0.4901  0.1276 -0.7383
  174SAPI  H17X19821   3.653   6.027   8.455  0.3757 -0.5129 -1.4735
  174SAPI  H17Y19822   3.818   6.077   8.430  0.6419 -0.8802  0.5505
  174SAPI  C31819823   3.697   6.233   8.530  0.0131  0.2589  0.2156
  174SAPI  H18X19824   3.619   6.258   8.605  0.1416 -2.6059  1.3823
  174SAPI  H18Y19825   3.661   6.284   8.438  1.2040 -0.5476 -0.7141
  174SAPI  H18Z19826   3.784   6.277   8.582  0.4311  0.2499 -0.4713
  175SAPI   C1219827   1.322   3.519   5.906 -0.2192  0.0396  0.3210
  175SAPI    H219828   1.406   3.591   5.920  1.0749 -1.1478 -1.0988
  175SAPI    O219829   1.259   3.487   6.029 -0.0359 -0.0821  0.2138
  175SAPI   HO219830   1.329   3.461   6.089  0.6695 -1.7073 -1.2933
  175SAPI   C1319831   1.227   3.589   5.808 -0.8883  0.0700 -0.5236
  175SAPI    H319832   1.279   3.628   5.718  1.6794 -0.2739  0.7514
  175SAPI    O319833   1.170   3.701   5.864 -0.1887  0.2677  0.8810
  175SAPI   HO319834   1.150   3.675   5.954 -1.2812 -2.2880 -0.0523
  175SAPI   C1419835   1.124   3.486   5.757  0.3402  0.3800 -0.3653
  175SAPI    H419836   1.061   3.449   5.840 -2.5379  1.3595 -2.0271
  175SAPI    O419837   1.030   3.553   5.670 -0.6289 -0.1475 -0.1717
  175SAPI   HO419838   1.021   3.643   5.701  1.2797  0.2163 -0.6177
  175SAPI   C1519839   1.195   3.367   5.694  0.2889  0.5699  0.2696
  175SAPI    H519840   1.264   3.404   5.615 -0.3573  2.0191  0.3659
  175SAPI    O519841   1.094   3.279   5.641 -0.1806  0.2412 -0.2769
  175SAPI   HO519842   1.104   3.274   5.545 -0.0444  1.0784 -0.3109
  175SAPI   C1619843   1.289   3.293   5.795  0.5781 -0.4339  0.0667
  175SAPI    H619844   1.232   3.257   5.883 -0.4887  0.7768 -0.1154
  175SAPI    O619845   1.355   3.179   5.734  0.2887 -0.3060 -0.2845
  175SAPI   HO619846   1.368   3.115   5.804  0.5367 -0.5962 -0.5976
  175SAPI   C1119847   1.391   3.395   5.844  0.0809  0.5159  0.1356
  175SAPI    H119848   1.447   3.434   5.756 -1.2210  1.2712 -0.3660
  175SAPI     P19849   1.656   3.367   5.911  0.1191 -0.0003  0.0358
  175SAPI   O1319850   1.666   3.502   5.855 -0.0747 -0.0786  0.0589
  175SAPI   O1419851   1.727   3.257   5.834 -0.0903  0.5580 -0.1922
  175SAPI   O1219852   1.491   3.334   5.934  0.4264  0.0988 -0.2000
  175SAPI   O1119853   1.712   3.370   6.068 -0.0834 -0.1332  0.1638
  175SAPI    C119854   1.718   3.238   6.131 -0.1323  0.2635  0.7790
  175SAPI    HA19855   1.724   3.156   6.056  0.0797  0.8508  0.1480
  175SAPI    HB19856   1.815   3.240   6.185 -0.4070  0.6641  1.2692
  175SAPI    C219857   1.599   3.209   6.237 -0.0166 -0.0650 -0.6604
  175SAPI    HS19858   1.498   3.221   6.193 -0.1481 -0.0001 -0.3400
  175SAPI   O2119859   1.596   3.305   6.342  0.0747  0.2017  0.4376
  175SAPI   C2119860   1.516   3.411   6.324  1.1516  0.4537  0.4164
  175SAPI   O2219861   1.448   3.436   6.231 -0.0437  0.2110 -0.1763
  175SAPI   C2219862   1.529   3.503   6.450 -0.0534  0.4674 -0.0663
  175SAPI   H2R19863   1.574   3.597   6.412  2.1298  0.2802  1.9394
  175SAPI   H2S19864   1.424   3.524   6.479 -0.3784  2.1522 -2.2458
  175SAPI    C319865   1.622   3.068   6.293  0.4436 -0.3358 -0.0051
  175SAPI    HX19866   1.724   3.072   6.335 -0.0599 -0.1488  1.2075
  175SAPI    HY19867   1.614   2.993   6.211  1.2618  0.8505 -1.2009
  175SAPI   O3119868   1.529   3.037   6.397  0.1712  0.5900  0.2861
  175SAPI   C3119869   1.394   3.032   6.379  0.1088 -0.2817  0.4413
  175SAPI   O3219870   1.337   3.059   6.270 -0.5933  0.0962  0.1285
  175SAPI   C3219871   1.327   2.969   6.505  0.5251  0.0751  0.1307
  175SAPI   H2X19872   1.257   2.892   6.467  1.3211 -1.8945  2.5159
  175SAPI   H2Y19873   1.273   3.060   6.541  0.0526  0.2859 -1.0870
  175SAPI   C2319874   1.594   3.443   6.579  0.1125 -1.0818  0.8343
  175SAPI   H3R19875   1.695   3.406   6.553  0.2242 -0.9555  1.0900
  175SAPI   H3S19876   1.531   3.360   6.617 -0.6381 -0.5650  0.7279
  175SAPI   C2419877   1.618   3.550   6.686 -0.1445  0.4766 -0.3161
  175SAPI   H4R19878   1.650   3.640   6.628 -0.8416  0.6860 -0.3857
  175SAPI   H4S19879   1.694   3.503   6.751 -1.6453  0.6559  1.6142
  175SAPI   C2519880   1.508   3.606   6.773 -0.4178 -0.0502  0.3751
  175SAPI   H5R19881   1.417   3.637   6.719 -1.9633  0.2943  3.0814
  175SAPI   C2619882   1.509   3.620   6.904  0.3369  0.5863 -0.4204
  175SAPI   H6R19883   1.424   3.677   6.943 -0.9562 -1.8588  0.4388
  175SAPI   C2719884   1.618   3.584   6.999  0.7120  0.8356 -0.1313
  175SAPI   H7R19885   1.717   3.581   6.949 -0.9781 -0.9880 -3.5255
  175SAPI   H7S19886   1.603   3.478   7.031 -0.8914  0.2297 -2.7615
  175SAPI   C2819887   1.626   3.671   7.116  0.5224  1.2138  0.4129
  175SAPI   H8R19888   1.590   3.772   7.096 -0.4327  1.0472  1.2653
  175SAPI   C2919889   1.662   3.636   7.247 -0.5738 -0.4963 -0.1418
  175SAPI   H9R19890   1.646   3.725   7.310 -0.7628 -0.6381  0.0113
  175SAPI  C21019891   1.696   3.504   7.301  0.1399 -0.0262  0.6861
  175SAPI  H10R19892   1.796   3.516   7.348  0.0195 -3.3363  1.9045
  175SAPI  H10S19893   1.690   3.424   7.224 -0.6303 -0.1546  0.8714
  175SAPI  C21119894   1.603   3.453   7.401 -0.5532  1.2792 -0.2875
  175SAPI  H11R19895   1.496   3.478   7.400 -0.9894 -0.5233 -0.2706
  175SAPI  C21219896   1.639   3.380   7.508  0.6447 -0.1546 -0.6288
  175SAPI  H12R19897   1.566   3.335   7.577 -0.4403  3.2009  0.5111
  175SAPI  C21319898   1.776   3.342   7.541 -0.5761 -0.0187 -0.1528
  175SAPI  H13R19899   1.845   3.341   7.454  2.2312  0.5753  1.9998
  175SAPI  H13S19900   1.778   3.238   7.581 -1.3413 -0.7236 -1.8912
  175SAPI  C21419901   1.834   3.435   7.638 -0.0579  0.3748  0.0928
  175SAPI  H14R19902   1.872   3.525   7.588 -1.0467  0.5047 -0.4371
  175SAPI  C21519903   1.862   3.412   7.768  0.3393  0.2430 -0.5028
  175SAPI  H15R19904   1.910   3.494   7.823 -0.4639  0.5263 -0.2118
  175SAPI  C21619905   1.843   3.283   7.843  0.0795 -0.5189  0.7082
  175SAPI  H16R19906   1.940   3.231   7.832 -0.1290 -0.1947 -3.3202
  175SAPI  H16S19907   1.758   3.229   7.795  0.5921 -0.4062 -0.3463
  175SAPI  C21719908   1.803   3.289   7.990  0.4877  1.1764  0.1867
  175SAPI  H17R19909   1.694   3.309   7.985  0.0443 -1.1569  0.0954
  175SAPI  H17S19910   1.854   3.376   8.037  0.3436  0.7592  1.1383
  175SAPI  C21819911   1.814   3.156   8.067  0.0638 -0.1757 -0.1688
  175SAPI  H18R19912   1.922   3.140   8.087  0.8420  2.6361 -1.8759
  175SAPI  H18S19913   1.793   3.073   7.995  0.9348  0.9028 -1.6867
  175SAPI  C21919914   1.715   3.150   8.182 -0.3260 -0.0572  0.4786
  175SAPI  H19R19915   1.613   3.146   8.138 -0.4789  0.0465  0.8236
  175SAPI  H19S19916   1.717   3.239   8.249  0.8604 -0.3213  0.8034
  175SAPI  C22019917   1.716   3.024   8.270  0.2237 -0.7533  0.4645
  175SAPI  H20R19918   1.706   2.930   8.212 -1.2430 -1.4044  1.7062
  175SAPI  H20S19919   1.633   3.027   8.344  1.2094  0.8770  1.5410
  175SAPI  H20T19920   1.808   3.011   8.332 -0.2234  0.5071  1.4103
  175SAPI   C3319921   1.420   2.912   6.617 -0.2109 -0.3182 -0.2895
  175SAPI   H3X19922   1.499   2.983   6.648  0.5043 -2.3250  2.6627
  175SAPI   H3Y19923   1.473   2.819   6.588  1.2586  0.3196  0.3281
  175SAPI   C3419924   1.337   2.879   6.742  0.2886 -0.2288  0.4771
  175SAPI   H4X19925   1.244   2.822   6.725 -0.4011  0.7886  0.7841
  175SAPI   H4Y19926   1.296   2.972   6.787 -0.6361 -0.5603  0.3185
  175SAPI   C3519927   1.431   2.819   6.846 -0.2115  0.8016  0.2162
  175SAPI   H5X19928   1.399   2.874   6.937 -1.3826 -0.3878  0.5375
  175SAPI   H5Y19929   1.534   2.857   6.830 -0.3389  0.9464 -0.2687
  175SAPI   C3619930   1.426   2.667   6.860 -0.0006 -0.2186 -0.4284
  175SAPI   H6X19931   1.489   2.633   6.776  1.1247 -0.0243  0.3200
  175SAPI   H6Y19932   1.319   2.636   6.851  0.0371 -0.4767 -0.0427
  175SAPI   C3719933   1.484   2.592   6.982 -0.3687 -0.1981 -0.5841
  175SAPI   H7X19934   1.590   2.621   6.994 -0.2910 -0.5369 -0.4351
  175SAPI   H7Y19935   1.481   2.482   6.963  0.8784 -0.1151 -1.3133
  175SAPI   C3819936   1.411   2.637   7.108 -0.3646  0.6587 -0.0984
  175SAPI   H8X19937   1.300   2.637   7.097 -0.6716 -1.1104  2.6980
  175SAPI   H8Y19938   1.444   2.742   7.122 -0.9310  0.9809 -1.0759
  175SAPI   C3919939   1.453   2.566   7.242 -0.1007  0.5140 -0.5044
  175SAPI   H9X19940   1.564   2.556   7.248 -0.1526 -0.5877 -1.1690
  175SAPI   H9Y19941   1.423   2.459   7.241 -0.5185  0.6180  0.2574
  175SAPI  C31019942   1.400   2.635   7.367 -0.6273  0.2271  0.1010
  175SAPI  H10X19943   1.291   2.630   7.387 -0.3411 -1.0655  1.4869
  175SAPI  H10Y19944   1.436   2.739   7.373  1.7847 -0.6630  2.0942
  175SAPI  C31119945   1.455   2.574   7.501 -0.4532 -0.2274  0.0932
  175SAPI  H11X19946   1.565   2.566   7.510 -0.0302  1.8439 -2.6972
  175SAPI  H11Y19947   1.419   2.469   7.513  2.4484 -1.4556 -1.5150
  175SAPI  C31219948   1.406   2.652   7.624  0.6594  0.2690  0.3552
  175SAPI  H12X19949   1.296   2.659   7.614  0.7004 -0.7571 -1.0238
  175SAPI  H12Y19950   1.450   2.754   7.623  0.5778  0.3240  1.3163
  175SAPI  C31319951   1.446   2.585   7.755  0.6996 -0.2173  0.4545
  175SAPI  H13X19952   1.557   2.577   7.751  0.6966  0.0608 -0.1559
  175SAPI  H13Y19953   1.422   2.476   7.749  3.5935 -0.8706 -0.1558
  175SAPI  C31419954   1.410   2.667   7.875  0.4367 -0.4381  0.3070
  175SAPI  H14X19955   1.437   2.774   7.863  2.6005 -1.1126 -1.1244
  175SAPI  H14Y19956   1.476   2.621   7.952 -1.1390 -2.5257  0.4616
  175SAPI  C31519957   1.263   2.659   7.931  0.9809 -0.1591  0.3888
  175SAPI  H15X19958   1.224   2.555   7.937  0.2947 -0.0278 -1.5069
  175SAPI  H15Y19959   1.201   2.705   7.851  1.2963  1.7787  1.2399
  175SAPI  C31619960   1.249   2.731   8.062  0.3852 -0.2134 -0.1159
  175SAPI  H16X19961   1.316   2.680   8.134  0.5705  0.4471  0.1786
  175SAPI  H16Y19962   1.141   2.715   8.081  0.5510  0.6605  1.6436
  175SAPI  C31719963   1.261   2.884   8.041 -0.1051  0.4011 -0.7836
  175SAPI  H17X19964   1.199   2.910   7.952  0.1767  0.9584 -0.8210
  175SAPI  H17Y19965   1.362   2.922   8.014  0.5891 -0.4716  0.5471
  175SAPI  C31819966   1.211   2.956   8.170 -0.1287 -0.1220  0.7788
  175SAPI  H18X19967   1.226   3.066   8.163  1.7757 -0.5074 -3.3864
  175SAPI  H18Y19968   1.277   2.919   8.251  1.0678 -3.2014 -1.4850
  175SAPI  H18Z19969   1.110   2.920   8.198 -0.2672  1.8603  2.9811
  176SAPI   C1219970   1.147   1.748   5.705 -0.0850  0.3158  0.7038
  176SAPI    H219971   1.228   1.715   5.773  1.1340  2.5196  0.3803
  176SAPI    O219972   1.157   1.889   5.703  0.4494 -0.0383 -0.1311
  176SAPI   HO219973   1.119   1.919   5.786  3.1722  1.2566  0.7104
  176SAPI   C1319974   1.203   1.692   5.569  0.4615  0.4355 -0.2235
  176SAPI    H319975   1.219   1.582   5.570 -2.7575 -0.0664  1.1733
  176SAPI    O319976   1.336   1.752   5.551 -0.1013  0.7173  0.7077
  176SAPI   HO319977   1.338   1.831   5.605 -1.6500  1.1705  0.1287
  176SAPI   C1419978   1.111   1.741   5.455 -0.6760  0.5938 -0.7340
  176SAPI    H419979   1.107   1.852   5.450 -0.5003  0.6050 -0.6403
  176SAPI    O419980   1.161   1.685   5.333  0.5979 -0.4819  0.4146
  176SAPI   HO419981   1.173   1.753   5.267 -0.8449 -0.2650  0.3529
  176SAPI   C1519982   0.964   1.697   5.478  0.4119 -0.8736 -0.3157
  176SAPI    H519983   0.954   1.587   5.482 -2.3644 -0.6353  0.5087
  176SAPI    O519984   0.881   1.736   5.372  0.2161  0.6214 -0.0342
  176SAPI   HO519985   0.872   1.658   5.318 -1.0427  1.0516 -0.4484
  176SAPI   C1619986   0.910   1.747   5.618  0.1013 -1.1497  0.3681
  176SAPI    H619987   0.910   1.858   5.611 -1.0909 -1.1676 -0.0891
  176SAPI    O619988   0.776   1.706   5.629  0.3072  0.5249 -0.2325
  176SAPI   HO619989   0.736   1.776   5.681 -3.5211 -0.9473 -1.0220
  176SAPI   C1119990   1.009   1.699   5.732  0.5916  0.5339  0.3928
  176SAPI    H119991   1.003   1.588   5.735  0.6157  0.5686  1.9676
  176SAPI     P19992   0.929   1.659   5.982 -0.4299 -0.2019  0.5124
  176SAPI   O1319993   0.906   1.517   5.947 -0.2148 -0.1775  0.7651
  176SAPI   O1419994   0.829   1.726   6.065 -0.8770 -0.2253 -0.7308
  176SAPI   O1219995   0.961   1.754   5.857  0.1290 -0.3429  0.0795
  176SAPI   O1119996   1.061   1.657   6.059  0.2912  0.0560  0.1656
  176SAPI    C119997   1.134   1.776   6.084 -0.2852 -1.1498 -0.2016
  176SAPI    HA19998   1.157   1.832   5.990  2.7220  1.9372  2.2312
  176SAPI    HB19999   1.080   1.838   6.158  1.7521 -1.3222  1.4773
  176SAPI    C220000   1.280   1.759   6.143  0.5396 -0.5610  0.2408
  176SAPI    HS20001   1.343   1.715   6.063  0.9140 -1.1670  0.8692
  176SAPI   O2120002   1.266   1.681   6.266 -0.3871  0.4249 -0.3352
  176SAPI   C2120003   1.294   1.551   6.251 -0.2060 -0.1412  0.4024
  176SAPI   O2220004   1.290   1.495   6.142 -0.1755 -0.1021  0.1001
  176SAPI   C2220005   1.336   1.486   6.380  0.6814 -0.4947  0.0312
  176SAPI   H2R20006   1.447   1.486   6.382  0.7155 -0.3133 -1.5174
  176SAPI   H2S20007   1.296   1.538   6.470 -1.5290 -0.0235 -1.1820
  176SAPI    C320008   1.341   1.900   6.179 -0.5279 -0.3419  0.0267
  176SAPI    HX20009   1.302   1.935   6.277 -1.2906  0.8984 -0.7043
  176SAPI    HY20010   1.317   1.976   6.102 -2.3530  0.8728  1.7269
  176SAPI   O3120011   1.487   1.900   6.188 -0.0604  0.3321 -0.7506
  176SAPI   C3120012   1.557   1.930   6.077 -0.5639  1.0409  0.8549
  176SAPI   O3220013   1.507   1.956   5.968  0.8621 -0.3146 -0.1533
  176SAPI   C3220014   1.710   1.898   6.099 -0.8728 -0.1559  0.0301
  176SAPI   H2X20015   1.745   1.871   5.998 -2.9253  1.4374 -1.1477
  176SAPI   H2Y20016   1.725   1.817   6.173  0.5839  1.1703  1.2299
  176SAPI   C2320017   1.301   1.337   6.384  0.2732 -0.2331  0.3157
  176SAPI   H3R20018   1.352   1.270   6.312 -0.5964  0.1382 -0.6480
  176SAPI   H3S20019   1.193   1.325   6.363  0.2133 -0.2806  0.6438
  176SAPI   C2420020   1.339   1.271   6.522 -0.7460  0.9654 -0.5079
  176SAPI   H4R20021   1.287   1.173   6.535  0.3694  0.1734 -1.9532
  176SAPI   H4S20022   1.283   1.331   6.598 -3.1036 -0.2640 -1.2115
  176SAPI   C2520023   1.488   1.268   6.539 -0.5820  0.6421 -0.3501
  176SAPI   H5R20024   1.538   1.250   6.443 -0.0490  2.5946 -0.4613
  176SAPI   C2620025   1.561   1.300   6.646 -0.5738  0.1454  0.0377
  176SAPI   H6R20026   1.668   1.274   6.641 -1.0035 -1.3746 -1.8334
  176SAPI   C2720027   1.503   1.349   6.770 -0.5090  0.3192 -0.2545
  176SAPI   H7R20028   1.417   1.289   6.808 -0.9912  1.4875  0.5627
  176SAPI   H7S20029   1.462   1.449   6.742 -2.5087 -0.0692  1.1593
  176SAPI   C2820030   1.599   1.358   6.889 -0.0254  0.5980 -0.1270
  176SAPI   H8R20031   1.663   1.269   6.894 -0.5627  0.2612  0.9676
  176SAPI   C2920032   1.611   1.455   6.985 -0.6856  0.3827 -0.4682
  176SAPI   H9R20033   1.699   1.444   7.051 -2.3323  0.6117  1.8007
  176SAPI  C21020034   1.527   1.579   6.986 -0.1255  0.1067 -0.1439
  176SAPI  H10R20035   1.422   1.541   6.984 -0.0167 -0.1406 -1.6080
  176SAPI  H10S20036   1.543   1.638   6.893 -0.3877  1.3273  0.5685
  176SAPI  C21120037   1.559   1.664   7.105  0.1263  0.6093  0.2410
  176SAPI  H11R20038   1.622   1.752   7.085  1.9281 -0.9671 -1.1587
  176SAPI  C21220039   1.500   1.644   7.217  0.2125  0.1311  0.2463
  176SAPI  H12R20040   1.540   1.703   7.301  0.8872 -0.3844  0.2906
  176SAPI  C21320041   1.398   1.543   7.256  0.6752 -0.1106  0.1164
  176SAPI  H13R20042   1.381   1.464   7.179  0.3929 -0.6715  0.7405
  176SAPI  H13S20043   1.300   1.595   7.263  0.7407  0.3139 -1.8718
  176SAPI  C21420044   1.434   1.451   7.372  0.5758  0.7543  0.2892
  176SAPI  H14R20045   1.435   1.344   7.346 -3.2307  1.2897 -2.4694
  176SAPI  C21520046   1.435   1.476   7.504 -0.1649 -0.6061 -0.1644
  176SAPI  H15R20047   1.458   1.390   7.568  0.5609  1.3514  2.2769
  176SAPI  C21620048   1.407   1.611   7.570  0.9427 -0.0501  0.1816
  176SAPI  H16R20049   1.298   1.630   7.580  1.0764  1.1818 -0.5106
  176SAPI  H16S20050   1.436   1.702   7.513  1.4859 -1.1124 -1.2616
  176SAPI  C21720051   1.463   1.634   7.714 -0.1045 -0.0068  1.1393
  176SAPI  H17R20052   1.449   1.538   7.769  0.0450 -0.5712  0.2031
  176SAPI  H17S20053   1.417   1.726   7.756  1.0891  1.5965 -0.9541
  176SAPI  C21820054   1.618   1.654   7.721 -0.1576  0.0058  0.9051
  176SAPI  H18R20055   1.629   1.731   7.641 -0.7720 -1.1456 -0.3165
  176SAPI  H18S20056   1.660   1.556   7.690 -1.3259 -0.0065 -0.7760
  176SAPI  C21920057   1.674   1.695   7.859  0.7764  0.7257 -0.3838
  176SAPI  H19R20058   1.632   1.795   7.885 -2.0466 -0.5810  0.2299
  176SAPI  H19S20059   1.785   1.688   7.859  0.6035 -3.1126 -1.5090
  176SAPI  C22020060   1.623   1.610   7.979  0.0174 -0.6998 -0.8462
  176SAPI  H20R20061   1.632   1.507   7.938 -0.2813  0.0386 -2.8257
  176SAPI  H20S20062   1.514   1.624   7.998  0.1061  0.5934 -1.2024
  176SAPI  H20T20063   1.665   1.622   8.081 -1.7687 -1.6221  0.0092
  176SAPI   C3320064   1.795   2.021   6.143  0.2851 -0.7222 -0.1863
  176SAPI   H3X20065   1.747   2.049   6.239  0.1465 -1.2043 -0.1136
  176SAPI   H3Y20066   1.795   2.104   6.069  0.1907 -0.3464  0.2368
  176SAPI   C3420067   1.940   2.002   6.165 -0.1478  0.6494  0.5376
  176SAPI   H4X20068   1.990   2.096   6.133 -0.4600  0.3826 -0.7484
  176SAPI   H4Y20069   1.975   1.916   6.104  1.3627  1.4694  0.2287
  176SAPI   C3520070   1.984   1.955   6.300  0.1081 -0.3441  0.5268
  176SAPI   H5X20071   2.094   1.937   6.303  0.0645 -0.6246  0.4570
  176SAPI   H5Y20072   1.944   1.856   6.331  0.9478 -1.0813 -0.7173
  176SAPI   C3620073   1.950   2.052   6.422  0.5905  0.2075 -0.2495
  176SAPI   H6X20074   1.858   2.111   6.405 -1.2542 -2.2203  0.9191
  176SAPI   H6Y20075   2.046   2.109   6.420  0.0683  1.0745 -0.4779
  176SAPI   C3720076   1.937   1.994   6.562 -0.5253 -0.1564  0.2884
  176SAPI   H7X20077   2.040   1.960   6.583 -1.0709 -1.7078  0.5439
  176SAPI   H7Y20078   1.871   1.905   6.564 -2.1067  0.9519 -0.8275
  176SAPI   C3820079   1.889   2.102   6.659 -0.5378 -0.1025 -0.7425
  176SAPI   H8X20080   1.799   2.155   6.621 -3.0191  0.0745  4.8319
  176SAPI   H8Y20081   1.976   2.171   6.658  0.0917 -0.8934 -1.1798
  176SAPI   C3920082   1.865   2.057   6.803 -0.3329  0.1352  0.6384
  176SAPI   H9X20083   1.955   2.000   6.835 -0.9698 -2.0243 -1.3237
  176SAPI   H9Y20084   1.776   1.991   6.798  0.4774 -0.9068 -0.3958
  176SAPI  C31020085   1.839   2.173   6.894  0.0674 -0.1827  0.7266
  176SAPI  H10X20086   1.757   2.242   6.867  0.7941 -0.0784 -1.2797
  176SAPI  H10Y20087   1.922   2.244   6.913 -1.7996  1.8565  1.4251
  176SAPI  C31120088   1.801   2.124   7.040 -0.5034  0.7770  0.2260
  176SAPI  H11X20089   1.890   2.086   7.095 -1.4002 -0.3283  0.9523
  176SAPI  H11Y20090   1.727   2.041   7.035  0.3995  0.0512 -1.4280
  176SAPI  C31220091   1.737   2.227   7.125 -0.1299 -0.1688  0.3185
  176SAPI  H12X20092   1.657   2.282   7.070  0.2787 -0.4999 -0.6181
  176SAPI  H12Y20093   1.821   2.293   7.154 -0.6752  0.0061  1.5097
  176SAPI  C31320094   1.676   2.173   7.256 -0.4259 -0.0188 -0.2090
  176SAPI  H13X20095   1.608   2.086   7.245 -0.1065 -0.0010 -2.5914
  176SAPI  H13Y20096   1.609   2.257   7.286 -0.4587 -0.1453  0.0704
  176SAPI  C31420097   1.789   2.134   7.352  0.0828  0.6186 -0.6565
  176SAPI  H14X20098   1.850   2.223   7.378 -0.0675  0.9157 -1.3348
  176SAPI  H14Y20099   1.847   2.050   7.308  1.5833  1.1808  0.1901
  176SAPI  C31520100   1.734   2.072   7.489  0.6381  0.7971  0.3064
  176SAPI  H15X20101   1.673   1.983   7.460 -0.5472  1.6227  0.2396
  176SAPI  H15Y20102   1.652   2.143   7.512 -1.3023 -1.0380 -0.7845
  176SAPI  C31620103   1.853   2.049   7.584 -0.4502  0.0062 -0.0291
  176SAPI  H16X20104   1.930   1.988   7.533  1.1840  2.6679 -0.8413
  176SAPI  H16Y20105   1.819   1.993   7.674  1.7909 -2.7950 -0.8505
  176SAPI  C31720106   1.916   2.180   7.637  0.1148  0.1602  0.2273
  176SAPI  H17X20107   1.959   2.245   7.558 -0.1555 -1.3687 -1.2114
  176SAPI  H17Y20108   2.007   2.141   7.688 -1.4833 -2.5366  1.1005
  176SAPI  C31820109   1.840   2.250   7.745  0.6875  0.4549 -1.0102
  176SAPI  H18X20110   1.751   2.295   7.697  0.5444  1.9167  0.5457
  176SAPI  H18Y20111   1.903   2.320   7.805 -0.1636  0.4568 -0.1041
  176SAPI  H18Z20112   1.806   2.171   7.815 -0.2097 -0.6965 -2.7396
  177SLPC     N20113   5.069   4.971  10.073 -0.2063 -0.1262  0.4886
  177SLPC   C1320114   5.139   4.835  10.062 -0.1528  0.4176 -1.1477
  177SLPC  H13A20115   5.160   4.803  10.163 -0.0184 -0.4302 -1.4454
  177SLPC  H13B20116   5.081   4.765  10.003  0.3933 -1.5093  0.5535
  177SLPC  H13C20117   5.233   4.845  10.009 -0.2541  1.3654 -1.1522
  177SLPC   C1420118   5.155   5.044  10.172  0.0875  0.2819  0.1096
  177SLPC  H14A20119   5.260   5.045  10.146 -0.8887  1.8883 -4.1827
  177SLPC  H14B20120   5.125   5.146  10.189 -2.0256 -0.5288  1.4573
  177SLPC  H14C20121   5.142   4.989  10.264 -1.9474 -1.2881 -1.0650
  177SLPC   C1520122   4.930   4.952  10.127 -0.4525 -0.5603 -0.4362
  177SLPC  H15A20123   4.945   4.901  10.221  2.9593  1.0285 -0.0347
  177SLPC  H15B20124   4.894   5.047  10.164  1.0951  0.2206 -0.8930
  177SLPC  H15C20125   4.861   4.894  10.067 -0.2023 -1.0173 -0.2810
  177SLPC   C1220126   5.063   5.038   9.943 -0.3759 -0.1268  0.1436
  177SLPC  H12A20127   5.006   5.130   9.947  1.1871  0.9115 -0.8984
  177SLPC  H12B20128   5.005   4.981   9.872 -1.8979  1.5316 -0.0012
  177SLPC   C1120129   5.197   5.063   9.872 -0.6156  0.1362  0.1041
  177SLPC  H11A20130   5.273   5.088   9.949  1.0127 -1.4644 -0.9499
  177SLPC  H11B20131   5.174   5.157   9.818 -2.7099 -0.0790  0.5681
  177SLPC     P20132   5.166   4.918   9.668  0.2644  0.1350 -0.2422
  177SLPC   O1320133   5.207   4.780   9.631 -0.5227 -0.1443  0.5108
  177SLPC   O1420134   5.023   4.949   9.685 -0.5882  0.2803 -0.6149
  177SLPC   O1220135   5.249   4.952   9.798  0.3801 -0.0994  0.3176
  177SLPC   O1120136   5.229   5.028   9.573 -0.4565 -0.5027 -0.3052
  177SLPC    C120137   5.205   5.038   9.431  0.0343 -0.1924  0.0136
  177SLPC    HA20138   5.097   5.015   9.417 -0.7627  1.6920  2.7581
  177SLPC    HB20139   5.223   5.143   9.402  1.8133  0.0207  1.7455
  177SLPC    C220140   5.291   4.945   9.342 -0.3809 -0.1566  0.0999
  177SLPC    HS20141   5.356   4.887   9.412  0.9931  0.9865 -0.2173
  177SLPC   O2120142   5.377   5.022   9.254  0.5312  0.2861 -0.3389
  177SLPC   C2120143   5.468   5.092   9.318  0.2976  0.3341  0.2339
  177SLPC   O2220144   5.492   5.093   9.437 -0.3348 -0.1048 -0.4160
  177SLPC   C2220145   5.550   5.166   9.212 -0.1781 -0.5344  0.5601
  177SLPC   H2R20146   5.617   5.091   9.165 -0.1971 -1.6971  2.3308
  177SLPC   H2S20147   5.481   5.213   9.139  1.9985  0.3900 -0.9795
  177SLPC    C320148   5.202   4.857   9.255 -0.7484  0.2913 -0.5994
  177SLPC    HX20149   5.155   4.791   9.332 -2.7178  2.6915  0.3153
  177SLPC    HY20150   5.271   4.801   9.190  0.7081  0.6708  0.5966
  177SLPC   O3120151   5.099   4.926   9.177  0.0363 -0.4718  0.1762
  177SLPC   C3120152   5.036   4.852   9.087  0.0649 -0.3232  0.5639
  177SLPC   O3220153   5.051   4.732   9.083 -0.3932  0.1426  0.1851
  177SLPC   C3220154   4.939   4.934   9.003 -0.6988  0.5755 -0.2332
  177SLPC   H2X20155   5.005   5.000   8.942  1.3954 -1.2591 -0.0317
  177SLPC   H2Y20156   4.885   5.003   9.071  0.5406 -1.4933  2.9366
  177SLPC   C2320157   5.647   5.276   9.273 -0.5927  0.4161 -0.1350
  177SLPC   H3R20158   5.719   5.232   9.345  0.2882  2.0879  0.0499
  177SLPC   H3S20159   5.590   5.349   9.334 -2.5118 -1.6592  0.6088
  177SLPC   C2420160   5.714   5.362   9.170  0.2245  0.1198 -0.0164
  177SLPC   H4R20161   5.779   5.430   9.230 -2.2178  1.1779  1.5205
  177SLPC   H4S20162   5.637   5.420   9.115  2.0413  1.6856 -1.0216
  177SLPC   C2520163   5.798   5.295   9.055 -0.3594  0.7939 -0.0091
  177SLPC   H5R20164   5.846   5.379   9.000  1.4583 -0.3081 -0.1606
  177SLPC   H5S20165   5.732   5.231   8.992  0.4917  0.3009 -0.4146
  177SLPC   C2620166   5.910   5.214   9.118 -0.0780  0.3821 -0.2164
  177SLPC   H6R20167   5.866   5.151   9.199  0.9146  0.1530  0.1556
  177SLPC   H6S20168   5.973   5.289   9.171 -0.8560  0.9644 -0.1116
  177SLPC   C2720169   5.991   5.132   9.021  0.6275 -0.4879  0.8530
  177SLPC   H7R20170   5.921   5.074   8.957  0.1342  1.3724 -0.3463
  177SLPC   H7S20171   6.063   5.071   9.080  0.2728 -1.3317  0.4289
  177SLPC   C2820172   6.091   5.220   8.940 -0.4034  0.2169 -0.6386
  177SLPC   H8R20173   6.160   5.272   9.011 -0.3620 -0.4445 -0.1927
  177SLPC   H8S20174   6.034   5.302   8.891 -1.7068 -1.2335 -1.5689
  177SLPC   C2920175   6.154   5.131   8.828  0.0788 -0.2976 -0.6305
  177SLPC   H9R20176   6.169   5.028   8.863 -0.7558  0.2085  1.2726
  177SLPC  C21020177   6.176   5.162   8.703 -0.5189  1.0908 -0.0202
  177SLPC  H10R20178   6.218   5.085   8.636  1.1969  0.4382  1.7658
  177SLPC  C21120179   6.132   5.286   8.631 -0.0332  0.3082  0.2767
  177SLPC  H11R20180   6.080   5.355   8.701  1.3159 -0.0486  1.6519
  177SLPC  H11S20181   6.229   5.333   8.602 -0.5692  0.3689 -1.4506
  177SLPC  C21220182   6.049   5.261   8.509 -0.2424  0.4938 -0.1642
  177SLPC  H12R20183   6.101   5.301   8.421  1.5105 -1.3264 -0.0024
  177SLPC  C21320184   5.917   5.230   8.506 -0.0666  0.2626  0.2923
  177SLPC  H13R20185   5.865   5.199   8.414  0.8712 -0.3653 -0.0333
  177SLPC  C21420186   5.835   5.211   8.626 -0.3472 -0.9774  0.1444
  177SLPC  H14R20187   5.887   5.159   8.710  2.2188  1.1517 -0.0807
  177SLPC  H14S20188   5.751   5.141   8.605 -1.3728 -0.0322  0.9985
  177SLPC  C21520189   5.762   5.332   8.674  0.2379  0.2419  0.2092
  177SLPC  H15R20190   5.827   5.403   8.729  1.9003  0.0118 -1.4080
  177SLPC  H15S20191   5.684   5.303   8.748 -0.7762  0.8821 -0.5996
  177SLPC  C21620192   5.669   5.401   8.574  0.2269  0.0730  0.2492
  177SLPC  H16R20193   5.571   5.421   8.622  0.2304 -1.0564  0.7426
  177SLPC  H16S20194   5.639   5.347   8.482 -0.0835 -0.2243  0.5244
  177SLPC  C21720195   5.727   5.542   8.541 -0.6414  0.1212  0.0221
  177SLPC  H17R20196   5.803   5.532   8.461 -1.3964  1.0502 -0.8153
  177SLPC  H17S20197   5.774   5.583   8.634  0.0557  0.4123 -0.4561
  177SLPC  C21820198   5.617   5.646   8.498 -0.1934  0.2504  0.1059
  177SLPC  H18R20199   5.575   5.629   8.396  1.0135  0.8946 -0.5039
  177SLPC  H18S20200   5.671   5.741   8.480  0.8336 -0.4412 -0.5324
  177SLPC  H18T20201   5.535   5.656   8.572 -1.1882  2.3341 -1.2524
  177SLPC   C3320202   4.845   4.849   8.923  0.6847 -0.0673  0.1521
  177SLPC   H3X20203   4.756   4.912   8.905 -0.0624 -1.5015 -1.3133
  177SLPC   H3Y20204   4.801   4.769   8.987  1.4737  1.0804  2.1991
  177SLPC   C3420205   4.891   4.803   8.785  0.5257 -0.0450 -0.0068
  177SLPC   H4X20206   4.974   4.729   8.785  0.4898 -0.0948  1.2396
  177SLPC   H4Y20207   4.925   4.891   8.726  2.2604 -1.9203 -1.8744
  177SLPC   C3520208   4.783   4.730   8.702  0.4712 -0.1273 -0.2965
  177SLPC   H5X20209   4.691   4.790   8.685  0.9038  0.1591 -1.6976
  177SLPC   H5Y20210   4.749   4.632   8.743 -1.0081 -0.3518 -1.9860
  177SLPC   C3620211   4.842   4.695   8.563  0.5538  0.4855  0.6094
  177SLPC   H6X20212   4.796   4.604   8.519 -2.4443  1.5348  1.4680
  177SLPC   H6Y20213   4.950   4.672   8.581  1.1967  0.7762 -2.6431
  177SLPC   C3720214   4.840   4.809   8.463  0.6143 -0.4416 -0.1099
  177SLPC   H7X20215   4.875   4.908   8.501  3.7867 -1.2912 -0.6375
  177SLPC   H7Y20216   4.732   4.828   8.444  0.6090 -0.6286 -0.2707
  177SLPC   C3820217   4.924   4.776   8.344 -0.1925  0.7301  0.1593
  177SLPC   H8X20218   4.863   4.703   8.286  0.1776  1.3288 -1.0098
  177SLPC   H8Y20219   5.010   4.716   8.380 -0.5336  1.4657  2.2526
  177SLPC   C3920220   4.970   4.897   8.264  0.6013 -0.5173  0.9355
  177SLPC   H9X20221   5.025   4.974   8.324 -0.2646  0.8727 -0.0139
  177SLPC   H9Y20222   4.897   4.966   8.217  0.7040 -0.5510  0.7299
  177SLPC  C31020223   5.048   4.846   8.143 -0.3663  0.3178 -0.5344
  177SLPC  H10X20224   4.981   4.786   8.078 -2.6378 -1.2388  3.0452
  177SLPC  H10Y20225   5.129   4.778   8.181 -0.2141  1.9094  2.1510
  177SLPC  C31120226   5.109   4.956   8.059  0.6178 -0.7841  0.4035
  177SLPC  H11X20227   5.151   5.033   8.126 -1.3823  0.2789  0.4877
  177SLPC  H11Y20228   5.025   4.999   7.998  0.7891 -0.7209  0.2118
  177SLPC  C31220229   5.216   4.897   7.961 -0.5351  0.5352  0.4334
  177SLPC  H12X20230   5.179   4.803   7.915  0.3831 -0.3281  1.4239
  177SLPC  H12Y20231   5.307   4.874   8.021 -0.2085 -1.7029 -0.8306
  177SLPC  C31320232   5.243   4.991   7.840 -0.1098  0.0478  1.1080
  177SLPC  H13X20233   5.141   5.004   7.799  0.0428 -4.7267 -1.0611
  177SLPC  H13Y20234   5.304   4.945   7.759  0.9400 -1.7588  2.8582
  177SLPC  C31420235   5.276   5.138   7.875  0.1039 -0.3115 -0.2129
  177SLPC  H14X20236   5.368   5.139   7.937  0.4124  1.8800 -0.6785
  177SLPC  H14Y20237   5.183   5.167   7.927  0.0681  0.3663 -0.6526
  177SLPC  C31520238   5.293   5.236   7.761  0.4517 -0.4039  0.5123
  177SLPC  H15X20239   5.396   5.237   7.720  0.1481 -0.2423 -0.2572
  177SLPC  H15Y20240   5.282   5.339   7.801  0.0520 -0.6421  1.0353
  177SLPC  C31620241   5.202   5.215   7.640  0.4784 -0.0216  0.8678
  177SLPC  H16X20242   5.103   5.227   7.689 -1.2898  1.5633 -2.9181
  177SLPC  H16Y20243   5.203   5.114   7.595 -1.9867  0.3755 -0.1459
  177SLPC  C31720244   5.213   5.321   7.524 -0.5950  0.5465  0.0632
  177SLPC  H17X20245   5.264   5.411   7.564  2.5512  0.2670 -3.1239
  177SLPC  H17Y20246   5.108   5.337   7.493 -0.3174 -0.9717 -1.7343
  177SLPC  C31820247   5.285   5.255   7.409  0.1269  0.1165 -0.2674
  177SLPC  H18X20248   5.371   5.202   7.455  0.2293  0.9582  0.5336
  177SLPC  H18Y20249   5.311   5.338   7.339 -2.2816  2.5757  1.6534
  177SLPC  H18Z20250   5.223   5.178   7.358  0.9016 -1.3444  0.9986
  178SLPC     N20251   2.268   2.291   9.822 -0.0776  0.0884 -0.3626
  178SLPC   C1320252   2.362   2.396   9.775  0.3911 -0.2399  0.8413
  178SLPC  H13A20253   2.451   2.349   9.734  1.1947  0.8126  1.3492
  178SLPC  H13B20254   2.317   2.471   9.711 -0.7679 -3.7969 -2.6933
  178SLPC  H13C20255   2.401   2.444   9.864  1.7770 -1.4168  0.8894
  178SLPC   C1420256   2.169   2.356   9.909 -0.2624 -0.1914 -0.4544
  178SLPC  H14A20257   2.095   2.285   9.944 -0.8904 -0.1888 -1.7597
  178SLPC  H14B20258   2.218   2.403   9.994 -0.1195  3.0839 -2.2706
  178SLPC  H14C20259   2.121   2.436   9.854 -3.2035 -1.7714 -0.2580
  178SLPC   C1520260   2.341   2.199   9.917 -0.2135 -0.1408  0.0116
  178SLPC  H15A20261   2.396   2.255   9.991  1.9082  0.6090 -2.0765
  178SLPC  H15B20262   2.271   2.132   9.963 -0.7410 -0.3503 -1.0904
  178SLPC  H15C20263   2.408   2.139   9.858  0.7247  3.6373 -2.9911
  178SLPC   C1220264   2.199   2.229   9.708  0.4048  0.7913 -0.5509
  178SLPC  H12A20265   2.123   2.291   9.661 -1.6160 -0.7705  0.5478
  178SLPC  H12B20266   2.141   2.149   9.752  0.6321  0.5048 -0.7729
  178SLPC   C1120267   2.274   2.165   9.587 -0.2404 -0.4712 -0.1138
  178SLPC  H11A20268   2.333   2.242   9.534  1.8366 -2.9353 -1.4834
  178SLPC  H11B20269   2.201   2.131   9.510  0.2139 -1.4073 -0.1339
  178SLPC     P20270   2.322   1.905   9.614 -0.3034  0.0310 -0.1860
  178SLPC   O1320271   2.447   1.830   9.651 -0.3198 -0.7849  0.2279
  178SLPC   O1420272   2.199   1.865   9.683 -0.8967  0.0232  0.0078
  178SLPC   O1220273   2.351   2.058   9.640 -0.1893 -0.2053 -0.5510
  178SLPC   O1120274   2.307   1.893   9.459 -0.2611 -0.1971  0.8190
  178SLPC    C120275   2.420   1.929   9.372 -0.5321 -0.0675  0.5177
  178SLPC    HA20276   2.384   2.010   9.304 -1.1425 -0.3453  0.5077
  178SLPC    HB20277   2.502   1.975   9.432 -0.6861  2.2211 -0.9378
  178SLPC    C220278   2.479   1.808   9.290 -0.0024  0.0703 -0.2252
  178SLPC    HS20279   2.561   1.841   9.223 -1.2001 -0.2421 -1.8808
  178SLPC   O2120280   2.369   1.744   9.221 -0.4466  0.0117 -0.4275
  178SLPC   C2120281   2.319   1.809   9.121 -0.0657  0.7114 -0.6646
  178SLPC   O2220282   2.371   1.905   9.065 -0.0857 -0.3118  0.1141
  178SLPC   C2220283   2.174   1.759   9.090 -0.0625 -0.4698  0.5899
  178SLPC   H2R20284   2.176   1.652   9.062 -1.7491 -0.9107  2.0009
  178SLPC   H2S20285   2.123   1.769   9.189 -1.6085  0.1906 -0.2519
  178SLPC    C320286   2.536   1.699   9.390 -0.1273  1.1159 -0.6951
  178SLPC    HX20287   2.449   1.692   9.459  1.2368 -0.5190  0.9152
  178SLPC    HY20288   2.617   1.745   9.451 -0.8379  0.6269  0.6246
  178SLPC   O3120289   2.576   1.573   9.322 -0.0219  0.4081 -0.5425
  178SLPC   C3120290   2.629   1.488   9.409 -0.5456 -0.6155  0.1362
  178SLPC   O3220291   2.635   1.502   9.531 -0.1260 -0.0859 -0.1613
  178SLPC   C3220292   2.667   1.355   9.342  0.6649 -0.3616  0.5691
  178SLPC   H2X20293   2.597   1.278   9.380  1.9794 -1.1228  1.4744
  178SLPC   H2Y20294   2.771   1.336   9.376  1.6433  0.0968 -2.0317
  178SLPC   C2320295   2.088   1.842   8.994 -0.1575 -0.6594 -0.2297
  178SLPC   H3R20296   2.086   1.949   9.026 -0.0319 -0.8162  0.3045
  178SLPC   H3S20297   1.986   1.797   8.988 -0.9049  1.2543 -2.4174
  178SLPC   C2420298   2.134   1.824   8.845 -0.3846 -0.5667  0.0139
  178SLPC   H4R20299   2.115   1.716   8.834 -0.0624 -0.6318  0.0857
  178SLPC   H4S20300   2.244   1.837   8.841  0.0513 -3.9592 -0.2242
  178SLPC   C2520301   2.066   1.910   8.732  0.1388  0.5085 -0.8068
  178SLPC   H5R20302   2.087   2.019   8.738 -1.2226  0.7533 -0.4265
  178SLPC   H5S20303   1.956   1.896   8.726 -0.1477  1.1550  2.1511
  178SLPC   C2620304   2.114   1.868   8.597  1.0202  0.1221  0.0783
  178SLPC   H6R20305   2.104   1.757   8.604 -0.9056  0.3620  1.3349
  178SLPC   H6S20306   2.219   1.900   8.582  1.4525 -0.0787  2.6017
  178SLPC   C2720307   2.020   1.930   8.490  0.5105  0.2460  0.5246
  178SLPC   H7R20308   2.036   2.039   8.474 -1.7284  0.5490  0.1500
  178SLPC   H7S20309   1.914   1.911   8.515  0.8435 -1.9246  0.3575
  178SLPC   C2820310   2.039   1.859   8.354  0.4098  0.0749  0.0555
  178SLPC   H8R20311   2.021   1.752   8.375  3.3301 -0.1739  1.5248
  178SLPC   H8S20312   2.142   1.884   8.321  0.5646  1.2186  1.3648
  178SLPC   C2920313   1.940   1.903   8.246 -0.6661  0.5410  0.6390
  178SLPC   H9R20314   1.842   1.941   8.281 -0.8918 -0.3146  0.9525
  178SLPC  C21020315   1.977   1.925   8.118 -0.0273 -0.3992  0.5651
  178SLPC  H10R20316   1.903   1.941   8.039  0.6691 -3.1622 -0.7194
  178SLPC  C21120317   2.117   1.905   8.061 -0.3862 -0.1813 -0.0818
  178SLPC  H11R20318   2.197   1.959   8.117 -0.2034  1.1303 -1.5737
  178SLPC  H11S20319   2.132   1.968   7.971  1.2482 -0.2135  0.1479
  178SLPC  C21220320   2.145   1.756   8.039 -0.1755 -1.0230  0.1079
  178SLPC  H12R20321   2.148   1.694   8.130  2.3291 -2.9356 -1.2228
  178SLPC  C21320322   2.197   1.704   7.926  0.1696  0.1547 -0.4842
  178SLPC  H13R20323   2.224   1.597   7.921  1.7080  0.5104 -0.0718
  178SLPC  C21420324   2.241   1.792   7.811  0.1877  0.3509 -0.7971
  178SLPC  H14R20325   2.218   1.900   7.821  0.5460  0.3124  0.5733
  178SLPC  H14S20326   2.194   1.755   7.717 -0.6954 -0.2330 -0.1335
  178SLPC  C21520327   2.391   1.788   7.800 -0.5598  0.2397 -0.0603
  178SLPC  H15R20328   2.418   1.832   7.702 -1.8266  2.8499  0.7166
  178SLPC  H15S20329   2.446   1.691   7.807 -0.6113  0.3243  1.8016
  178SLPC  C21620330   2.463   1.866   7.918  0.0493  0.4151  0.9109
  178SLPC  H16R20331   2.451   1.803   8.009  1.9449  1.8351  2.1880
  178SLPC  H16S20332   2.401   1.957   7.930 -1.2465  0.0140 -2.1971
  178SLPC  C21720333   2.614   1.886   7.901 -0.3628 -0.0275  0.0034
  178SLPC  H17R20334   2.641   1.948   7.812 -0.6952  0.1104 -0.0025
  178SLPC  H17S20335   2.661   1.786   7.894 -1.3688 -0.4859 -0.3513
  178SLPC  C21820336   2.673   1.952   8.028  0.2971 -0.1787 -0.7898
  178SLPC  H18R20337   2.672   1.884   8.116  3.3041 -0.6445 -1.0662
  178SLPC  H18S20338   2.634   2.056   8.035 -0.1733 -0.4364  0.4785
  178SLPC  H18T20339   2.784   1.964   8.027  0.2585  0.2004 -0.6399
  178SLPC   C3320340   2.654   1.354   9.186  0.2510 -0.0444 -0.2068
  178SLPC   H3X20341   2.722   1.434   9.151  2.3186 -0.2565  3.0891
  178SLPC   H3Y20342   2.551   1.389   9.165  0.2266 -0.7167 -1.2180
  178SLPC   C3420343   2.674   1.212   9.116 -0.3381  0.2474  0.3907
  178SLPC   H4X20344   2.599   1.142   9.158  1.6537 -2.3269 -0.2438
  178SLPC   H4Y20345   2.774   1.175   9.146 -1.9374 -3.1658  1.7924
  178SLPC   C3520346   2.664   1.228   8.957  0.1244 -0.1001  0.1918
  178SLPC   H5X20347   2.706   1.136   8.911 -0.2627  0.1011 -0.5555
  178SLPC   H5Y20348   2.736   1.311   8.940  0.1250 -0.4102 -1.3927
  178SLPC   C3620349   2.514   1.252   8.909 -0.0876  0.3906 -0.2097
  178SLPC   H6X20350   2.469   1.337   8.965 -1.6182  0.5406 -1.6168
  178SLPC   H6Y20351   2.447   1.168   8.938  0.5457  0.1739  0.6397
  178SLPC   C3720352   2.507   1.267   8.753  0.4121  0.3734  0.0300
  178SLPC   H7X20353   2.546   1.174   8.707  0.9443  0.3765  0.4751
  178SLPC   H7Y20354   2.571   1.353   8.724  0.7517 -0.3455 -1.3713
  178SLPC   C3820355   2.368   1.284   8.695 -0.8827 -0.5945  0.0318
  178SLPC   H8X20356   2.311   1.193   8.724  2.0678 -2.7275 -0.6018
  178SLPC   H8Y20357   2.369   1.276   8.584  0.7496 -2.7804  0.1731
  178SLPC   C3920358   2.294   1.418   8.732  0.6570 -0.9387 -0.2097
  178SLPC   H9X20359   2.340   1.510   8.691 -1.5332  0.1853 -0.2021
  178SLPC   H9Y20360   2.308   1.429   8.842 -0.9660 -2.4931  0.1971
  178SLPC  C31020361   2.142   1.410   8.700 -0.5551  1.1744  0.6206
  178SLPC  H10X20362   2.092   1.497   8.747 -1.4054  1.2241 -0.3538
  178SLPC  H10Y20363   2.087   1.320   8.733 -1.2734  1.7199  0.9273
  178SLPC  C31120364   2.110   1.424   8.549 -0.3385 -0.2613 -0.2193
  178SLPC  H11X20365   2.185   1.367   8.490 -0.7726 -1.8104  0.7106
  178SLPC  H11Y20366   2.146   1.529   8.537 -1.5562  0.0700 -1.0686
  178SLPC  C31220367   1.961   1.412   8.514  0.3842  0.4500 -0.3469
  178SLPC  H12X20368   1.900   1.472   8.583  0.7057 -1.3644  1.5781
  178SLPC  H12Y20369   1.933   1.304   8.513 -0.3735  0.6354  0.4835
  178SLPC  C31320370   1.933   1.449   8.370  0.7315  0.2814 -0.1952
  178SLPC  H13X20371   1.964   1.355   8.318 -1.0912 -0.0744 -0.6699
  178SLPC  H13Y20372   2.006   1.527   8.341 -0.2415  0.1947 -3.0604
  178SLPC  C31420373   1.793   1.480   8.323 -0.0065 -0.4311 -0.0443
  178SLPC  H14X20374   1.735   1.385   8.324 -0.1038 -0.3689  0.1288
  178SLPC  H14Y20375   1.795   1.504   8.214  2.1783  1.5880  0.3928
  178SLPC  C31520376   1.733   1.600   8.397 -0.2286  0.1842 -0.4765
  178SLPC  H15X20377   1.735   1.581   8.507 -1.1994 -0.5371 -0.5752
  178SLPC  H15Y20378   1.782   1.697   8.377 -0.4215  0.5376  0.7084
  178SLPC  C31620379   1.585   1.612   8.368  0.4897 -0.9022 -0.4378
  178SLPC  H16X20380   1.529   1.516   8.358 -1.6587  0.1940  0.8510
  178SLPC  H16Y20381   1.567   1.662   8.270 -1.0094 -1.0089 -0.2282
  178SLPC  C31720382   1.514   1.702   8.476  0.1251  0.1276  0.7381
  178SLPC  H17X20383   1.562   1.803   8.469  0.8236 -0.1483  1.4644
  178SLPC  H17Y20384   1.521   1.647   8.572 -2.6259 -1.3766  0.1339
  178SLPC  C31820385   1.366   1.712   8.444  0.4388  0.3756  0.1174
  178SLPC  H18X20386   1.327   1.609   8.436  1.9720 -0.2220  0.1199
  178SLPC  H18Y20387   1.349   1.761   8.346 -0.3101 -1.1492 -0.5200
  178SLPC  H18Z20388   1.318   1.771   8.525 -1.0385  0.3268 -0.7057
  179SLPC     N20389   2.766   5.294  10.031 -0.1168 -0.0465  0.2405
  179SLPC   C1320390   2.817   5.414  10.106 -0.8450  0.0603 -0.2461
  179SLPC  H13A20391   2.915   5.442  10.072 -1.5829  0.9756 -1.7121
  179SLPC  H13B20392   2.749   5.496  10.087 -0.3293  0.5731  0.1049
  179SLPC  H13C20393   2.821   5.387  10.211  2.4106 -0.2691 -0.4256
  179SLPC   C1420394   2.644   5.239  10.094 -1.0186 -0.3248 -0.3255
  179SLPC  H14A20395   2.612   5.152  10.039 -1.5559  0.5068 -1.3418
  179SLPC  H14B20396   2.662   5.217  10.198 -1.1267  1.9819  0.2090
  179SLPC  H14C20397   2.564   5.311  10.098 -0.8965 -0.2475  0.7845
  179SLPC   C1520398   2.867   5.183  10.050 -0.0592 -0.1477  0.3222
  179SLPC  H15A20399   2.969   5.213  10.036  0.1365  0.3020  2.5284
  179SLPC  H15B20400   2.863   5.143  10.151 -0.8792  0.3580  0.4980
  179SLPC  H15C20401   2.841   5.095   9.993 -1.9040 -0.0596  0.9740
  179SLPC   C1220402   2.726   5.317   9.877  0.4681 -0.5418  0.1954
  179SLPC  H12A20403   2.698   5.221   9.836 -1.4955  0.3891 -0.7093
  179SLPC  H12B20404   2.815   5.349   9.826 -1.0403  0.6323 -1.7734
  179SLPC   C1120405   2.620   5.434   9.849  0.1839  0.7984 -0.5269
  179SLPC  H11A20406   2.527   5.405   9.902  2.2578 -0.7113  2.4488
  179SLPC  H11B20407   2.596   5.437   9.741 -1.0992  1.1680 -0.2356
  179SLPC     P20408   2.565   5.680   9.907  0.1996 -0.1244 -0.0778
  179SLPC   O1320409   2.440   5.623   9.951 -0.2540  0.2706 -1.2132
  179SLPC   O1420410   2.625   5.776  10.000 -0.3289  0.4010 -0.3833
  179SLPC   O1220411   2.671   5.561   9.890  0.2737  0.4694 -0.3027
  179SLPC   O1120412   2.555   5.758   9.766 -0.6984  0.3612  0.1901
  179SLPC    C120413   2.672   5.755   9.687 -0.1370 -0.5085  0.1865
  179SLPC    HA20414   2.764   5.779   9.744  1.6071  1.1464 -3.1958
  179SLPC    HB20415   2.691   5.659   9.635 -2.6961 -0.7467 -0.4150
  179SLPC    C220416   2.670   5.867   9.579 -0.2625 -0.6262 -0.3156
  179SLPC    HS20417   2.618   5.956   9.622 -0.7445  0.7831 -3.6927
  179SLPC   O2120418   2.594   5.825   9.463  0.8935 -0.0190  0.2684
  179SLPC   C2120419   2.564   5.920   9.376 -0.6733 -0.4946  0.2691
  179SLPC   O2220420   2.585   6.038   9.389  0.2772  0.0981  0.0893
  179SLPC   C2220421   2.492   5.855   9.254 -0.4304 -0.0238  0.2059
  179SLPC   H2R20422   2.474   5.748   9.281 -0.0199 -0.1377  0.0343
  179SLPC   H2S20423   2.398   5.909   9.230  0.5391  1.0391 -1.3018
  179SLPC    C320424   2.813   5.905   9.533 -0.1072 -0.1703  0.0492
  179SLPC    HX20425   2.860   5.950   9.623  0.1632 -0.6596  0.1550
  179SLPC    HY20426   2.807   5.977   9.449 -1.5697  1.6612  1.6817
  179SLPC   O3120427   2.881   5.782   9.516 -0.4996 -0.4644  0.0670
  179SLPC   C3120428   2.902   5.746   9.390  0.0727  0.1980 -0.4809
  179SLPC   O3220429   2.878   5.809   9.290 -0.1534 -0.0078  0.6012
  179SLPC   C3220430   2.965   5.604   9.402 -0.2192 -0.3231  0.1021
  179SLPC   H2X20431   2.907   5.558   9.486  0.3970  1.0204  1.2974
  179SLPC   H2Y20432   3.065   5.626   9.444 -0.2919  0.3690 -0.0783
  179SLPC   C2320433   2.574   5.855   9.121  0.8694 -0.0875  0.2266
  179SLPC   H3R20434   2.512   5.800   9.047 -1.2222 -0.2739  2.0592
  179SLPC   H3S20435   2.668   5.805   9.155 -0.3800 -0.0465  3.9373
  179SLPC   C2420436   2.593   5.996   9.054 -0.6899  0.3393  0.0909
  179SLPC   H4R20437   2.637   6.068   9.126 -1.4682  1.0147 -0.1116
  179SLPC   H4S20438   2.492   6.034   9.030  0.2856  2.5763 -0.6427
  179SLPC   C2520439   2.694   6.002   8.932 -1.0305  0.0893  0.7043
  179SLPC   H5R20440   2.787   5.960   8.977  0.2090  1.7325 -0.2526
  179SLPC   H5S20441   2.712   6.109   8.908 -1.3727 -0.2299 -1.0213
  179SLPC   C2620442   2.637   5.926   8.808 -0.1263  0.2085 -0.2722
  179SLPC   H6R20443   2.554   5.985   8.765 -2.2088 -2.2426  0.2451
  179SLPC   H6S20444   2.610   5.820   8.831  0.1591  0.2760  0.3811
  179SLPC   C2720445   2.751   5.914   8.698 -0.3314  0.6170  0.4606
  179SLPC   H7R20446   2.843   5.867   8.738  0.2213  0.3465 -1.0934
  179SLPC   H7S20447   2.764   6.017   8.659  0.8533 -0.1969 -1.3741
  179SLPC   C2820448   2.702   5.833   8.577 -0.8803  0.1683 -0.3459
  179SLPC   H8R20449   2.605   5.868   8.534 -1.0533 -2.1097 -1.9427
  179SLPC   H8S20450   2.671   5.729   8.603 -3.0151  0.4098 -1.7595
  179SLPC   C2920451   2.809   5.845   8.471  0.2685  0.1146  0.5932
  179SLPC   H9R20452   2.860   5.942   8.462 -0.1844  0.3047  0.0331
  179SLPC  C21020453   2.851   5.749   8.382 -0.0864 -0.0233  0.3590
  179SLPC  H10R20454   2.928   5.771   8.307 -0.9999 -1.0662 -0.9062
  179SLPC  C21120455   2.797   5.607   8.377 -0.9051 -0.4782  0.4000
  179SLPC  H11R20456   2.818   5.568   8.480  0.7642  0.4578  0.4252
  179SLPC  H11S20457   2.856   5.544   8.308 -0.1453  0.0917  0.5290
  179SLPC  C21220458   2.649   5.599   8.350 -0.1352 -0.1995  0.2169
  179SLPC  H12R20459   2.610   5.681   8.287 -0.8680  0.3511  1.3768
  179SLPC  C21320460   2.569   5.509   8.407 -0.1000 -0.5626  0.3525
  179SLPC  H13R20461   2.462   5.507   8.382 -0.2793  0.2186  1.0122
  179SLPC  C21420462   2.608   5.400   8.504  0.3820 -0.4385  0.4605
  179SLPC  H14R20463   2.699   5.348   8.468 -0.2018  0.0725 -1.8043
  179SLPC  H14S20464   2.522   5.329   8.504 -0.1440  0.1865  0.4253
  179SLPC  C21520465   2.633   5.448   8.645  0.1112  0.2428 -0.4588
  179SLPC  H15R20466   2.544   5.485   8.700  0.6680  2.6126 -1.1349
  179SLPC  H15S20467   2.698   5.537   8.637 -0.0750  0.2558 -2.0395
  179SLPC  C21620468   2.701   5.349   8.745 -0.7576  0.0291  0.4955
  179SLPC  H16R20469   2.744   5.400   8.834 -2.5226  1.3779  0.6059
  179SLPC  H16S20470   2.785   5.293   8.698 -2.6084  0.7230 -3.9172
  179SLPC  C21720471   2.601   5.245   8.794 -0.0107 -0.7235 -0.4846
  179SLPC  H17R20472   2.550   5.200   8.706 -0.2560 -1.9853  0.2963
  179SLPC  H17S20473   2.528   5.302   8.855 -0.3196 -1.7553  0.1237
  179SLPC  C21820474   2.655   5.144   8.887 -0.0186  0.4281  0.7472
  179SLPC  H18R20475   2.704   5.193   8.974  1.5854  0.1288  0.0315
  179SLPC  H18S20476   2.734   5.090   8.832 -2.9455 -0.9600 -2.2900
  179SLPC  H18T20477   2.579   5.067   8.913 -3.6109  2.4057 -3.2622
  179SLPC   C3320478   2.981   5.513   9.269 -0.7627  0.0249  0.5525
  179SLPC   H3X20479   2.882   5.504   9.219  0.1687 -1.1176 -1.1829
  179SLPC   H3Y20480   3.004   5.410   9.305  0.8040 -0.0479 -0.5918
  179SLPC   C3420481   3.087   5.563   9.166 -1.0416  0.3728  0.0596
  179SLPC   H4X20482   3.070   5.499   9.076 -0.7210 -0.6208  0.6952
  179SLPC   H4Y20483   3.188   5.538   9.206 -2.3718 -1.4949  2.3892
  179SLPC   C3520484   3.083   5.707   9.110 -0.2021 -0.4812  0.1124
  179SLPC   H5X20485   3.122   5.780   9.184  0.2192 -0.1851 -0.4020
  179SLPC   H5Y20486   2.976   5.730   9.090 -0.3815  0.4780  2.0729
  179SLPC   C3620487   3.151   5.722   8.973 -0.5949  0.1984 -0.3874
  179SLPC   H6X20488   3.262   5.723   8.982 -0.5252 -2.8258 -0.2817
  179SLPC   H6Y20489   3.124   5.820   8.930  0.3371  2.0094  2.9511
  179SLPC   C3720490   3.120   5.615   8.874  0.3068 -0.7216  0.4757
  179SLPC   H7X20491   3.016   5.579   8.887  1.3266 -3.2994  2.1281
  179SLPC   H7Y20492   3.177   5.523   8.900 -1.3727 -1.0777  3.1055
  179SLPC   C3820493   3.157   5.647   8.727 -0.4001 -0.3784 -0.1159
  179SLPC   H8X20494   3.245   5.716   8.729 -0.1888 -0.4470 -3.8747
  179SLPC   H8Y20495   3.071   5.700   8.681  0.8087  1.8891  0.1603
  179SLPC   C3920496   3.201   5.539   8.636 -0.3080  0.6148 -0.4128
  179SLPC   H9X20497   3.284   5.479   8.681 -2.3011 -0.3082  2.1394
  179SLPC   H9Y20498   3.230   5.578   8.536  1.0996  1.0577  0.1493
  179SLPC  C31020499   3.079   5.439   8.613  0.3965 -0.5751 -0.2936
  179SLPC  H10X20500   2.994   5.504   8.582  2.6099  2.2725 -0.6167
  179SLPC  H10Y20501   3.046   5.388   8.706 -0.1996  3.3177  1.7281
  179SLPC  C31120502   3.113   5.336   8.501  0.2578 -0.0651 -0.1843
  179SLPC  H11X20503   3.189   5.266   8.540  0.7261  0.6172  0.1366
  179SLPC  H11Y20504   3.158   5.386   8.412  0.0654 -1.1446 -0.8984
  179SLPC  C31220505   2.985   5.256   8.454  0.1801 -0.4120 -0.5615
  179SLPC  H12X20506   2.911   5.329   8.414 -1.4149 -0.9697  1.2559
  179SLPC  H12Y20507   2.947   5.213   8.549  0.4322 -0.2553 -0.3929
  179SLPC  C31320508   3.016   5.140   8.352  0.3709  0.0311 -0.1919
  179SLPC  H13X20509   3.083   5.072   8.409  0.0923  0.6878  0.9532
  179SLPC  H13Y20510   3.063   5.186   8.262 -0.8178 -1.7020 -1.7324
  179SLPC  C31420511   2.888   5.068   8.304 -0.1973  1.0144 -0.4414
  179SLPC  H14X20512   2.817   5.069   8.389  0.3010 -0.7179  0.0101
  179SLPC  H14Y20513   2.915   4.965   8.274 -0.3464  0.9883 -0.4914
  179SLPC  C31520514   2.829   5.138   8.186 -0.7107  0.2733 -0.2536
  179SLPC  H15X20515   2.910   5.137   8.109 -0.2272  1.5890  0.2120
  179SLPC  H15Y20516   2.799   5.243   8.210  0.2961  0.4363  0.2868
  179SLPC  C31620517   2.705   5.055   8.134  0.0556 -1.0013 -0.7197
  179SLPC  H16X20518   2.723   4.946   8.121  2.5705 -0.6744 -0.1839
  179SLPC  H16Y20519   2.686   5.097   8.033 -1.3870 -1.5229 -0.6671
  179SLPC  C31720520   2.584   5.077   8.224 -0.5494  0.4423 -0.2040
  179SLPC  H17X20521   2.576   5.178   8.270 -0.8985  0.2854  0.0865
  179SLPC  H17Y20522   2.613   5.006   8.304  0.6151  2.3307  1.0967
  179SLPC  C31820523   2.457   5.038   8.154  0.4862  0.2201  0.4813
  179SLPC  H18X20524   2.449   4.928   8.139 -0.0529  0.2213  0.7471
  179SLPC  H18Y20525   2.442   5.091   8.057  2.3413 -0.0830  0.0059
  179SLPC  H18Z20526   2.378   5.079   8.220 -0.5999 -1.2094  0.0951
  180SLPC     N20527   5.603   1.882   9.934 -0.1164 -0.0956 -0.2252
  180SLPC   C1320528   5.628   1.933   9.794  0.5823 -0.4816 -0.0864
  180SLPC  H13A20529   5.550   2.001   9.766  0.6584 -0.4137 -0.1311
  180SLPC  H13B20530   5.723   1.983   9.782  0.9896 -1.4716 -1.0816
  180SLPC  H13C20531   5.634   1.856   9.718  1.2569 -0.8264  0.3121
  180SLPC   C1420532   5.478   1.800   9.941  0.1142  0.2110  0.1994
  180SLPC  H14A20533   5.466   1.782  10.046  0.4450  0.2812  0.2480
  180SLPC  H14B20534   5.383   1.851   9.929  1.6169  2.6584 -1.9131
  180SLPC  H14C20535   5.498   1.711   9.883  0.2649  0.4076 -0.0526
  180SLPC   C1520536   5.567   2.011  10.013  0.0410 -0.0255  0.4344
  180SLPC  H15A20537   5.630   2.098  10.020 -0.2675  0.2246  0.0657
  180SLPC  H15B20538   5.477   2.059   9.979 -0.0043 -1.2946 -1.3054
  180SLPC  H15C20539   5.549   1.988  10.117  0.7961 -1.1743  0.3310
  180SLPC   C1220540   5.725   1.817   9.985  0.3714 -0.4665  0.1033
  180SLPC  H12A20541   5.706   1.801  10.090 -2.3003  1.6957 -0.0138
  180SLPC  H12B20542   5.812   1.881   9.983 -0.3864  0.7310  2.6349
  180SLPC   C1120543   5.775   1.690   9.923 -0.2943  0.5769  0.2955
  180SLPC  H11A20544   5.877   1.670   9.961  0.0723  0.8107 -0.5553
  180SLPC  H11B20545   5.787   1.709   9.814  0.6750 -1.7262 -0.0230
  180SLPC     P20546   5.666   1.466   9.847  0.4079  0.0077  0.0819
  180SLPC   O1320547   5.719   1.340   9.898 -0.0480 -0.5533  0.1874
  180SLPC   O1420548   5.517   1.467   9.812 -0.4092 -0.0201 -0.3305
  180SLPC   O1220549   5.693   1.579   9.951  0.3285 -0.1847  0.3021
  180SLPC   O1120550   5.748   1.512   9.720  0.1748  0.5185  0.0213
  180SLPC    C120551   5.715   1.461   9.594  0.1979 -1.2105  0.1160
  180SLPC    HA20552   5.810   1.421   9.553  1.9152  1.6954  1.0402
  180SLPC    HB20553   5.627   1.394   9.589  0.5610 -1.7625  1.0945
  180SLPC    C220554   5.670   1.570   9.488 -0.1996 -0.2772 -0.5871
  180SLPC    HS20555   5.684   1.529   9.386 -0.6156 -1.5872 -0.1176
  180SLPC   O2120556   5.734   1.698   9.500 -0.5625 -0.1906 -0.2501
  180SLPC   C2120557   5.866   1.684   9.481  0.0324  0.0153 -0.2577
  180SLPC   O2220558   5.928   1.588   9.442 -0.7172  0.0494  0.2375
  180SLPC   C2220559   5.926   1.828   9.478  0.1338  0.0423  0.4091
  180SLPC   H2R20560   5.920   1.875   9.579 -0.4788 -1.7158  1.2150
  180SLPC   H2S20561   6.031   1.824   9.443 -0.3433 -2.8973 -0.7745
  180SLPC    C320562   5.516   1.602   9.510 -0.5376  0.1516 -0.0800
  180SLPC    HX20563   5.506   1.669   9.598  0.9259 -2.0056  1.7905
  180SLPC    HY20564   5.472   1.506   9.542 -0.6086 -0.6314 -2.4012
  180SLPC   O3120565   5.445   1.655   9.393 -0.2526  1.0437 -0.0497
  180SLPC   C3120566   5.432   1.793   9.393  0.3512 -0.0524 -0.7985
  180SLPC   O3220567   5.469   1.861   9.491  0.2144  1.0249  0.3810
  180SLPC   C3220568   5.388   1.844   9.259  0.2455  0.1312 -0.1160
  180SLPC   H2X20569   5.464   1.811   9.185 -0.3211  0.0101 -0.6474
  180SLPC   H2Y20570   5.394   1.955   9.263  1.7762  0.0287  0.8040
  180SLPC   C2320571   5.843   1.919   9.381 -0.4389  0.3507  0.1430
  180SLPC   H3R20572   5.852   2.026   9.413  0.3531 -0.2601  2.0233
  180SLPC   H3S20573   5.735   1.899   9.368 -0.0663  0.0193 -2.7177
  180SLPC   C2420574   5.905   1.927   9.237  0.3698 -0.0944 -0.0990
  180SLPC   H4R20575   5.833   1.982   9.173  0.9247  0.5725 -0.1624
  180SLPC   H4S20576   5.905   1.825   9.194  1.2127  0.4526 -1.4215
  180SLPC   C2520577   6.051   1.988   9.233 -0.2090  0.5913  0.5623
  180SLPC   H5R20578   6.122   1.908   9.264  0.9788  1.6570  0.6404
  180SLPC   H5S20579   6.065   2.071   9.306  2.8911 -0.3683  1.1573
  180SLPC   C2620580   6.085   2.039   9.089  0.9193  0.1861 -0.2476
  180SLPC   H6R20581   6.040   1.966   9.019  0.4180  0.7624 -0.5280
  180SLPC   H6S20582   6.194   2.052   9.072  1.1927  2.0487  2.5265
  180SLPC   C2720583   6.017   2.169   9.042  0.0304 -0.2683  0.2036
  180SLPC   H7R20584   6.025   2.248   9.119  3.0707  1.4840 -1.8272
  180SLPC   H7S20585   5.909   2.145   9.036 -0.1337 -0.4173  2.8982
  180SLPC   C2820586   6.073   2.221   8.916 -0.2975 -0.0287 -0.1351
  180SLPC   H8R20587   6.183   2.217   8.930 -0.4394  3.2339  2.6085
  180SLPC   H8S20588   6.051   2.330   8.910  0.8621  0.0770 -3.6052
  180SLPC   C2920589   6.044   2.152   8.784 -0.0076 -0.2301 -0.4022
  180SLPC   H9R20590   6.025   2.046   8.807  0.4927  0.0652  1.4723
  180SLPC  C21020591   6.025   2.201   8.661 -0.5312  0.4049  0.1235
  180SLPC  H10R20592   5.995   2.134   8.579  1.4716 -1.4543  0.8636
  180SLPC  C21120593   6.028   2.341   8.616 -0.4144 -0.0946 -0.1513
  180SLPC  H11R20594   6.101   2.349   8.533 -1.8078 -1.1410 -1.5165
  180SLPC  H11S20595   6.078   2.396   8.699  0.4634 -2.0453  0.6440
  180SLPC  C21220596   5.884   2.391   8.585  0.3574 -0.5039 -0.4407
  180SLPC  H12R20597   5.809   2.404   8.664  0.7086 -1.7338  0.1062
  180SLPC  C21320598   5.862   2.433   8.455  0.5286 -0.5040 -0.0810
  180SLPC  H13R20599   5.760   2.466   8.429  1.4201  1.9484 -0.5881
  180SLPC  C21420600   5.957   2.434   8.341 -0.1746 -0.2889  0.2913
  180SLPC  H14R20601   6.020   2.343   8.330 -2.3195 -1.4738 -2.8468
  180SLPC  H14S20602   6.021   2.524   8.360  1.4120 -1.3571  0.1403
  180SLPC  C21520603   5.885   2.447   8.208 -0.1542  0.1731 -0.6216
  180SLPC  H15R20604   5.828   2.543   8.204 -1.5846 -0.6797 -0.8469
  180SLPC  H15S20605   5.810   2.367   8.195  0.1408 -0.3080  0.6451
  180SLPC  C21620606   5.986   2.455   8.093 -0.7887  0.1498 -0.7398
  180SLPC  H16R20607   6.079   2.493   8.139 -1.4709 -1.6190  2.2080
  180SLPC  H16S20608   5.961   2.526   8.011 -0.5391  0.4404 -0.5627
  180SLPC  C21720609   6.015   2.319   8.021  0.2211  0.2362 -0.2993
  180SLPC  H17R20610   6.034   2.238   8.094  3.9279  2.6197  1.5733
  180SLPC  H17S20611   6.115   2.347   7.980  0.3568 -0.1825 -0.2612
  180SLPC  C21820612   5.911   2.293   7.903 -0.1609  0.9062  0.3315
  180SLPC  H18R20613   5.813   2.251   7.931 -0.4311  1.4139  0.1419
  180SLPC  H18S20614   5.952   2.211   7.840  0.9498 -0.2264  2.4654
  180SLPC  H18T20615   5.894   2.388   7.847  0.4002  1.2367  0.7131
  180SLPC   C3320616   5.242   1.808   9.237 -0.4308 -0.2772  0.3079
  180SLPC   H3X20617   5.176   1.852   9.315 -0.7892  0.0037 -0.1546
  180SLPC   H3Y20618   5.220   1.701   9.258 -0.1332 -0.1328  1.4308
  180SLPC   C3420619   5.179   1.836   9.102  0.1420  0.4233  0.1979
  180SLPC   H4X20620   5.076   1.796   9.089 -0.8333  3.6949 -3.1065
  180SLPC   H4Y20621   5.248   1.790   9.029  0.3032 -2.0577  1.8656
  180SLPC   C3520622   5.174   1.988   9.059 -0.3223  0.1027  0.8137
  180SLPC   H5X20623   5.274   2.028   9.032 -1.2157  2.4972  0.9793
  180SLPC   H5Y20624   5.126   2.048   9.139 -1.2159 -0.7682  0.9487
  180SLPC   C3620625   5.081   2.018   8.943  0.7442  0.2088  0.3636
  180SLPC   H6X20626   5.072   2.129   8.932  0.9969  0.2010  0.0815
  180SLPC   H6Y20627   4.979   1.977   8.958  1.4437 -1.7381 -0.0850
  180SLPC   C3720628   5.145   1.962   8.813  0.4116  0.0099 -0.4126
  180SLPC   H7X20629   5.163   1.853   8.819 -2.3917 -0.4494  0.1088
  180SLPC   H7Y20630   5.244   2.010   8.797  0.2146  0.7510  0.5435
  180SLPC   C3820631   5.069   2.000   8.683  0.0437  0.0675 -0.3782
  180SLPC   H8X20632   5.078   2.107   8.654  0.7042 -0.1575 -1.0466
  180SLPC   H8Y20633   4.970   1.953   8.693  0.2478 -0.4859 -0.9535
  180SLPC   C3920634   5.139   1.940   8.557  0.2540 -0.2535 -0.3621
  180SLPC   H9X20635   5.140   1.831   8.575 -0.7505 -0.1121  0.6759
  180SLPC   H9Y20636   5.242   1.982   8.549  0.2119  0.4035  2.0906
  180SLPC  C31020637   5.059   1.972   8.434 -0.4830 -0.8243  0.5148
  180SLPC  H10X20638   5.013   2.071   8.451 -0.2982 -1.0566  2.4402
  180SLPC  H10Y20639   4.966   1.911   8.423 -0.8380  0.3996 -5.0168
  180SLPC  C31120640   5.120   1.970   8.296  0.1258 -0.0398 -0.0782
  180SLPC  H11X20641   5.141   1.865   8.265  1.9366  0.5517 -0.9409
  180SLPC  H11Y20642   5.210   2.036   8.293 -0.6579  0.9829 -1.2834
  180SLPC  C31220643   5.036   2.014   8.172 -0.2105 -0.3979 -0.7062
  180SLPC  H12X20644   5.000   2.111   8.213  0.9270 -0.9795  1.8040
  180SLPC  H12Y20645   4.946   1.948   8.178 -1.5896  1.2888 -2.1100
  180SLPC  C31320646   5.110   2.017   8.043 -0.5562  1.1342  0.2377
  180SLPC  H13X20647   5.148   1.916   8.019  0.0966  1.1986  0.9870
  180SLPC  H13Y20648   5.187   2.097   8.041  0.0280  0.5653 -1.0858
  180SLPC  C31420649   5.016   2.028   7.921 -0.8009 -0.1670 -0.4165
  180SLPC  H14X20650   4.975   2.130   7.904 -2.4110 -1.1828 -3.0338
  180SLPC  H14Y20651   4.929   1.964   7.948 -0.9796  0.4015  0.3463
  180SLPC  C31520652   5.079   1.982   7.790  1.2093 -0.4657 -0.6598
  180SLPC  H15X20653   5.008   1.994   7.705  0.4573 -0.9334 -0.0989
  180SLPC  H15Y20654   5.099   1.872   7.793  0.7962 -0.4942  1.3507
  180SLPC  C31620655   5.220   2.037   7.763 -0.5974  0.5362 -0.1447
  180SLPC  H16X20656   5.287   1.977   7.828 -1.6054 -0.5251 -0.0682
  180SLPC  H16Y20657   5.220   2.142   7.797 -1.5073  0.0609  1.3782
  180SLPC  C31720658   5.258   2.023   7.620 -0.4771 -0.1404 -0.0368
  180SLPC  H17X20659   5.190   2.088   7.561  0.6487  0.4293 -0.7334
  180SLPC  H17Y20660   5.243   1.921   7.580 -2.2896 -0.2491  0.8983
  180SLPC  C31820661   5.389   2.086   7.581 -0.3731 -0.7071  0.2014
  180SLPC  H18X20662   5.478   2.030   7.614  0.0075  0.7360  1.6725
  180SLPC  H18Y20663   5.399   2.190   7.618 -0.1669 -1.2618  1.7149
  180SLPC  H18Z20664   5.408   2.106   7.473  0.4858  0.1796  0.5123
  181SLPC     N20665   6.442   5.619   9.758  0.6333  0.5791  0.5263
  181SLPC   C1320666   6.543   5.578   9.654 -0.2977  0.2895  0.6412
  181SLPC  H13A20667   6.518   5.622   9.559  1.6138  2.1888  0.9762
  181SLPC  H13B20668   6.644   5.604   9.684 -0.3535 -1.1551  2.1825
  181SLPC  H13C20669   6.553   5.471   9.645  1.0467  0.3966  0.6834
  181SLPC   C1420670   6.469   5.554   9.897  0.0681 -0.4374  0.2994
  181SLPC  H14A20671   6.386   5.562   9.966 -1.2268  1.9360 -1.4849
  181SLPC  H14B20672   6.494   5.449   9.900 -3.2318 -1.2628  0.4978
  181SLPC  H14C20673   6.555   5.600   9.943  1.8238 -2.1008 -1.2312
  181SLPC   C1520674   6.314   5.560   9.722  0.3439  0.2964 -0.4687
  181SLPC  H15A20675   6.234   5.576   9.793 -2.4577 -0.5682 -3.3136
  181SLPC  H15B20676   6.270   5.603   9.633  0.5508  2.3276  0.3897
  181SLPC  H15C20677   6.314   5.452   9.714 -2.4715  0.3042 -0.9892
  181SLPC   C1220678   6.435   5.766   9.771 -0.5062 -0.9164  0.3047
  181SLPC  H12A20679   6.533   5.803   9.800  0.5544 -0.3903 -3.6258
  181SLPC  H12B20680   6.358   5.795   9.841 -1.2233 -0.0113 -0.8403
  181SLPC   C1120681   6.407   5.847   9.639 -0.3070 -0.2374 -0.0562
  181SLPC  H11A20682   6.485   5.839   9.561 -1.2224  1.5283 -1.1552
  181SLPC  H11B20683   6.406   5.952   9.673  0.4710  0.1681 -1.2652
  181SLPC     P20684   6.153   5.902   9.604 -0.3699 -0.1287  0.0863
  181SLPC   O1320685   6.091   5.875   9.728 -0.2207  0.2254  0.5133
  181SLPC   O1420686   6.190   6.044   9.583 -0.5294 -0.0432  1.0927
  181SLPC   O1220687   6.282   5.808   9.581 -0.0633 -0.4029  0.1506
  181SLPC   O1120688   6.057   5.860   9.486 -0.0987 -0.2586  0.2269
  181SLPC    C120689   6.132   5.850   9.369  0.0407 -0.0612 -0.4687
  181SLPC    HA20690   6.168   5.947   9.328 -2.0884  1.1418  0.4047
  181SLPC    HB20691   6.215   5.776   9.368  1.7446  1.6350  3.3690
  181SLPC    C220692   6.044   5.786   9.256 -0.2462  0.5627  0.0920
  181SLPC    HS20693   6.004   5.690   9.294 -1.3323  0.6602 -0.7642
  181SLPC   O2120694   6.129   5.750   9.140 -0.2267 -0.3844 -0.0449
  181SLPC   C2120695   6.071   5.673   9.055  0.0624  0.0702  0.5810
  181SLPC   O2220696   5.958   5.627   9.068  0.5389 -0.1468  0.1913
  181SLPC   C2220697   6.161   5.656   8.930  0.5739 -0.2855  0.7182
  181SLPC   H2R20698   6.264   5.674   8.968 -0.1548  2.7735  1.3359
  181SLPC   H2S20699   6.151   5.550   8.898  0.4642  0.0079 -0.2471
  181SLPC    C320700   5.919   5.878   9.225 -0.0590 -0.8139  0.0428
  181SLPC    HX20701   5.853   5.868   9.314  1.4731  1.8481  1.5039
  181SLPC    HY20702   5.863   5.836   9.138  0.8027 -0.8060 -0.5230
  181SLPC   O3120703   5.954   6.015   9.192 -0.1309 -0.2206  0.1237
  181SLPC   C3120704   5.989   6.041   9.064 -0.2102  0.0568  0.0661
  181SLPC   O3220705   5.962   5.969   8.968  0.0426  0.4447 -0.8470
  181SLPC   C3220706   6.066   6.168   9.045 -0.3926 -0.5741  0.2243
  181SLPC   H2X20707   6.091   6.221   9.140  1.7472  0.4691 -0.8961
  181SLPC   H2Y20708   5.993   6.241   9.004 -1.1575 -1.8569 -0.7259
  181SLPC   C2320709   6.133   5.753   8.815  0.3952 -0.5166  0.1570
  181SLPC   H3R20710   6.151   5.859   8.842  2.4773 -0.5173 -1.0898
  181SLPC   H3S20711   6.022   5.746   8.808  0.1786  1.9329  0.6363
  181SLPC   C2420712   6.196   5.731   8.687  0.2232 -0.6688  0.1757
  181SLPC   H4R20713   6.167   5.638   8.634 -2.1992 -0.1864  0.5888
  181SLPC   H4S20714   6.306   5.727   8.701 -0.0139 -2.0328  1.7847
  181SLPC   C2520715   6.179   5.849   8.590 -1.1306 -0.3253 -0.4512
  181SLPC   H5R20716   6.187   5.938   8.656 -0.5732 -0.4681 -0.3207
  181SLPC   H5S20717   6.077   5.851   8.545 -0.7637 -0.9571 -1.3319
  181SLPC   C2620718   6.290   5.862   8.484 -0.3414  0.7696 -0.0558
  181SLPC   H6R20719   6.276   5.781   8.410  0.5551  0.3043  0.2777
  181SLPC   H6S20720   6.391   5.843   8.528  0.4728  1.3356 -1.6398
  181SLPC   C2720721   6.290   5.988   8.395  0.2187 -0.2748 -1.6061
  181SLPC   H7R20722   6.310   6.076   8.461 -0.4334 -0.9617 -0.4644
  181SLPC   H7S20723   6.195   6.006   8.340 -0.2806  2.5778  0.0526
  181SLPC   C2820724   6.406   5.981   8.296  0.6430  0.1024  0.5692
  181SLPC   H8R20725   6.499   5.964   8.354  1.0440 -1.1580 -0.4236
  181SLPC   H8S20726   6.410   6.084   8.253 -0.0460  1.0508  2.7064
  181SLPC   C2920727   6.394   5.883   8.181 -0.2307 -0.1919  0.5993
  181SLPC   H9R20728   6.401   5.779   8.216  0.7389 -1.1373 -2.2632
  181SLPC  C21020729   6.389   5.905   8.046  0.0671  0.1197 -0.7105
  181SLPC  H10R20730   6.374   5.831   7.966  1.4223  1.0675 -1.8553
  181SLPC  C21120731   6.401   6.042   7.984  0.1338  0.0969  0.3149
  181SLPC  H11R20732   6.501   6.055   7.937 -0.1818  0.7570 -0.1757
  181SLPC  H11S20733   6.405   6.121   8.062 -0.8362  1.8286 -1.3887
  181SLPC  C21220734   6.301   6.073   7.873 -0.5744  0.3763 -0.7765
  181SLPC  H12R20735   6.335   6.050   7.771 -0.0581 -0.2779 -0.4645
  181SLPC  C21320736   6.176   6.096   7.894 -0.0870  0.9311 -0.4560
  181SLPC  H13R20737   6.119   6.104   7.801  1.1762 -0.0518 -1.3283
  181SLPC  C21420738   6.097   6.107   8.018  0.1578 -0.0409  0.4449
  181SLPC  H14R20739   6.047   6.206   8.017  0.9516  0.3579 -1.1527
  181SLPC  H14S20740   6.160   6.104   8.110 -0.7393 -1.5625  1.0193
  181SLPC  C21520741   5.971   6.008   8.020  0.2405  0.4777 -0.4263
  181SLPC  H15R20742   5.997   5.901   8.007 -1.1347  0.1256 -0.4000
  181SLPC  H15S20743   5.920   6.031   7.924 -0.4341 -2.6157 -0.8465
  181SLPC  C21620744   5.877   6.035   8.142 -0.3573 -0.4368 -0.3545
  181SLPC  H16R20745   5.792   6.103   8.118 -1.2910 -0.9889  1.3082
  181SLPC  H16S20746   5.946   6.074   8.219 -0.4244  0.0873 -0.5518
  181SLPC  C21720747   5.817   5.911   8.205 -0.4158 -0.3654  1.0264
  181SLPC  H17R20748   5.742   5.867   8.136 -0.6082  1.7639 -0.1533
  181SLPC  H17S20749   5.750   5.951   8.285  0.6128  2.6132  0.4469
  181SLPC  C21820750   5.908   5.806   8.258  0.6470  0.3230 -0.0725
  181SLPC  H18R20751   5.947   5.835   8.358 -1.8962  0.6371  0.8747
  181SLPC  H18S20752   5.986   5.791   8.180  1.2834  0.8600  0.4495
  181SLPC  H18T20753   5.850   5.714   8.280 -0.4744  1.1262  0.3943
  181SLPC   C3320754   6.191   6.145   8.960 -0.2050 -0.1666 -0.6105
  181SLPC   H3X20755   6.221   6.239   8.908  0.8247 -1.0297 -1.6080
  181SLPC   H3Y20756   6.161   6.076   8.878 -0.3252 -1.3764  0.4330
  181SLPC   C3420757   6.300   6.074   9.038 -0.7863 -0.1755 -0.7588
  181SLPC   H4X20758   6.269   5.993   9.107  0.0276 -1.6525 -2.1180
  181SLPC   H4Y20759   6.344   6.151   9.106 -0.4643 -1.0884  0.0763
  181SLPC   C3520760   6.421   6.013   8.957  0.0620  0.6230  0.3091
  181SLPC   H5X20761   6.452   6.103   8.900  0.9716 -0.1939 -0.5036
  181SLPC   H5Y20762   6.385   5.943   8.878 -0.8838  1.0349  0.3635
  181SLPC   C3620763   6.522   5.940   9.045 -0.3067  0.8824  0.4806
  181SLPC   H6X20764   6.567   6.015   9.114 -2.3544  1.5305  1.1532
  181SLPC   H6Y20765   6.604   5.892   8.988 -1.0872  0.6858 -0.4988
  181SLPC   C3720766   6.470   5.823   9.140  0.2496  0.1076 -0.3357
  181SLPC   H7X20767   6.416   5.756   9.070  0.6391 -0.7379  0.1716
  181SLPC   H7Y20768   6.386   5.855   9.206  0.9451  1.1720  0.0435
  181SLPC   C3820769   6.574   5.755   9.233  0.3497 -0.6775 -0.0609
  181SLPC   H8X20770   6.605   5.836   9.302  0.9357 -0.5182 -0.5110
  181SLPC   H8Y20771   6.669   5.725   9.184  1.1010  1.7785 -0.1539
  181SLPC   C3920772   6.531   5.626   9.314  0.7754  0.5082  0.1050
  181SLPC   H9X20773   6.468   5.668   9.395 -0.0355 -0.6222  0.0808
  181SLPC   H9Y20774   6.614   5.566   9.359 -2.0372 -1.7045  2.5358
  181SLPC  C31020775   6.440   5.524   9.240 -0.6853  0.2493  0.7405
  181SLPC  H10X20776   6.352   5.567   9.188  0.7598  0.2193 -1.8162
  181SLPC  H10Y20777   6.421   5.441   9.311  1.4414  0.9196  2.1497
  181SLPC  C31120778   6.531   5.465   9.125 -0.4675 -0.0538 -0.0932
  181SLPC  H11X20779   6.607   5.396   9.167 -0.0766  1.1788  1.2818
  181SLPC  H11Y20780   6.592   5.547   9.082  0.6614  0.2160  1.9660
  181SLPC  C31220781   6.453   5.382   9.020 -0.3243 -0.6933 -0.9112
  181SLPC  H12X20782   6.402   5.447   8.947  1.2888  3.4633  1.5110
  181SLPC  H12Y20783   6.387   5.319   9.083  0.4264  0.8502  1.5244
  181SLPC  C31320784   6.550   5.285   8.955 -0.0279  0.1928 -0.6212
  181SLPC  H13X20785   6.492   5.200   8.912 -0.6460 -0.7263  1.9423
  181SLPC  H13Y20786   6.607   5.238   9.038  1.1170  2.4626 -0.0931
  181SLPC  C31420787   6.630   5.343   8.838 -0.5078  0.3714 -0.4090
  181SLPC  H14X20788   6.718   5.278   8.821  0.2224  0.5721  2.3717
  181SLPC  H14Y20789   6.666   5.434   8.890  0.4531 -0.7259  0.8539
  181SLPC  C31520790   6.541   5.384   8.716  0.5294 -0.0437  0.3741
  181SLPC  H15X20791   6.507   5.489   8.723 -0.2420 -0.2969  0.5682
  181SLPC  H15Y20792   6.453   5.316   8.721 -0.0328  0.7196  1.0366
  181SLPC  C31620793   6.609   5.359   8.581 -0.3272  0.1335  0.5075
  181SLPC  H16X20794   6.656   5.259   8.590 -1.3319 -0.3403  0.5307
  181SLPC  H16Y20795   6.691   5.434   8.576 -0.6996  0.5957  1.3269
  181SLPC  C31720796   6.512   5.355   8.467  0.4153 -0.4106 -0.7592
  181SLPC  H17X20797   6.430   5.281   8.476  0.6150 -0.6869 -1.1428
  181SLPC  H17Y20798   6.567   5.312   8.380  2.7058  0.3042  0.3027
  181SLPC  C31820799   6.454   5.497   8.444  0.0233 -0.1681 -0.3262
  181SLPC  H18X20800   6.372   5.507   8.518  0.5173  0.0511  0.1910
  181SLPC  H18Y20801   6.410   5.522   8.345 -0.4149  0.3843  0.0064
  181SLPC  H18Z20802   6.521   5.581   8.470 -1.4611 -0.2196  3.9691
  182SLPC     N20803   6.690   1.290   9.748 -0.4481  0.2139  0.3690
  182SLPC   C1320804   6.719   1.439   9.796 -0.1466 -0.0058 -0.4291
  182SLPC  H13A20805   6.641   1.479   9.859 -0.2220  0.4855 -0.8254
  182SLPC  H13B20806   6.805   1.431   9.861  0.3133 -0.1450 -1.0553
  182SLPC  H13C20807   6.744   1.500   9.710 -0.5082 -0.5232 -0.9022
  182SLPC   C1420808   6.821   1.247   9.690 -0.1457  0.3360 -0.4136
  182SLPC  H14A20809   6.840   1.301   9.599  1.0004  0.6496 -0.0022
  182SLPC  H14B20810   6.900   1.283   9.754 -1.4253 -1.3051  2.1952
  182SLPC  H14C20811   6.825   1.141   9.669 -0.1063  0.2819 -0.1343
  182SLPC   C1520812   6.594   1.299   9.639  0.2628 -0.5787 -0.3579
  182SLPC  H15A20813   6.500   1.339   9.675 -0.1605 -2.1339  0.3159
  182SLPC  H15B20814   6.635   1.370   9.569 -0.3455  0.0452 -0.0866
  182SLPC  H15C20815   6.568   1.198   9.610 -5.2730 -1.0594  5.0074
  182SLPC   C1220816   6.639   1.212   9.859  0.0109  0.5262  0.5198
  182SLPC  H12A20817   6.552   1.250   9.909 -0.1128  1.1154 -0.1327
  182SLPC  H12B20818   6.723   1.218   9.926 -0.8204  0.8909  1.5301
  182SLPC   C1120819   6.614   1.062   9.834 -0.3038  0.2584 -0.3444
  182SLPC  H11A20820   6.538   1.042   9.756  1.2229  1.3683 -2.1613
  182SLPC  H11B20821   6.576   1.019   9.929 -1.0859 -0.1927 -0.8552
  182SLPC     P20822   6.797   0.873   9.865 -0.0395 -0.0340 -0.1323
  182SLPC   O1320823   6.882   0.918   9.981  0.0506 -0.3583  0.0954
  182SLPC   O1420824   6.690   0.778   9.901  0.0821 -0.7190  0.5452
  182SLPC   O1220825   6.739   0.994   9.789 -0.1133 -0.4239 -0.4639
  182SLPC   O1120826   6.880   0.792   9.755  0.3073 -1.1193 -0.1255
  182SLPC    C120827   6.851   0.667   9.696 -0.3040 -0.0460  1.0062
  182SLPC    HA20828   6.843   0.593   9.778  0.7979 -2.6430 -1.1199
  182SLPC    HB20829   6.748   0.665   9.655  0.4348  1.8072 -1.0766
  182SLPC    C220830   6.945   0.621   9.583  0.2467 -0.1430 -0.6170
  182SLPC    HS20831   7.045   0.590   9.619  0.5963 -2.7902 -3.6745
  182SLPC   O2120832   6.950   0.719   9.480 -0.2026  0.5727 -0.4726
  182SLPC   C2120833   7.027   0.822   9.495  0.6017 -0.2289 -0.8650
  182SLPC   O2220834   7.123   0.825   9.572  0.2907  0.7071 -0.1077
  182SLPC   C2220835   6.984   0.933   9.389  0.2882 -0.5287  0.1060
  182SLPC   H2R20836   6.885   0.969   9.426  0.0801 -0.7883 -0.1948
  182SLPC   H2S20837   7.060   1.014   9.392 -1.2178  1.0519 -2.0208
  182SLPC    C320838   6.902   0.479   9.519 -0.1701  0.0101  0.7271
  182SLPC    HX20839   6.907   0.403   9.600 -0.7479 -0.0890  0.6764
  182SLPC    HY20840   6.989   0.456   9.454 -0.0486 -2.7214  1.7894
  182SLPC   O3120841   6.773   0.492   9.446 -0.4589 -0.1141 -0.2173
  182SLPC   C3120842   6.781   0.521   9.322  0.2824  0.1788 -0.1743
  182SLPC   O3220843   6.886   0.538   9.263  0.3663 -0.1739  0.2011
  182SLPC   C3220844   6.642   0.528   9.252 -0.5809  0.2117 -0.0293
  182SLPC   H2X20845   6.564   0.560   9.324  0.4649  0.0182  1.2309
  182SLPC   H2Y20846   6.619   0.425   9.216  0.4913  0.1963 -0.7011
  182SLPC   C2320847   6.989   0.894   9.238  0.1572  0.5825 -0.2919
  182SLPC   H3R20848   6.931   0.801   9.219 -2.1963  1.9115  0.2487
  182SLPC   H3S20849   7.095   0.880   9.208 -0.5318 -1.2005 -2.0351
  182SLPC   C2420850   6.933   1.002   9.149  0.4081  0.0697 -0.0129
  182SLPC   H4R20851   7.015   1.075   9.127 -0.6774  0.8430 -1.5379
  182SLPC   H4S20852   6.849   1.060   9.193  0.2063  1.7294 -2.5381
  182SLPC   C2520853   6.881   0.946   9.012  0.5698  0.4116  0.0245
  182SLPC   H5R20854   6.798   0.874   9.031 -0.2123  1.1780 -0.4756
  182SLPC   H5S20855   6.962   0.885   8.964  1.5184  1.4990  0.2221
  182SLPC   C2620856   6.834   1.047   8.907 -0.1004 -0.1341 -0.2012
  182SLPC   H6R20857   6.909   1.125   8.883  0.4267  0.9207  4.3618
  182SLPC   H6S20858   6.745   1.103   8.944  0.5175  0.2661  0.7065
  182SLPC   C2720859   6.804   0.989   8.766  0.8050 -0.1408 -0.0713
  182SLPC   H7R20860   6.744   1.063   8.708 -0.3279 -0.8982  0.1211
  182SLPC   H7S20861   6.733   0.906   8.786  2.6358 -1.8644 -0.5935
  182SLPC   C2820862   6.927   0.936   8.683  0.2843  0.7602  0.5435
  182SLPC   H8R20863   6.977   0.853   8.737  0.9913  0.1476 -1.0090
  182SLPC   H8S20864   6.996   1.022   8.668  0.8968  0.2528  0.4536
  182SLPC   C2920865   6.872   0.875   8.552  0.3294 -0.8664  0.0140
  182SLPC   H9R20866   6.811   0.784   8.558 -0.5809 -0.5003 -2.8257
  182SLPC  C21020867   6.886   0.931   8.432 -0.2020  0.2908  0.1441
  182SLPC  H10R20868   6.834   0.892   8.344  0.7211 -0.0943 -0.2292
  182SLPC  C21120869   6.958   1.061   8.399 -0.4627  0.4365 -0.2042
  182SLPC  H11R20870   7.019   1.092   8.487 -0.2139  0.3736 -0.3548
  182SLPC  H11S20871   6.885   1.143   8.382 -1.0082 -0.0026 -0.0140
  182SLPC  C21220872   7.048   1.047   8.278  0.2821 -0.0349 -0.0577
  182SLPC  H12R20873   7.156   1.041   8.296  0.5948  1.9529 -1.1082
  182SLPC  C21320874   7.011   1.055   8.150  0.3942 -0.6509  0.8538
  182SLPC  H13R20875   7.074   1.010   8.072  2.2278 -0.1006  1.9913
  182SLPC  C21420876   6.861   1.085   8.118  0.8948 -0.1680  0.2885
  182SLPC  H14R20877   6.857   1.194   8.093 -1.6512 -0.6094 -1.4110
  182SLPC  H14S20878   6.796   1.068   8.207  0.3845  2.2920  0.4394
  182SLPC  C21520879   6.804   1.002   8.000 -0.6347  0.2295 -0.4935
  182SLPC  H15R20880   6.856   1.032   7.906  0.5022 -0.1866  0.0042
  182SLPC  H15S20881   6.694   1.020   7.993 -0.3980  2.1577  0.3679
  182SLPC  C21620882   6.825   0.853   8.026  0.1125 -0.3201  0.4840
  182SLPC  H16R20883   6.772   0.825   8.119 -0.9500  0.0835  0.0070
  182SLPC  H16S20884   6.931   0.830   8.048 -0.8203 -2.7061  2.7009
  182SLPC  C21720885   6.782   0.770   7.905  0.4367 -0.5877 -0.4419
  182SLPC  H17R20886   6.836   0.801   7.813 -1.0146  1.4875 -0.6379
  182SLPC  H17S20887   6.678   0.801   7.879  1.1862  0.5398 -2.2563
  182SLPC  C21820888   6.796   0.618   7.927  0.0365 -0.0708  0.8818
  182SLPC  H18R20889   6.730   0.564   7.855  2.6248 -2.9111  0.5379
  182SLPC  H18S20890   6.766   0.584   8.029  1.0197 -2.7820  0.3105
  182SLPC  H18T20891   6.900   0.584   7.908  0.0100  0.2648  0.1254
  182SLPC   C3320892   6.658   0.622   9.133  1.1729 -0.1267  0.6128
  182SLPC   H3X20893   6.720   0.577   9.052 -2.1540 -1.7367 -1.1237
  182SLPC   H3Y20894   6.713   0.709   9.175  0.0790  2.3194 -2.8241
  182SLPC   C3420895   6.526   0.668   9.069  0.6962 -0.5687 -0.5825
  182SLPC   H4X20896   6.462   0.698   9.155 -0.9512 -1.8837 -1.3243
  182SLPC   H4Y20897   6.477   0.584   9.016 -1.4732 -0.3269  0.9504
  182SLPC   C3520898   6.547   0.789   8.984 -0.4177  1.0957  0.4594
  182SLPC   H5X20899   6.631   0.767   8.915  0.8436 -1.3029  2.7087
  182SLPC   H5Y20900   6.577   0.874   9.049 -2.0350  1.7346  0.4018
  182SLPC   C3620901   6.422   0.822   8.897 -0.0081 -0.1826  1.2708
  182SLPC   H6X20902   6.403   0.733   8.834  0.2256  0.4541  0.2786
  182SLPC   H6Y20903   6.452   0.901   8.825  1.2688 -0.6435  1.2951
  182SLPC   C3720904   6.305   0.849   8.990  0.1896 -0.3786 -0.9896
  182SLPC   H7X20905   6.331   0.923   9.070 -0.2711  0.1471 -1.3196
  182SLPC   H7Y20906   6.292   0.759   9.054 -0.4118  0.6608  0.3950
  182SLPC   C3820907   6.173   0.879   8.920 -0.7188  1.0930  0.5684
  182SLPC   H8X20908   6.079   0.899   8.976 -1.6440 -0.1516 -0.5075
  182SLPC   H8Y20909   6.163   0.792   8.852  1.9946  2.9190 -2.3113
  182SLPC   C3920910   6.182   1.005   8.836  0.6842 -0.5175  0.4881
  182SLPC   H9X20911   6.261   1.005   8.758  0.2048  0.2077 -0.0046
  182SLPC   H9Y20912   6.170   1.093   8.902 -2.4150 -1.0300  0.7040
  182SLPC  C31020913   6.046   1.013   8.750 -0.2108  0.6633  0.0388
  182SLPC  H10X20914   5.966   1.000   8.827 -0.2707  3.9120  0.5896
  182SLPC  H10Y20915   6.050   0.925   8.682  1.6608  0.5394  0.2914
  182SLPC  C31120916   6.033   1.144   8.684  0.7004  0.3896  0.3853
  182SLPC  H11X20917   6.117   1.154   8.612  0.3332  0.5629 -0.0165
  182SLPC  H11Y20918   6.036   1.222   8.764  2.1328  0.7984 -0.0523
  182SLPC  C31220919   5.901   1.158   8.607  0.2545  0.1387 -0.3681
  182SLPC  H12X20920   5.825   1.197   8.678  0.3457  2.1019 -1.3233
  182SLPC  H12Y20921   5.855   1.062   8.575 -1.9829  0.9261  0.4054
  182SLPC  C31320922   5.907   1.264   8.490 -0.0568  0.1334  0.4948
  182SLPC  H13X20923   5.835   1.234   8.411  0.3063 -1.2091  0.6584
  182SLPC  H13Y20924   6.008   1.258   8.444 -0.4800 -0.4977 -0.3414
  182SLPC  C31420925   5.886   1.404   8.551  0.3332 -0.2067 -0.0613
  182SLPC  H14X20926   5.966   1.435   8.622  1.2477  1.9048 -1.9443
  182SLPC  H14Y20927   5.788   1.404   8.602  0.0365  0.0666 -0.6262
  182SLPC  C31520928   5.895   1.498   8.429  0.2218 -0.1680  0.1922
  182SLPC  H15X20929   5.994   1.491   8.380 -0.6364  1.5023 -1.8345
  182SLPC  H15Y20930   5.884   1.603   8.461  1.0403  0.0205 -0.1440
  182SLPC  C31620931   5.793   1.483   8.316 -0.7915  0.0984 -0.7292
  182SLPC  H16X20932   5.689   1.506   8.347 -0.1179  0.2955  1.4539
  182SLPC  H16Y20933   5.799   1.379   8.275 -0.8436  0.0734 -0.6734
  182SLPC  C31720934   5.828   1.576   8.199  0.7019 -0.1237 -0.3152
  182SLPC  H17X20935   5.894   1.522   8.128  1.7137 -1.3178  1.5231
  182SLPC  H17Y20936   5.871   1.669   8.241  0.5565 -0.2077  0.0206
  182SLPC  C31820937   5.702   1.618   8.109  0.2030 -0.1642  0.0756
  182SLPC  H18X20938   5.634   1.678   8.173  0.0258  1.3388 -1.4833
  182SLPC  H18Y20939   5.659   1.521   8.075 -0.1662  0.2109 -0.5435
  182SLPC  H18Z20940   5.738   1.675   8.021 -2.7054  1.5484 -0.0599
  183SLPC     N20941   7.241   1.021   9.826  0.2789 -0.5096  0.4410
  183SLPC   C1320942   7.325   0.990   9.705 -0.3609  0.3511  0.1398
  183SLPC  H13A20943   7.404   0.918   9.717  1.0557  1.8632  0.0577
  183SLPC  H13B20944   7.256   0.945   9.635 -1.5329  0.1785  1.3694
  183SLPC  H13C20945   7.373   1.081   9.672 -0.1992  0.5459  0.8920
  183SLPC   C1420946   7.161   0.898   9.862  0.5784  0.6056  0.2425
  183SLPC  H14A20947   7.091   0.928   9.937  0.7215 -0.6153  0.8796
  183SLPC  H14B20948   7.106   0.858   9.778  0.3636  2.1706 -0.3697
  183SLPC  H14C20949   7.239   0.829   9.892  0.0268 -0.0846  0.1132
  183SLPC   C1520950   7.146   1.126   9.786  0.0085 -0.5319  0.5415
  183SLPC  H15A20951   7.081   1.083   9.711 -2.4101  1.2900  1.5170
  183SLPC  H15B20952   7.082   1.158   9.867  0.6385 -0.9692  1.2197
  183SLPC  H15C20953   7.191   1.218   9.751 -2.0338 -0.4676 -2.1531
  183SLPC   C1220954   7.331   1.066   9.942  0.1310  0.1446 -0.2859
  183SLPC  H12A20955   7.420   1.005   9.934  0.6045  0.9022 -0.8314
  183SLPC  H12B20956   7.281   1.044  10.036 -0.8067  0.0888 -0.7913
  183SLPC   C1120957   7.362   1.215   9.941 -0.6159 -0.1501 -0.1359
  183SLPC  H11A20958   7.425   1.232  10.031  3.3564 -1.5583 -2.5515
  183SLPC  H11B20959   7.267   1.269   9.964  0.3935  2.3947 -1.8174
  183SLPC     P20960   7.589   1.275   9.807 -0.5807  0.0349 -0.4492
  183SLPC   O1320961   7.640   1.361   9.917  0.9396  0.0728 -0.1519
  183SLPC   O1420962   7.649   1.135   9.800 -0.0425 -0.1119 -0.2728
  183SLPC   O1220963   7.427   1.263   9.821 -0.2144 -0.7859  0.1674
  183SLPC   O1120964   7.606   1.353   9.667  0.5346 -0.3122 -0.0222
  183SLPC    C120965   7.737   1.349   9.609 -0.1809  0.4521  0.4365
  183SLPC    HA20966   7.798   1.437   9.639  0.2673  0.4621 -0.4877
  183SLPC    HB20967   7.796   1.262   9.642 -1.5618 -0.0560  1.6140
  183SLPC    C220968   7.741   1.339   9.454 -0.2544  0.2900  0.4308
  183SLPC    HS20969   7.846   1.328   9.420 -0.5800 -1.2916 -0.0889
  183SLPC   O2120970   7.683   1.455   9.385  0.2071 -0.5091  0.1634
  183SLPC   C2120971   7.748   1.571   9.405 -0.7985  0.3959 -0.7123
  183SLPC   O2220972   7.853   1.576   9.464 -0.0468 -0.4521 -0.0549
  183SLPC   C2220973   7.665   1.688   9.363  0.1114 -0.2334 -0.0897
  183SLPC   H2R20974   7.567   1.649   9.327  0.8186 -1.1211 -1.0808
  183SLPC   H2S20975   7.651   1.769   9.438 -0.8137  0.4590 -0.9964
  183SLPC    C320976   7.673   1.200   9.412 -0.3190  0.0479  0.2792
  183SLPC    HX20977   7.565   1.211   9.434 -0.5046  1.4288 -1.2563
  183SLPC    HY20978   7.719   1.113   9.465  1.3426 -0.2094 -1.4986
  183SLPC   O3120979   7.680   1.175   9.268 -0.4479 -0.3728  0.0444
  183SLPC   C3120980   7.795   1.129   9.216  0.5751 -0.1826 -0.4843
  183SLPC   O3220981   7.891   1.097   9.282  0.0775 -0.8029  0.0895
  183SLPC   C3220982   7.788   1.094   9.066 -0.2055 -0.0575 -0.9358
  183SLPC   H2X20983   7.725   1.003   9.057 -0.5416  0.1177 -0.3603
  183SLPC   H2Y20984   7.892   1.070   9.034 -0.0408  1.6819 -1.8075
  183SLPC   C2320985   7.721   1.754   9.238  0.6877 -0.6132 -0.1491
  183SLPC   H3R20986   7.832   1.757   9.246  0.7258 -1.4924 -0.3847
  183SLPC   H3S20987   7.675   1.854   9.225 -0.8823 -1.6314 -2.7287
  183SLPC   C2420988   7.681   1.669   9.116  0.8766 -0.1561  0.0007
  183SLPC   H4R20989   7.571   1.674   9.109  0.9856  0.3483 -1.4482
  183SLPC   H4S20990   7.712   1.565   9.140 -1.5001 -1.0641 -0.7541
  183SLPC   C2520991   7.721   1.719   8.979  0.9205  0.3432 -0.5706
  183SLPC   H5R20992   7.830   1.728   8.964  0.6363  0.8593 -2.5300
  183SLPC   H5S20993   7.691   1.824   8.961 -0.3030 -0.2409 -2.1914
  183SLPC   C2620994   7.668   1.636   8.859  0.8362  0.1287 -0.2679
  183SLPC   H6R20995   7.557   1.631   8.851  0.9973  1.0431 -4.1454
  183SLPC   H6S20996   7.707   1.533   8.863 -1.2377 -0.6140  1.8614
  183SLPC   C2720997   7.718   1.696   8.737  0.0089  0.8523  0.6920
  183SLPC   H7R20998   7.824   1.727   8.754  1.6075 -3.8500  0.0809
  183SLPC   H7S20999   7.653   1.783   8.713 -0.9031  0.1278  0.5143
  183SLPC   C2821000   7.727   1.607   8.605  0.4837 -0.5792 -0.2586
  183SLPC   H8R21001   7.726   1.681   8.522  2.4506 -1.3834 -1.0250
  183SLPC   H8S21002   7.631   1.551   8.595  0.6430 -0.6765 -1.3028
  183SLPC   C2921003   7.843   1.513   8.577 -0.0881 -0.2730  0.0909
  183SLPC   H9R21004   7.844   1.412   8.621 -1.7326 -0.3491 -0.0271
  183SLPC  C21021005   7.959   1.550   8.519  0.6079  0.3428  0.0637
  183SLPC  H10R21006   8.020   1.469   8.476  1.2434  0.4802  0.7154
  183SLPC  C21121007   7.985   1.689   8.471 -0.2008 -0.2993  0.8423
  183SLPC  H11R21008   7.954   1.764   8.547  0.2514  2.7090 -1.8667
  183SLPC  H11S21009   7.929   1.701   8.376 -0.5237  0.8507  1.1700
  183SLPC  C21221010   8.135   1.704   8.449 -0.2074 -0.2162  0.7765
  183SLPC  H12R21011   8.185   1.769   8.522 -0.6621 -0.4811  1.3346
  183SLPC  C21321012   8.200   1.669   8.336  0.3973 -0.4892 -0.1783
  183SLPC  H13R21013   8.309   1.679   8.344  0.6250 -0.5426 -2.7142
  183SLPC  C21421014   8.154   1.603   8.208  0.4811  0.7153 -0.0041
  183SLPC  H14R21015   8.060   1.651   8.174  0.1075  0.6297  0.8746
  183SLPC  H14S21016   8.132   1.497   8.232 -1.2199  1.2066  0.7301
  183SLPC  C21521017   8.265   1.603   8.099  0.0899  0.2293  0.3170
  183SLPC  H15R21018   8.302   1.706   8.078  1.8691  0.2151  3.0319
  183SLPC  H15S21019   8.235   1.556   8.003 -0.1337 -1.6412  1.2771
  183SLPC  C21621020   8.384   1.515   8.138  0.2957 -0.3154 -0.3715
  183SLPC  H16R21021   8.347   1.410   8.142  1.9327 -0.9757 -1.8839
  183SLPC  H16S21022   8.427   1.541   8.237 -1.4407 -0.6751  0.4985
  183SLPC  C21721023   8.497   1.538   8.046 -0.3869  0.4114 -0.6016
  183SLPC  H17R21024   8.582   1.489   8.098 -1.9170 -1.0346  0.5861
  183SLPC  H17S21025   8.524   1.646   8.050 -1.7770  0.7297  0.6345
  183SLPC  C21821026   8.480   1.488   7.907  0.2194  1.1146 -0.3295
  183SLPC  H18R21027   8.571   1.517   7.850 -1.0875  1.4211 -2.3070
  183SLPC  H18S21028   8.405   1.554   7.858  1.3788  2.9867  0.3346
  183SLPC  H18T21029   8.463   1.379   7.905  0.9888  0.9338  1.8128
  183SLPC   C3321030   7.731   1.193   8.966  0.1761 -0.3993 -0.4850
  183SLPC   H3X21031   7.813   1.269   8.961 -1.1108  1.0631  0.1458
  183SLPC   H3Y21032   7.649   1.251   9.013 -0.0774  0.0272 -1.4253
  183SLPC   C3421033   7.693   1.128   8.831 -0.2575 -1.0376 -0.2815
  183SLPC   H4X21034   7.660   1.203   8.755 -0.7514  0.7134  1.6201
  183SLPC   H4Y21035   7.597   1.075   8.850 -0.1062 -1.0167  0.5313
  183SLPC   C3521036   7.807   1.051   8.763 -0.0630 -0.5570 -0.4446
  183SLPC   H5X21037   7.842   0.960   8.816  1.7193 -0.0533 -0.7164
  183SLPC   H5Y21038   7.895   1.119   8.760 -0.3642 -0.0880  0.9428
  183SLPC   C3621039   7.779   1.001   8.619 -0.1250  0.2632 -0.6247
  183SLPC   H6X21040   7.688   0.937   8.612  0.1582 -0.3468  1.0010
  183SLPC   H6Y21041   7.867   0.941   8.589  0.4074  0.4941  0.4430
  183SLPC   C3721042   7.751   1.108   8.508 -0.2779 -0.0973 -0.0073
  183SLPC   H7X21043   7.833   1.182   8.509 -1.7113  1.5300  0.0170
  183SLPC   H7Y21044   7.652   1.150   8.538 -0.2051 -0.1770  0.3470
  183SLPC   C3821045   7.750   1.043   8.368  0.4954 -0.2436  0.2080
  183SLPC   H8X21046   7.662   0.976   8.360  0.6430 -0.3506 -0.6138
  183SLPC   H8Y21047   7.837   0.974   8.356  0.5221 -0.1258 -0.3000
  183SLPC   C3921048   7.751   1.137   8.249  0.4425  0.0136  0.1080
  183SLPC   H9X21049   7.771   1.090   8.150  1.3689  2.1255 -0.7251
  183SLPC   H9Y21050   7.825   1.217   8.270  1.3292 -0.6008 -0.6637
  183SLPC  C31021051   7.613   1.206   8.245  0.2177  0.7562 -0.4889
  183SLPC  H10X21052   7.569   1.235   8.343  0.7025  0.3901 -0.1596
  183SLPC  H10Y21053   7.540   1.137   8.197 -0.4601 -0.0312  1.6326
  183SLPC  C31121054   7.620   1.328   8.149  0.3175 -0.1208  0.1521
  183SLPC  H11X21055   7.515   1.352   8.121 -0.1248 -1.8570  0.2308
  183SLPC  H11Y21056   7.666   1.307   8.051 -0.3553  1.2977 -0.4741
  183SLPC  C31221057   7.702   1.446   8.209 -0.2169 -0.2415  0.2662
  183SLPC  H12X21058   7.810   1.429   8.190 -0.0113 -0.9703  2.0613
  183SLPC  H12Y21059   7.698   1.448   8.320  1.0403  0.4695  0.3018
  183SLPC  C31321060   7.660   1.587   8.173  0.0855 -0.1435 -0.1622
  183SLPC  H13X21061   7.691   1.661   8.249 -0.5032 -1.3618  1.3002
  183SLPC  H13Y21062   7.549   1.595   8.181  0.1529  0.2190  0.3625
  183SLPC  C31421063   7.706   1.639   8.038 -0.2899 -0.3299 -0.2906
  183SLPC  H14X21064   7.817   1.627   8.044 -0.1316  0.9124 -0.6382
  183SLPC  H14Y21065   7.692   1.748   8.022  0.0384 -0.0936  0.9555
  183SLPC  C31521066   7.653   1.568   7.913 -0.5327 -0.0638 -0.1172
  183SLPC  H15X21067   7.682   1.462   7.930  1.5950  0.8908  2.6514
  183SLPC  H15Y21068   7.704   1.605   7.821 -3.1026  1.1596 -1.0727
  183SLPC  C31621069   7.498   1.576   7.896 -0.0263  0.9355 -0.2081
  183SLPC  H16X21070   7.463   1.680   7.880 -0.6841  0.9628  1.3011
  183SLPC  H16Y21071   7.447   1.536   7.987  0.7661  0.6588  0.1267
  183SLPC  C31721072   7.442   1.504   7.776 -0.6229  0.5728 -0.3826
  183SLPC  H17X21073   7.493   1.548   7.688  0.1510  1.0566  0.2918
  183SLPC  H17Y21074   7.337   1.539   7.767 -0.1615  1.5720 -1.9753
  183SLPC  C31821075   7.449   1.351   7.783  0.7407 -0.8905 -0.1337
  183SLPC  H18X21076   7.403   1.307   7.691  0.4998 -0.8667 -0.0237
  183SLPC  H18Y21077   7.389   1.318   7.870 -0.8484  0.7128 -0.6081
  183SLPC  H18Z21078   7.555   1.320   7.793  0.4623 -2.1718 -0.9884
  184SLPC     N21079   0.651   7.182   9.935 -0.1700  0.6707 -0.5348
  184SLPC   C1321080   0.685   7.197  10.082 -0.6475  0.1376 -0.4784
  184SLPC  H13A21081   0.729   7.104  10.117  2.7149  1.2116 -1.6368
  184SLPC  H13B21082   0.742   7.287  10.099 -1.4927  0.7323 -0.7697
  184SLPC  H13C21083   0.589   7.216  10.127 -0.2039 -0.2230  0.6432
  184SLPC   C1421084   0.567   7.295   9.892  0.5686  0.2404  1.1437
  184SLPC  H14A21085   0.468   7.292   9.934  0.9706 -0.9579  2.0381
  184SLPC  H14B21086   0.618   7.390   9.900 -0.4690  0.7526  1.7506
  184SLPC  H14C21087   0.559   7.284   9.784  2.4297 -1.8691  1.1663
  184SLPC   C1521088   0.562   7.065   9.913  0.7745 -0.0599  0.4456
  184SLPC  H15A21089   0.545   7.031   9.812 -0.1419  0.3872  0.4391
  184SLPC  H15B21090   0.606   6.987   9.973  0.2932 -1.0399 -0.4645
  184SLPC  H15C21091   0.464   7.093   9.949  0.2993 -1.2955  0.1136
  184SLPC   C1221092   0.782   7.176   9.857 -0.4539 -0.3474  0.4443
  184SLPC  H12A21093   0.855   7.111   9.905 -1.6108  0.0163  2.8028
  184SLPC  H12B21094   0.817   7.277   9.867 -1.5746 -0.0722  1.8208
  184SLPC   C1121095   0.786   7.134   9.709  1.0777  0.4461 -0.3390
  184SLPC  H11A21096   0.891   7.129   9.674  1.2694  1.1766  0.1039
  184SLPC  H11B21097   0.739   7.207   9.640 -2.0594 -0.1990  0.9934
  184SLPC     P21098   0.779   6.873   9.694  0.1586  0.1749 -0.0066
  184SLPC   O1321099   0.889   6.849   9.605 -0.4776 -0.1599 -0.0580
  184SLPC   O1421100   0.795   6.834   9.836  0.4329  0.1467  0.0266
  184SLPC   O1221101   0.717   7.017   9.680  0.4751 -0.2125  0.4170
  184SLPC   O1121102   0.662   6.786   9.645  0.0446  0.1253 -0.1696
  184SLPC    C121103   0.585   6.814   9.529 -0.5173  0.2209 -0.2735
  184SLPC    HA21104   0.582   6.924   9.510  3.5295  0.9471  2.5966
  184SLPC    HB21105   0.614   6.747   9.446 -2.7382 -1.4709  0.2814
  184SLPC    C221106   0.441   6.769   9.570 -0.4278  0.2493  0.0627
  184SLPC    HS21107   0.442   6.664   9.605 -1.7690 -0.3253 -1.5368
  184SLPC   O2121108   0.366   6.770   9.444  0.3804 -0.3994 -0.1863
  184SLPC   C2121109   0.247   6.716   9.446 -0.6678  0.0227 -0.4498
  184SLPC   O2221110   0.187   6.656   9.537 -0.3055 -0.2972 -0.1689
  184SLPC   C2221111   0.188   6.744   9.303 -0.1657  0.2505  0.2050
  184SLPC   H2R21112   0.242   6.834   9.267  0.4220  0.4661  1.5822
  184SLPC   H2S21113   0.211   6.653   9.244  0.4339  0.0724  0.7081
  184SLPC    C321114   0.375   6.846   9.694  0.2618  0.4228  0.0463
  184SLPC    HX21115   0.448   6.831   9.776  1.6783 -2.4950 -1.6459
  184SLPC    HY21116   0.278   6.798   9.720 -0.1649  0.0059 -2.1554
  184SLPC   O3121117   0.367   6.986   9.673  0.2036 -0.4672  0.4728
  184SLPC   C3121118   0.248   7.037   9.660 -0.0060  0.4113  0.2333
  184SLPC   O3221119   0.140   6.987   9.666 -0.6549 -0.3505  0.1318
  184SLPC   C3221120   0.256   7.187   9.638 -0.4373 -0.1891  0.3871
  184SLPC   H2X21121   0.347   7.229   9.687 -2.0212  1.8896  1.6082
  184SLPC   H2Y21122   0.163   7.233   9.678  1.0164  1.7309  1.6905
  184SLPC   C2321123   0.036   6.783   9.316 -0.4148 -0.0134  0.0742
  184SLPC   H3R21124   0.022   6.864   9.391 -0.0221  0.6115 -0.5229
  184SLPC   H3S21125  -0.023   6.694   9.349  0.3658 -1.3590 -2.0638
  184SLPC   C2421126  -0.040   6.823   9.185 -0.4338  0.4572 -0.2122
  184SLPC   H4R21127  -0.044   6.729   9.125 -1.0289 -0.2961  0.9791
  184SLPC   H4S21128   0.015   6.901   9.128 -1.9824 -0.2748 -2.8008
  184SLPC   C2521129  -0.178   6.875   9.219  0.9026  0.1999  0.4142
  184SLPC   H5R21130  -0.240   6.804   9.278  0.3511  0.3068 -0.0255
  184SLPC   H5S21131  -0.241   6.887   9.127 -0.2639  2.5059  1.4717
  184SLPC   C2621132  -0.174   7.019   9.284  0.0243 -0.7690 -0.0423
  184SLPC   H6R21133  -0.160   7.017   9.394  0.5854 -0.3629 -0.1064
  184SLPC   H6S21134  -0.279   7.051   9.269 -0.1880 -1.0608  0.7792
  184SLPC   C2721135  -0.078   7.118   9.210 -0.2494  0.2266  0.0949
  184SLPC   H7R21136   0.027   7.086   9.230 -0.0208 -0.7360 -2.4624
  184SLPC   H7S21137  -0.078   7.216   9.262 -2.0293 -0.7295  1.9413
  184SLPC   C2821138  -0.107   7.143   9.065 -0.1194 -0.0132 -0.0945
  184SLPC   H8R21139  -0.201   7.197   9.041  0.2445 -0.1530 -1.9316
  184SLPC   H8S21140  -0.133   7.044   9.023 -1.6329  0.4353 -0.2441
  184SLPC   C2921141   0.017   7.217   8.996  0.5388  0.2155 -0.5763
  184SLPC   H9R21142   0.043   7.320   9.025 -0.7377  0.1588  0.8353
  184SLPC  C21021143   0.083   7.162   8.892  0.4693  0.6950 -0.7287
  184SLPC  H10R21144   0.153   7.225   8.835 -1.0352  2.2900 -0.8401
  184SLPC  C21121145   0.062   7.028   8.827 -0.3707  0.6471 -0.8164
  184SLPC  H11R21146   0.049   7.044   8.718 -0.0329 -0.6255 -1.0564
  184SLPC  H11S21147  -0.032   6.982   8.864  0.3098  0.5262  0.7838
  184SLPC  C21221148   0.167   6.924   8.854 -0.0697 -0.1902 -0.1033
  184SLPC  H12R21149   0.205   6.909   8.956 -0.3251 -0.2507 -0.0153
  184SLPC  C21321150   0.216   6.843   8.759 -0.5104  0.6885  0.1481
  184SLPC  H13R21151   0.305   6.783   8.782 -0.9412  0.8933  2.5823
  184SLPC  C21421152   0.186   6.832   8.613 -0.6432 -0.0977 -0.0639
  184SLPC  H14R21153   0.089   6.881   8.589 -1.2238 -1.6795 -0.9881
  184SLPC  H14S21154   0.182   6.723   8.592  0.8903 -0.1583 -0.1380
  184SLPC  C21521155   0.301   6.887   8.522  0.0768 -0.0796  0.0834
  184SLPC  H15R21156   0.398   6.841   8.549  0.4398 -0.6414 -2.0604
  184SLPC  H15S21157   0.312   6.994   8.547 -2.2206 -0.0313  1.0336
  184SLPC  C21621158   0.258   6.872   8.372  0.4533  0.2154  0.2596
  184SLPC  H16R21159   0.154   6.907   8.352 -0.7841 -2.6758  1.3339
  184SLPC  H16S21160   0.267   6.764   8.347 -0.3799  0.0471  0.6697
  184SLPC  C21721161   0.352   6.964   8.284  0.1065 -0.0640  0.5957
  184SLPC  H17R21162   0.459   6.956   8.314  0.2659 -0.9198 -0.1692
  184SLPC  H17S21163   0.319   7.069   8.295  0.0345 -0.0414  0.1857
  184SLPC  C21821164   0.327   6.921   8.139  0.5299  0.0836  0.4012
  184SLPC  H18R21165   0.394   6.967   8.062  0.7341 -1.4180 -0.3344
  184SLPC  H18S21166   0.222   6.932   8.104  0.9509  1.9131 -0.3794
  184SLPC  H18T21167   0.351   6.813   8.126 -1.9594 -0.4106 -0.2681
  184SLPC   C3321168   0.243   7.205   9.482  0.3554  0.5244 -0.3652
  184SLPC   H3X21169   0.239   7.313   9.457 -1.9896  0.3793 -0.7638
  184SLPC   H3Y21170   0.137   7.180   9.457  0.4555  1.7077 -2.0377
  184SLPC   C3421171   0.357   7.130   9.406 -0.3123  0.7796 -0.0771
  184SLPC   H4X21172   0.336   7.021   9.420  0.8518  0.4050 -1.1275
  184SLPC   H4Y21173   0.460   7.146   9.445  0.4118  1.0200 -2.0059
  184SLPC   C3521174   0.349   7.156   9.256 -0.4100  0.5524  0.5323
  184SLPC   H5X21175   0.350   7.266   9.240 -0.0739  0.9184  2.8587
  184SLPC   H5Y21176   0.246   7.135   9.219 -0.8244  0.3092  1.7744
  184SLPC   C3621177   0.460   7.087   9.174 -0.1140 -0.2101  0.1210
  184SLPC   H6X21178   0.449   6.980   9.198 -0.3270 -0.3968 -0.7630
  184SLPC   H6Y21179   0.557   7.116   9.219 -0.9922  1.2856  1.1165
  184SLPC   C3721180   0.443   7.127   9.025 -0.1773  0.0222 -0.6275
  184SLPC   H7X21181   0.448   7.238   9.018  2.2547  0.3008  3.6896
  184SLPC   H7Y21182   0.352   7.084   8.978  0.2654 -2.9885  1.1504
  184SLPC   C3821183   0.559   7.086   8.934 -0.5026  0.4251 -0.1361
  184SLPC   H8X21184   0.571   6.977   8.953  2.3220  0.8192  0.5805
  184SLPC   H8Y21185   0.655   7.136   8.960 -0.9847  2.1831 -1.6606
  184SLPC   C3921186   0.524   7.112   8.792 -0.1355 -0.1450  0.1897
  184SLPC   H9X21187   0.580   7.204   8.762 -2.3185  1.3837  0.6809
  184SLPC   H9Y21188   0.417   7.136   8.773  0.3969  0.9862 -1.5972
  184SLPC  C31021189   0.575   7.012   8.682 -0.3259 -1.1125 -0.0657
  184SLPC  H10X21190   0.535   7.043   8.583 -0.3350  0.5205  0.4309
  184SLPC  H10Y21191   0.543   6.912   8.717 -0.1000 -1.5437 -1.0823
  184SLPC  C31121192   0.725   6.992   8.674 -0.1463  0.1209 -0.5318
  184SLPC  H11X21193   0.773   6.985   8.773 -2.7279 -0.1190  0.7499
  184SLPC  H11Y21194   0.765   7.081   8.620 -0.2365  0.1876 -0.4901
  184SLPC  C31221195   0.772   6.864   8.603 -0.5440 -0.5444  0.1045
  184SLPC  H12X21196   0.760   6.879   8.494  0.8019 -1.3261 -0.1749
  184SLPC  H12Y21197   0.708   6.783   8.643  0.8403 -1.2305  0.9745
  184SLPC  C31321198   0.919   6.820   8.635 -0.3144  0.2646 -0.4534
  184SLPC  H13X21199   0.928   6.825   8.745  1.0122 -3.1881 -0.3506
  184SLPC  H13Y21200   0.976   6.908   8.596 -0.6560 -0.4037 -2.5170
  184SLPC  C31421201   0.966   6.686   8.585 -1.1460 -1.1019 -0.1922
  184SLPC  H14X21202   0.889   6.607   8.600 -3.1468  0.9557  0.5806
  184SLPC  H14Y21203   1.055   6.658   8.645 -1.2206  1.0133  0.9538
  184SLPC  C31521204   1.002   6.695   8.437  0.4603 -0.4636  0.1054
  184SLPC  H15X21205   1.083   6.771   8.425  0.3239  0.0052  1.9930
  184SLPC  H15Y21206   0.919   6.723   8.368 -0.9740 -2.2330  1.0645
  184SLPC  C31621207   1.050   6.553   8.390  0.6717  0.0456  0.3923
  184SLPC  H16X21208   0.963   6.484   8.384  0.2446  0.7257 -2.0424
  184SLPC  H16Y21209   1.116   6.511   8.468 -1.6889  0.5181  2.7038
  184SLPC  C31721210   1.109   6.572   8.251 -0.0345  0.3111  0.7320
  184SLPC  H17X21211   1.189   6.649   8.252 -1.0550  1.3962  0.4937
  184SLPC  H17Y21212   1.031   6.630   8.197  0.4723  0.8722  0.6035
  184SLPC  C31821213   1.151   6.449   8.176 -0.2619 -0.0680  0.6676
  184SLPC  H18X21214   1.180   6.367   8.246 -2.7063 -1.2716  0.3046
  184SLPC  H18Y21215   1.237   6.472   8.110  0.5585 -2.2057  0.9488
  184SLPC  H18Z21216   1.072   6.408   8.110 -1.4596  0.3027  1.8496
  185SLPC     N21217   3.252   3.003   6.349  0.3291 -0.4664  0.2355
  185SLPC   C1321218   3.195   3.067   6.222 -0.5245  0.3136  0.2618
  185SLPC  H13A21219   3.241   3.163   6.205  0.9176 -0.0925  1.7406
  185SLPC  H13B21220   3.213   3.010   6.132 -2.4153 -0.4672  0.3609
  185SLPC  H13C21221   3.088   3.075   6.232 -0.7498 -1.3808 -0.6326
  185SLPC   C1421222   3.200   3.081   6.462  0.4343 -0.1218  0.6841
  185SLPC  H14A21223   3.235   3.183   6.470 -0.6552  0.1979  1.5753
  185SLPC  H14B21224   3.092   3.081   6.464  0.4076  1.4101  0.4626
  185SLPC  H14C21225   3.230   3.041   6.557 -1.0586 -1.2894  0.6876
  185SLPC   C1521226   3.398   3.010   6.345  0.3430 -0.0227 -0.9929
  185SLPC  H15A21227   3.430   3.103   6.301 -0.0190  1.6807  2.2452
  185SLPC  H15B21228   3.436   2.980   6.442 -2.0294  3.6825  1.1711
  185SLPC  H15C21229   3.443   2.939   6.277  0.1038 -1.6577  0.5282
  185SLPC   C1221230   3.207   2.859   6.367  0.0471 -0.7817  0.5408
  185SLPC  H12A21231   3.225   2.807   6.275 -0.3344 -0.8038  0.4818
  185SLPC  H12B21232   3.101   2.856   6.387 -0.3380 -0.4186 -1.4017
  185SLPC   C1121233   3.255   2.780   6.488  0.1187 -0.9000  0.6510
  185SLPC  H11A21234   3.204   2.682   6.485  2.2202 -1.9613 -2.3298
  185SLPC  H11B21235   3.231   2.832   6.583 -0.0021 -0.1919  0.2403
  185SLPC     P21236   3.469   2.662   6.392 -0.2331  0.0624 -0.2354
  185SLPC   O1321237   3.419   2.657   6.259 -0.2968 -0.4381  0.4352
  185SLPC   O1421238   3.609   2.688   6.418 -0.0798  0.1133  0.4757
  185SLPC   O1221239   3.393   2.766   6.480  0.1524 -0.5174 -0.2230
  185SLPC   O1121240   3.433   2.529   6.460  0.1800 -0.0383 -0.0334
  185SLPC    C121241   3.485   2.490   6.590 -0.0572  0.3831  0.7265
  185SLPC    HA21242   3.550   2.570   6.632  0.5638  1.5131 -2.2350
  185SLPC    HB21243   3.396   2.470   6.653  0.4289  2.0535  1.9893
  185SLPC    C221244   3.573   2.367   6.579  0.5977 -0.0379  1.4122
  185SLPC    HS21245   3.633   2.378   6.486 -0.6842  1.3447  0.7192
  185SLPC   O2121246   3.485   2.251   6.564  0.3358 -0.4671 -0.1897
  185SLPC   C2121247   3.554   2.148   6.521 -0.4261  0.0633 -0.4467
  185SLPC   O2221248   3.674   2.143   6.511 -0.4884  0.2121  0.3554
  185SLPC   C2221249   3.462   2.034   6.483 -0.3198 -0.0353 -0.2351
  185SLPC   H2R21250   3.374   2.043   6.550 -0.8388  1.3093 -1.0758
  185SLPC   H2S21251   3.438   2.056   6.377  0.7835 -0.1317 -0.5010
  185SLPC    C321252   3.654   2.358   6.704  0.1478 -0.3798  0.3748
  185SLPC    HX21253   3.747   2.419   6.695 -0.9296  1.3511  0.6870
  185SLPC    HY21254   3.689   2.253   6.709 -1.7363 -1.0374  0.1350
  185SLPC   O3121255   3.582   2.377   6.829  0.6760  0.0075 -0.1714
  185SLPC   C3121256   3.540   2.265   6.891  0.8213  0.8740  0.4010
  185SLPC   O3221257   3.564   2.153   6.848 -0.2012 -0.4013  0.3462
  185SLPC   C3221258   3.471   2.286   7.027 -0.6498 -0.1491 -0.6106
  185SLPC   H2X21259   3.492   2.383   7.076 -1.0931 -0.8737  1.0800
  185SLPC   H2Y21260   3.504   2.212   7.103 -2.2572 -1.0390 -0.7390
  185SLPC   C2321261   3.507   1.889   6.505 -0.3127  0.1424  0.5083
  185SLPC   H3R21262   3.613   1.872   6.477  0.8284 -1.0166  5.0568
  185SLPC   H3S21263   3.441   1.831   6.437  0.9128  0.0260 -0.5910
  185SLPC   C2421264   3.489   1.838   6.649 -0.4850 -0.4337 -0.1350
  185SLPC   H4R21265   3.397   1.874   6.699 -1.1326 -1.1551 -0.7786
  185SLPC   H4S21266   3.582   1.875   6.697 -0.5207 -1.0654  0.4389
  185SLPC   C2521267   3.478   1.686   6.657 -0.3064  0.0935 -0.0499
  185SLPC   H5R21268   3.558   1.640   6.595  1.9733 -0.1748  2.9545
  185SLPC   H5S21269   3.377   1.659   6.622 -0.1074  0.1373 -0.6648
  185SLPC   C2621270   3.495   1.616   6.796  0.1875 -0.7524 -0.6303
  185SLPC   H6R21271   3.592   1.648   6.839 -0.1481  0.6393 -0.8900
  185SLPC   H6S21272   3.497   1.505   6.805  2.3823 -0.6954 -0.0166
  185SLPC   C2721273   3.405   1.663   6.914  0.3996 -0.2949  0.0945
  185SLPC   H7R21274   3.299   1.644   6.889  0.6023 -0.6693 -0.4989
  185SLPC   H7S21275   3.414   1.774   6.922 -1.5391 -0.1584  0.4756
  185SLPC   C2821276   3.432   1.604   7.055  0.1350  0.4409  0.4139
  185SLPC   H8R21277   3.360   1.652   7.124  1.5835  3.8131 -0.3178
  185SLPC   H8S21278   3.534   1.633   7.085  0.0792  1.7813 -0.6492
  185SLPC   C2921279   3.420   1.457   7.052 -0.2199  0.3492  0.2411
  185SLPC   H9R21280   3.499   1.403   6.997 -0.5553 -1.7889  1.7819
  185SLPC  C21021281   3.327   1.386   7.117 -1.3041 -0.1334 -0.3597
  185SLPC  H10R21282   3.330   1.277   7.101  1.6160  0.1342 -2.1102
  185SLPC  C21121283   3.218   1.435   7.210  0.2837 -0.2032  0.8314
  185SLPC  H11R21284   3.116   1.409   7.173  0.8791 -1.0184 -0.2682
  185SLPC  H11S21285   3.200   1.545   7.218  0.5168 -0.2085  1.4293
  185SLPC  C21221286   3.241   1.374   7.347  0.4955 -0.4162  0.6493
  185SLPC  H12R21287   3.201   1.272   7.361 -0.3416  0.1250  2.2850
  185SLPC  C21321288   3.315   1.434   7.448  0.4577  0.7284  0.0311
  185SLPC  H13R21289   3.345   1.364   7.527 -0.7760  2.2254  1.8874
  185SLPC  C21421290   3.388   1.569   7.452  0.3915 -0.3343 -0.0623
  185SLPC  H14R21291   3.316   1.652   7.433  1.3855  0.2381 -1.4106
  185SLPC  H14S21292   3.459   1.584   7.367 -1.0761 -0.1836 -1.2930
  185SLPC  C21521293   3.451   1.588   7.590 -0.1580 -0.0613  0.0240
  185SLPC  H15R21294   3.521   1.503   7.608  0.2692 -0.0332 -1.4143
  185SLPC  H15S21295   3.370   1.576   7.665 -1.1678 -0.0905 -1.0498
  185SLPC  C21621296   3.520   1.718   7.615 -0.0049  0.2909 -0.4043
  185SLPC  H16R21297   3.458   1.805   7.581 -2.1501 -0.8850  0.3972
  185SLPC  H16S21298   3.616   1.728   7.560 -0.6415  0.4267 -1.5095
  185SLPC  C21721299   3.550   1.744   7.765  0.2124  0.2482  0.3445
  185SLPC  H17R21300   3.460   1.725   7.826  0.6115  1.1826  1.2325
  185SLPC  H17S21301   3.577   1.852   7.768  0.0551  0.2991 -0.0144
  185SLPC  C21821302   3.679   1.669   7.809  0.4230 -0.2539  0.4094
  185SLPC  H18R21303   3.711   1.693   7.913  1.0724 -1.6476  0.5447
  185SLPC  H18S21304   3.764   1.678   7.738  1.0832 -0.8541  1.1125
  185SLPC  H18T21305   3.667   1.558   7.811  1.2407 -0.3858 -1.5454
  185SLPC   C3321306   3.318   2.274   7.014  0.6922  0.2033 -0.5777
  185SLPC   H3X21307   3.288   2.302   6.911  0.8038  3.8316  0.3310
  185SLPC   H3Y21308   3.274   2.346   7.086  2.5862 -1.3026  2.2265
  185SLPC   C3421309   3.257   2.133   7.049 -0.0853  0.0545  0.4942
  185SLPC   H4X21310   3.300   2.051   6.987  0.6202  0.8606 -0.0832
  185SLPC   H4Y21311   3.148   2.129   7.030  0.0992  2.3273 -1.3292
  185SLPC   C3521312   3.282   2.093   7.197 -0.1982 -0.5040  0.1898
  185SLPC   H5X21313   3.389   2.078   7.226  0.3587  2.1643 -0.2979
  185SLPC   H5Y21314   3.248   1.990   7.219 -0.2038  0.1373  3.4235
  185SLPC   C3621315   3.217   2.190   7.301 -0.6898 -0.2119  0.1340
  185SLPC   H6X21316   3.112   2.191   7.265 -0.3918 -0.8164 -0.7792
  185SLPC   H6Y21317   3.260   2.292   7.300  2.6692 -1.4414  3.4067
  185SLPC   C3721318   3.220   2.132   7.442 -0.8378  0.5162  0.0610
  185SLPC   H7X21319   3.322   2.139   7.485 -0.9819  1.5789  0.2560
  185SLPC   H7Y21320   3.197   2.024   7.428 -0.5916  0.6173 -1.1287
  185SLPC   C3821321   3.111   2.205   7.531 -0.3266 -0.4595 -0.0539
  185SLPC   H8X21322   3.027   2.230   7.463 -0.2286 -0.3261 -0.1288
  185SLPC   H8Y21323   3.151   2.304   7.562  3.8904 -1.4010 -2.1216
  185SLPC   C3921324   3.086   2.122   7.656 -0.6918  0.4688 -0.9571
  185SLPC   H9X21325   3.050   2.021   7.627  0.2319 -0.0362 -0.3752
  185SLPC   H9Y21326   3.009   2.168   7.720  1.8703  2.3117  0.9123
  185SLPC  C31021327   3.210   2.114   7.749 -0.2242  0.1956 -0.5488
  185SLPC  H10X21328   3.253   2.216   7.750 -3.6762  1.7581 -1.4333
  185SLPC  H10Y21329   3.274   2.035   7.705 -1.6581 -0.9523 -0.6384
  185SLPC  C31121330   3.168   2.062   7.885  0.1752  0.4578 -0.1694
  185SLPC  H11X21331   3.091   2.125   7.936  1.1031 -1.3991  3.7148
  185SLPC  H11Y21332   3.256   2.050   7.951 -0.6125 -1.3561  0.5844
  185SLPC  C31221333   3.111   1.917   7.900 -0.2709  0.0549  0.6654
  185SLPC  H12X21334   3.188   1.855   7.849  0.9675  2.7070 -0.8116
  185SLPC  H12Y21335   3.022   1.905   7.834 -0.6356 -0.8593  1.3122
  185SLPC  C31321336   3.086   1.880   8.046  0.5459 -0.4760 -0.3266
  185SLPC  H13X21337   3.025   1.962   8.090  1.7751 -0.2864  1.0403
  185SLPC  H13Y21338   3.182   1.866   8.099 -0.6610 -2.3502  1.4244
  185SLPC  C31421339   3.005   1.751   8.060 -0.3409  0.4796 -0.1955
  185SLPC  H14X21340   2.905   1.754   8.011 -1.7325 -2.9912  2.2809
  185SLPC  H14Y21341   2.980   1.733   8.167  0.4886 -0.0852 -0.0951
  185SLPC  C31521342   3.076   1.617   8.010  0.2425  0.2704 -0.6049
  185SLPC  H15X21343   3.079   1.600   7.900  2.3220 -1.5462 -0.3169
  185SLPC  H15Y21344   3.023   1.541   8.072  1.8565 -0.9133 -0.6265
  185SLPC  C31621345   3.225   1.603   8.052 -0.3419  0.3716 -0.2194
  185SLPC  H16X21346   3.239   1.611   8.162 -0.2102 -1.8576 -0.0622
  185SLPC  H16Y21347   3.284   1.685   8.005 -0.7751 -0.0434 -1.5166
  185SLPC  C31721348   3.274   1.473   8.003 -0.8449 -0.5066  0.2384
  185SLPC  H17X21349   3.255   1.454   7.896 -0.9703  0.9676  0.0007
  185SLPC  H17Y21350   3.230   1.396   8.070 -0.2156 -0.0135  1.2397
  185SLPC  C31821351   3.423   1.466   8.021 -0.6656 -0.7560  0.0941
  185SLPC  H18X21352   3.455   1.370   7.975 -1.5809 -1.3979  0.7860
  185SLPC  H18Y21353   3.451   1.454   8.128  0.8187  0.8303 -0.1013
  185SLPC  H18Z21354   3.475   1.560   7.992  2.9214 -2.6099  0.2440
  186SLPC     N21355   3.671   4.865   6.161 -0.5933 -0.0962 -0.0579
  186SLPC   C1321356   3.670   4.751   6.059  0.0881 -0.8709  0.1750
  186SLPC  H13A21357   3.709   4.657   6.094  0.0616 -0.7741  0.4668
  186SLPC  H13B21358   3.572   4.706   6.049  0.5331 -1.6480 -0.8200
  186SLPC  H13C21359   3.708   4.772   5.960  0.0128  0.1120  0.3521
  186SLPC   C1421360   3.808   4.919   6.155 -0.3009  0.1611 -0.9228
  186SLPC  H14A21361   3.819   4.990   6.236  0.7843  1.4936 -2.2094
  186SLPC  H14B21362   3.885   4.845   6.170  1.5791  2.6595  2.7151
  186SLPC  H14C21363   3.825   4.971   6.062  0.9182  1.6136  0.0582
  186SLPC   C1521364   3.630   4.825   6.300  0.7880  0.4663  0.7815
  186SLPC  H15A21365   3.609   4.908   6.365 -0.9744 -0.5163  1.4953
  186SLPC  H15B21366   3.541   4.764   6.292 -0.2778  2.1970 -0.8612
  186SLPC  H15C21367   3.700   4.767   6.358 -1.3842 -0.9895  2.0259
  186SLPC   C1221368   3.574   4.975   6.111 -0.1238 -0.2744  0.0145
  186SLPC  H12A21369   3.610   5.018   6.019 -0.6924 -0.0920 -0.1233
  186SLPC  H12B21370   3.579   5.048   6.191 -0.7750 -0.1786 -0.0318
  186SLPC   C1121371   3.439   4.923   6.085 -0.2479  0.4460 -0.3730
  186SLPC  H11A21372   3.401   4.855   6.164  1.7156  0.0875  0.2861
  186SLPC  H11B21373   3.435   4.854   5.998  0.8974 -0.7022  0.4764
  186SLPC     P21374   3.275   5.114   6.181  0.3588  0.2585 -0.3652
  186SLPC   O1321375   3.232   5.242   6.123 -0.3567  0.5530 -0.3100
  186SLPC   O1421376   3.166   5.028   6.231 -0.1063  0.6634 -0.2172
  186SLPC   O1221377   3.340   5.029   6.067 -0.0477  0.1364 -0.4296
  186SLPC   O1121378   3.392   5.142   6.286 -0.3317 -0.5392 -0.3325
  186SLPC    C121379   3.382   5.062   6.403  0.7290  0.5679 -0.2241
  186SLPC    HA21380   3.376   4.953   6.380  0.4533  0.6575 -0.5935
  186SLPC    HB21381   3.480   5.089   6.447  0.0912  2.1278  0.2649
  186SLPC    C221382   3.274   5.099   6.508 -0.4101  0.0675 -0.3516
  186SLPC    HS21383   3.185   5.053   6.460 -0.5844 -1.3039  1.2603
  186SLPC   O2121384   3.267   5.240   6.520 -0.4899 -0.1097 -0.2410
  186SLPC   C2121385   3.151   5.281   6.577  0.8585 -0.2504 -0.4091
  186SLPC   O2221386   3.051   5.220   6.595  0.4885  0.4130  0.1476
  186SLPC   C2221387   3.170   5.431   6.616  0.0450  0.2563 -0.3741
  186SLPC   H2R21388   3.275   5.463   6.598  0.5695 -1.6247 -0.7776
  186SLPC   H2S21389   3.111   5.487   6.540 -2.6065 -0.8864  0.7976
  186SLPC    C321390   3.291   5.023   6.649  0.0227 -0.3001  0.7805
  186SLPC    HX21391   3.305   4.917   6.622  3.4407 -0.0091  1.1952
  186SLPC    HY21392   3.192   5.044   6.695 -1.3080 -1.2914 -1.5553
  186SLPC   O3121393   3.401   5.085   6.725  0.4497  0.2512 -0.0877
  186SLPC   C3121394   3.516   5.031   6.709  0.5180 -0.4379 -0.7093
  186SLPC   O3221395   3.548   4.945   6.634  0.5743  0.4169 -0.0744
  186SLPC   C3221396   3.616   5.105   6.803  0.2266 -0.0625  0.0780
  186SLPC   H2X21397   3.677   5.169   6.736 -1.2725  0.4250 -0.8523
  186SLPC   H2Y21398   3.672   5.022   6.852  0.6879 -0.1241 -0.5574
  186SLPC   C2321399   3.124   5.488   6.747  0.3592  0.2141 -0.7756
  186SLPC   H3R21400   3.015   5.469   6.763  0.3192  1.0414 -0.0590
  186SLPC   H3S21401   3.135   5.598   6.745 -1.1650  0.3913 -0.3573
  186SLPC   C2421402   3.214   5.451   6.867  0.2898  0.4134  0.1375
  186SLPC   H4R21403   3.282   5.539   6.869  0.3422  0.3373  2.1831
  186SLPC   H4S21404   3.278   5.362   6.852 -0.9963 -0.0612 -2.8603
  186SLPC   C2521405   3.152   5.450   7.004 -0.2156 -0.3949 -0.3775
  186SLPC   H5R21406   3.061   5.514   7.004 -1.6845 -2.3826 -3.1422
  186SLPC   H5S21407   3.221   5.499   7.076  1.1615 -0.5010 -1.5842
  186SLPC   C2621408   3.112   5.311   7.056 -0.0987  0.4397 -0.0375
  186SLPC   H6R21409   3.057   5.324   7.151  0.4174 -3.3883  0.8965
  186SLPC   H6S21410   3.206   5.259   7.084  0.6863  2.9615  2.2346
  186SLPC   C2721411   3.022   5.233   6.963  0.2791  0.1634  0.5787
  186SLPC   H7R21412   3.066   5.228   6.860 -1.0392 -0.6324  0.0483
  186SLPC   H7S21413   2.928   5.287   6.940 -0.0708 -0.0800  1.4417
  186SLPC   C2821414   2.995   5.090   6.996  0.3636 -0.2352 -0.3563
  186SLPC   H8R21415   3.093   5.038   7.009  1.9907  2.3265 -1.9086
  186SLPC   H8S21416   2.954   5.039   6.906  0.8561 -1.0525 -0.1210
  186SLPC   C2921417   2.901   5.087   7.111 -0.3971  0.0908  0.0360
  186SLPC   H9R21418   2.839   5.174   7.138 -0.4261  0.2794 -0.6528
  186SLPC  C21021419   2.884   4.977   7.192  0.2639 -0.0464  0.2550
  186SLPC  H10R21420   2.817   4.971   7.279 -0.6183 -1.0609 -0.4858
  186SLPC  C21121421   2.952   4.841   7.181 -0.1814 -0.4319  0.4327
  186SLPC  H11R21422   3.053   4.839   7.226 -1.1041 -0.6679  2.5388
  186SLPC  H11S21423   2.969   4.821   7.073  3.8343  0.8552  0.7572
  186SLPC  C21221424   2.879   4.721   7.243 -0.2338 -0.0809  0.2629
  186SLPC  H12R21425   2.836   4.660   7.163  2.2731 -2.4659  0.6488
  186SLPC  C21321426   2.860   4.704   7.374 -0.3201  0.0218 -0.1806
  186SLPC  H13R21427   2.804   4.615   7.404  0.1588  0.0663  0.8985
  186SLPC  C21421428   2.907   4.786   7.490  0.3401  0.1597 -0.3388
  186SLPC  H14R21429   2.972   4.872   7.462 -0.2776  0.0174 -2.2598
  186SLPC  H14S21430   2.960   4.727   7.567  2.0446  2.7611  0.5577
  186SLPC  C21521431   2.784   4.851   7.561  0.6967  0.0052 -0.3880
  186SLPC  H15R21432   2.722   4.770   7.605  2.2130 -0.6674  0.5545
  186SLPC  H15S21433   2.741   4.901   7.471  0.5105 -0.6590 -0.6711
  186SLPC  C21621434   2.821   4.956   7.667  0.0403 -0.1558  0.2303
  186SLPC  H16R21435   2.896   5.015   7.612  0.0677 -1.0346 -0.6937
  186SLPC  H16S21436   2.885   4.910   7.745 -0.8965 -1.9531 -0.0241
  186SLPC  C21721437   2.707   5.041   7.722  0.6005  0.4109  0.3687
  186SLPC  H17R21438   2.647   4.969   7.782  0.2268  0.3722 -0.0454
  186SLPC  H17S21439   2.634   5.065   7.642  0.0450  1.3845  1.1485
  186SLPC  C21821440   2.744   5.176   7.792  0.1117  0.4206 -0.1335
  186SLPC  H18R21441   2.817   5.149   7.871  1.1674  2.8524 -0.2431
  186SLPC  H18S21442   2.656   5.224   7.840  0.7034  0.7515  0.6393
  186SLPC  H18T21443   2.799   5.250   7.730  1.4581  0.8739  1.5801
  186SLPC   C3321444   3.547   5.188   6.912 -0.2028  0.0767  0.2481
  186SLPC   H3X21445   3.469   5.127   6.963  0.2975  0.8898  2.0192
  186SLPC   H3Y21446   3.502   5.279   6.867 -1.3520  0.0465  1.3235
  186SLPC   C3421447   3.661   5.221   7.011 -0.2646  0.0622  0.3435
  186SLPC   H4X21448   3.748   5.262   6.957  0.6875 -0.3488  1.5389
  186SLPC   H4Y21449   3.699   5.128   7.059 -0.0505  0.5223  1.0675
  186SLPC   C3521450   3.616   5.324   7.119  0.2861  0.8601  0.1285
  186SLPC   H5X21451   3.689   5.330   7.202 -0.7090 -1.9070  1.2475
  186SLPC   H5Y21452   3.517   5.289   7.155  0.5947 -0.9289 -0.7010
  186SLPC   C3621453   3.610   5.466   7.059  0.7727 -0.4826  0.3527
  186SLPC   H6X21454   3.554   5.465   6.963 -2.9003 -0.9298  2.4224
  186SLPC   H6Y21455   3.706   5.516   7.032 -0.2644  1.1625 -0.4227
  186SLPC   C3721456   3.530   5.551   7.154  0.0302  0.2815  0.1432
  186SLPC   H7X21457   3.436   5.501   7.186  0.5978 -1.1087 -0.3204
  186SLPC   H7Y21458   3.505   5.650   7.111 -0.9525  0.2319  0.5726
  186SLPC   C3821459   3.604   5.590   7.277 -0.4830  0.1202  0.5613
  186SLPC   H8X21460   3.686   5.660   7.249 -1.5285  0.7299 -1.0012
  186SLPC   H8Y21461   3.662   5.507   7.324  2.4009  0.2124 -2.6231
  186SLPC   C3921462   3.514   5.664   7.380  0.4027  0.6372  0.0437
  186SLPC   H9X21463   3.424   5.603   7.404  0.0434  0.4594 -1.6557
  186SLPC   H9Y21464   3.484   5.755   7.323  1.6002  0.8195 -0.3103
  186SLPC  C31021465   3.592   5.708   7.505  0.2395  0.0705 -0.1854
  186SLPC  H10X21466   3.517   5.766   7.563 -0.7160  0.0277 -1.3415
  186SLPC  H10Y21467   3.670   5.784   7.486  0.2544  0.5047  1.5229
  186SLPC  C31121468   3.645   5.601   7.605  0.3958  0.4700 -0.0052
  186SLPC  H11X21469   3.686   5.662   7.688 -0.1104  1.3809 -0.4284
  186SLPC  H11Y21470   3.736   5.546   7.571 -0.6226 -1.0236 -0.3915
  186SLPC  C31221471   3.538   5.493   7.651 -0.2298 -0.2746 -0.1981
  186SLPC  H12X21472   3.492   5.444   7.562 -1.1770  1.8187 -0.8921
  186SLPC  H12Y21473   3.453   5.554   7.689 -0.9916  0.5695 -3.0779
  186SLPC  C31321474   3.598   5.392   7.745 -1.1620  0.7444  0.5334
  186SLPC  H13X21475   3.667   5.446   7.813  1.4485 -3.0490  1.0486
  186SLPC  H13Y21476   3.658   5.333   7.672  0.6276  1.7257  1.1924
  186SLPC  C31421477   3.497   5.301   7.816  0.4374  0.3307  0.0792
  186SLPC  H14X21478   3.469   5.215   7.751 -0.3877  0.6341  0.0297
  186SLPC  H14Y21479   3.400   5.353   7.832  0.2841  0.6061 -1.6217
  186SLPC  C31521480   3.544   5.233   7.943 -0.4584 -0.1282 -0.2748
  186SLPC  H15X21481   3.627   5.167   7.911 -0.1729  0.6057 -1.0422
  186SLPC  H15Y21482   3.463   5.163   7.975 -1.0870  0.7521  0.0893
  186SLPC  C31621483   3.580   5.311   8.065  0.9654  0.0942 -0.2943
  186SLPC  H16X21484   3.486   5.368   8.081 -0.5381 -1.7333 -2.2912
  186SLPC  H16Y21485   3.654   5.386   8.032 -1.6194  1.8394 -2.3842
  186SLPC  C31721486   3.636   5.236   8.189  0.9492  0.3936  0.0414
  186SLPC  H17X21487   3.666   5.316   8.260  0.5133 -2.3925  3.4822
  186SLPC  H17Y21488   3.722   5.172   8.158  2.1214  0.8041  2.3311
  186SLPC  C31821489   3.526   5.159   8.266  0.0834  0.2947  0.6820
  186SLPC  H18X21490   3.573   5.093   8.343  2.5530 -0.8083 -1.6572
  186SLPC  H18Y21491   3.468   5.088   8.203  0.1115  1.1556 -0.3151
  186SLPC  H18Z21492   3.448   5.220   8.315 -2.7438 -1.5891 -1.3356
  187SLPC     N21493   3.697   1.483   6.118  0.0767 -0.1639 -0.5849
  187SLPC   C1321494   3.592   1.547   6.206  0.1193  0.4806 -0.5279
  187SLPC  H13A21495   3.550   1.635   6.160 -1.3745  0.3445  0.5457
  187SLPC  H13B21496   3.506   1.488   6.235 -1.2687  2.9474  0.4539
  187SLPC  H13C21497   3.636   1.561   6.304 -0.1746 -0.6565 -0.2165
  187SLPC   C1421498   3.796   1.592   6.095  0.2900  0.5454 -0.7170
  187SLPC  H14A21499   3.752   1.681   6.051  1.9898  1.4888 -0.5489
  187SLPC  H14B21500   3.841   1.632   6.184 -0.5319  0.2403 -0.1644
  187SLPC  H14C21501   3.876   1.557   6.031  0.6910  1.0324 -0.4901
  187SLPC   C1521502   3.635   1.445   5.984 -0.1443  0.5070 -0.1412
  187SLPC  H15A21503   3.713   1.423   5.912 -0.2988  1.3878 -0.5841
  187SLPC  H15B21504   3.565   1.364   5.995  0.8177  0.0033  2.8815
  187SLPC  H15C21505   3.587   1.529   5.936  0.2692 -0.6491 -2.6667
  187SLPC   C1221506   3.753   1.360   6.191 -0.6700 -0.5349  0.2764
  187SLPC  H12A21507   3.830   1.321   6.126 -0.8522 -2.1525  1.0141
  187SLPC  H12B21508   3.680   1.280   6.186 -0.1900 -0.8948 -1.3482
  187SLPC   C1121509   3.807   1.373   6.330 -0.6567  0.3261 -0.1006
  187SLPC  H11A21510   3.863   1.468   6.343 -1.9421  1.1898 -0.6985
  187SLPC  H11B21511   3.875   1.289   6.356 -0.1220  0.4690 -1.0073
  187SLPC     P21512   3.602   1.250   6.457  0.0407  0.1729  0.2333
  187SLPC   O1321513   3.470   1.301   6.496  0.6413  0.4732  0.1458
  187SLPC   O1421514   3.596   1.141   6.360 -0.3162  0.8695  0.0586
  187SLPC   O1221515   3.693   1.370   6.405  0.2878 -0.1323 -0.5338
  187SLPC   O1121516   3.684   1.193   6.576 -0.8743 -0.2082  0.4050
  187SLPC    C121517   3.745   1.274   6.683  0.5553  0.4323 -0.3648
  187SLPC    HA21518   3.762   1.379   6.652  1.3993  0.9640  1.7992
  187SLPC    HB21519   3.671   1.294   6.763  2.4099  1.5939  1.1307
  187SLPC    C221520   3.873   1.219   6.746 -0.2682 -0.2350  0.3279
  187SLPC    HS21521   3.945   1.195   6.665 -1.2122 -1.6646 -0.0991
  187SLPC   O2121522   3.852   1.106   6.830 -0.1314 -0.3437  0.2140
  187SLPC   C2121523   3.953   1.017   6.849  0.5608 -0.4448 -0.3158
  187SLPC   O2221524   4.051   1.018   6.784  0.0999 -0.0782  0.5968
  187SLPC   C2221525   3.931   0.932   6.973  0.4599  0.4823 -0.2079
  187SLPC   H2R21526   3.827   0.943   7.012 -0.2605  0.4559 -2.0602
  187SLPC   H2S21527   3.934   0.823   6.950 -0.7366  0.1576  1.0758
  187SLPC    C321528   3.941   1.326   6.840  0.0870  0.3622  0.1615
  187SLPC    HX21529   3.956   1.411   6.770  0.1671  1.0844  1.0412
  187SLPC    HY21530   4.035   1.273   6.866  0.2376  0.6971  0.3036
  187SLPC   O3121531   3.865   1.372   6.948  0.1008 -0.0145  0.1598
  187SLPC   C3121532   3.930   1.389   7.060 -0.0353  0.2206  0.3655
  187SLPC   O3221533   4.048   1.367   7.080 -0.4713  0.2877 -0.1808
  187SLPC   C3221534   3.843   1.442   7.172 -0.6544  0.7458 -0.7764
  187SLPC   H2X21535   3.741   1.465   7.132 -0.5306 -1.8852 -2.7172
  187SLPC   H2Y21536   3.887   1.536   7.211 -0.4342  0.6715 -0.8442
  187SLPC   C2321537   4.028   0.974   7.089 -0.3922  0.1926 -0.6260
  187SLPC   H3R21538   4.019   1.084   7.096  0.2861  0.2156 -0.0127
  187SLPC   H3S21539   4.128   0.941   7.053 -1.9584 -3.6927 -1.6865
  187SLPC   C2421540   4.003   0.904   7.229  0.1013  0.0166 -0.4637
  187SLPC   H4R21541   4.001   0.793   7.231  1.0559 -0.0108 -0.6760
  187SLPC   H4S21542   3.898   0.926   7.259  0.6297  0.4831  1.0788
  187SLPC   C2521543   4.090   0.954   7.341  0.7855  0.3812  0.5704
  187SLPC   H5R21544   4.191   0.913   7.320  0.5888  0.0832  0.1938
  187SLPC   H5S21545   4.052   0.906   7.433  2.5787 -1.9411  0.1290
  187SLPC   C2621546   4.091   1.103   7.371  0.3190  0.1706  0.1001
  187SLPC   H6R21547   3.983   1.130   7.382  0.0603 -0.7816 -0.0698
  187SLPC   H6S21548   4.129   1.161   7.285  1.4995  1.2504  1.3143
  187SLPC   C2721549   4.192   1.121   7.483 -0.0634  0.0894 -0.1884
  187SLPC   H7R21550   4.287   1.072   7.455  0.2847  0.9130 -0.4683
  187SLPC   H7S21551   4.146   1.066   7.568  0.8601  0.6286  0.6711
  187SLPC   C2821552   4.216   1.266   7.512 -0.2446  0.3709  0.7864
  187SLPC   H8R21553   4.117   1.317   7.515 -0.4021  0.2994 -1.8777
  187SLPC   H8S21554   4.264   1.306   7.420  1.1135 -1.2948  0.7623
  187SLPC   C2921555   4.294   1.279   7.645  0.1114 -0.3865 -0.1955
  187SLPC   H9R21556   4.369   1.200   7.661 -2.1378 -2.6812 -0.7198
  187SLPC  C21021557   4.274   1.367   7.739 -0.4536 -0.8694 -0.1642
  187SLPC  H10R21558   4.354   1.364   7.815  0.5378 -2.2026 -1.2175
  187SLPC  C21121559   4.168   1.477   7.728  0.2024 -0.3639 -0.4278
  187SLPC  H11R21560   4.080   1.436   7.782  1.0184 -2.0857 -0.3693
  187SLPC  H11S21561   4.131   1.501   7.626 -2.3937 -0.4953  0.4416
  187SLPC  C21221562   4.229   1.602   7.776  0.4963 -0.1771 -0.3552
  187SLPC  H12R21563   4.267   1.675   7.703  0.5388  0.3098  0.1507
  187SLPC  C21321564   4.229   1.647   7.903  0.0230 -0.0501  0.8061
  187SLPC  H13R21565   4.296   1.732   7.919  1.6305 -1.4602  1.6690
  187SLPC  C21421566   4.165   1.587   8.020  0.6149  0.0406 -0.8900
  187SLPC  H14R21567   4.062   1.550   7.998  0.1223  1.3753 -0.8518
  187SLPC  H14S21568   4.146   1.657   8.103 -0.2904 -3.0488  1.6242
  187SLPC  C21521569   4.255   1.467   8.074 -0.2328  0.2268 -0.3305
  187SLPC  H15R21570   4.356   1.513   8.070 -0.3898  0.4609 -2.1180
  187SLPC  H15S21571   4.230   1.390   7.997 -1.7618  0.4605 -0.0865
  187SLPC  C21621572   4.195   1.427   8.204 -0.7845  0.5035 -0.0825
  187SLPC  H16R21573   4.218   1.321   8.229  1.7474  0.7886 -0.9817
  187SLPC  H16S21574   4.085   1.430   8.218 -0.5716  0.8080  1.6633
  187SLPC  C21721575   4.229   1.521   8.322 -0.5942 -0.0382  0.3762
  187SLPC  H17R21576   4.181   1.619   8.301  1.7185  0.4110 -3.3729
  187SLPC  H17S21577   4.338   1.543   8.327 -0.3350 -1.4024  0.9894
  187SLPC  C21821578   4.183   1.463   8.457 -0.5464  0.3040  0.3280
  187SLPC  H18R21579   4.198   1.544   8.532 -0.6495 -0.1017  0.7845
  187SLPC  H18S21580   4.245   1.374   8.479 -0.7049  0.2616  0.5966
  187SLPC  H18T21581   4.076   1.436   8.448 -0.4831 -0.1028  0.7790
  187SLPC   C3321582   3.827   1.349   7.296 -0.3310 -0.4491  0.2655
  187SLPC   H3X21583   3.928   1.322   7.332 -0.7497 -1.0715  1.0232
  187SLPC   H3Y21584   3.789   1.248   7.269  3.1643 -2.5206  2.6506
  187SLPC   C3421585   3.734   1.398   7.413 -0.0252 -0.0987  0.0640
  187SLPC   H4X21586   3.629   1.401   7.379 -0.3199  1.2064  1.0807
  187SLPC   H4Y21587   3.766   1.503   7.427  0.2231 -0.0786 -0.6400
  187SLPC   C3521588   3.751   1.305   7.538  0.1850 -0.3805  0.0081
  187SLPC   H5X21589   3.712   1.362   7.625 -3.4579  0.8148 -2.2595
  187SLPC   H5Y21590   3.856   1.279   7.564 -0.5850 -1.4713  2.1707
  187SLPC   C3621591   3.665   1.181   7.528 -0.1773  0.9372 -0.0571
  187SLPC   H6X21592   3.713   1.116   7.451 -0.7911 -0.0544  0.3913
  187SLPC   H6Y21593   3.565   1.199   7.484  0.2900 -2.5641 -2.8096
  187SLPC   C3721594   3.643   1.113   7.666  0.3999 -0.2530 -0.7621
  187SLPC   H7X21595   3.735   1.119   7.728 -1.5466 -0.3357  2.2357
  187SLPC   H7Y21596   3.569   1.172   7.725  0.3397 -0.5704 -0.5184
  187SLPC   C3821597   3.617   0.963   7.665  0.3594 -0.0718 -0.1467
  187SLPC   H8X21598   3.676   0.912   7.586  3.2646 -0.8186  2.4088
  187SLPC   H8Y21599   3.509   0.942   7.649  0.0028  2.2760 -1.1399
  187SLPC   C3921600   3.657   0.888   7.790 -0.2385 -0.7526 -0.4340
  187SLPC   H9X21601   3.615   0.785   7.794 -2.2538 -0.0799 -2.9360
  187SLPC   H9Y21602   3.615   0.936   7.882 -0.2407 -1.4262 -0.0838
  187SLPC  C31021603   3.814   0.865   7.797  0.2471 -0.8747 -0.6094
  187SLPC  H10X21604   3.863   0.965   7.802 -2.4876  0.5416 -0.9605
  187SLPC  H10Y21605   3.848   0.822   7.701 -0.8611 -0.9477 -0.9846
  187SLPC  C31121606   3.869   0.788   7.923 -0.1143  0.3421  0.2273
  187SLPC  H11X21607   3.827   0.686   7.930 -1.5295  0.7038 -2.1837
  187SLPC  H11Y21608   3.835   0.830   8.020 -0.1262 -1.4184  0.9944
  187SLPC  C31221609   4.021   0.802   7.910 -0.4550  0.8457  0.0959
  187SLPC  H12X21610   4.066   0.739   7.989 -0.9375  0.9077  0.4249
  187SLPC  H12Y21611   4.051   0.906   7.935 -1.3612  1.0225  0.4693
  187SLPC  C31321612   4.075   0.756   7.771  0.0730  0.5156 -0.3071
  187SLPC  H13X21613   4.042   0.823   7.688 -0.6697  1.9816  1.1634
  187SLPC  H13Y21614   4.041   0.653   7.747 -1.4708  0.5475  1.6872
  187SLPC  C31421615   4.229   0.763   7.776 -0.1884 -0.4174  0.3096
  187SLPC  H14X21616   4.262   0.696   7.858  1.0630  0.3085  0.4137
  187SLPC  H14Y21617   4.268   0.865   7.793  0.7943 -1.1359  2.4602
  187SLPC  C31521618   4.309   0.727   7.654 -1.2394  0.0375  0.5427
  187SLPC  H15X21619   4.419   0.725   7.668 -0.9708 -0.3380 -1.4399
  187SLPC  H15Y21620   4.291   0.789   7.563  0.1922 -0.6335 -0.2024
  187SLPC  C31621621   4.277   0.584   7.608 -1.0999  0.3515 -0.5570
  187SLPC  H16X21622   4.322   0.567   7.507  0.6481 -0.7122  0.3789
  187SLPC  H16Y21623   4.167   0.570   7.602 -1.2927  2.1474 -1.6687
  187SLPC  C31721624   4.332   0.475   7.702 -0.7128  0.1546  0.2907
  187SLPC  H17X21625   4.283   0.475   7.802 -0.0065 -1.6565  0.6517
  187SLPC  H17Y21626   4.438   0.491   7.731 -0.1302 -1.3305 -0.9573
  187SLPC  C31821627   4.319   0.336   7.648  0.1862 -0.1501  0.1557
  187SLPC  H18X21628   4.362   0.332   7.546 -0.3271  1.2468 -0.1262
  187SLPC  H18Y21629   4.213   0.304   7.647  0.3425 -0.9395  2.9052
  187SLPC  H18Z21630   4.374   0.262   7.710  3.7761  2.1886 -0.0674
  188SLPC     N21631   6.002   3.288   6.305 -0.1160 -0.0277  0.1704
  188SLPC   C1321632   5.858   3.330   6.309  0.4977  0.0869 -0.0431
  188SLPC  H13A21633   5.794   3.287   6.234 -1.1310  0.4593  1.0982
  188SLPC  H13B21634   5.821   3.290   6.402 -1.7940  0.8364 -0.5920
  188SLPC  H13C21635   5.842   3.436   6.326  0.0546 -0.2428  1.7064
  188SLPC   C1421636   6.062   3.310   6.440  0.5372  0.2850 -0.0946
  188SLPC  H14A21637   6.056   3.415   6.466 -1.2503 -0.0811  1.0497
  188SLPC  H14B21638   6.020   3.243   6.513  1.8535 -1.5272 -0.9666
  188SLPC  H14C21639   6.167   3.287   6.439  0.7913  1.4473 -1.1876
  188SLPC   C1521640   6.075   3.373   6.197  0.2021 -0.4973  0.4398
  188SLPC  H15A21641   6.060   3.478   6.217 -2.4097 -0.8056  0.3165
  188SLPC  H15B21642   6.181   3.354   6.193  0.0950 -1.0926  0.3695
  188SLPC  H15C21643   6.025   3.361   6.102 -0.6416 -2.4501  1.0946
  188SLPC   C1221644   6.021   3.138   6.280  0.1258 -0.2304  0.5136
  188SLPC  H12A21645   5.945   3.093   6.343 -1.7399  0.3728 -1.2789
  188SLPC  H12B21646   6.114   3.109   6.326  0.6554  1.9832  0.8901
  188SLPC   C1121647   5.998   3.078   6.137 -0.0840  0.9140 -0.5107
  188SLPC  H11A21648   6.014   2.968   6.135 -0.8764  0.8067 -1.6749
  188SLPC  H11B21649   6.075   3.116   6.067  0.6012  0.7184  0.1334
  188SLPC     P21650   5.731   3.045   6.125 -0.0652  0.1910 -0.2134
  188SLPC   O1321651   5.643   3.151   6.181 -0.5713  0.1723  0.2041
  188SLPC   O1421652   5.682   2.955   6.017  0.6529  0.5363 -0.3221
  188SLPC   O1221653   5.866   3.114   6.083  0.2771  0.0959  0.2993
  188SLPC   O1121654   5.781   2.957   6.243  0.9414  0.2815  0.8878
  188SLPC    C121655   5.699   2.853   6.303  1.1556  0.7835 -0.5768
  188SLPC    HA21656   5.590   2.872   6.292  0.6448 -2.5043 -1.8328
  188SLPC    HB21657   5.730   2.758   6.255  0.4064  0.2527 -0.0386
  188SLPC    C221658   5.718   2.857   6.458  0.0385 -0.3564 -0.2892
  188SLPC    HS21659   5.658   2.772   6.498 -0.9895  0.4695 -0.0544
  188SLPC   O2121660   5.684   2.989   6.516  0.3206 -0.2810 -0.1437
  188SLPC   C2121661   5.557   3.011   6.546  0.4442  1.4192 -0.3974
  188SLPC   O2221662   5.466   2.933   6.532  0.1898 -0.0718  0.5959
  188SLPC   C2221663   5.541   3.148   6.616 -0.8534 -0.2442 -0.3056
  188SLPC   H2R21664   5.594   3.224   6.554  1.0821 -1.8920 -0.7353
  188SLPC   H2S21665   5.435   3.181   6.611 -0.6798  0.7863  2.3234
  188SLPC    C321666   5.869   2.817   6.483 -0.0873  0.2173 -0.7249
  188SLPC    HX21667   5.939   2.873   6.417 -1.7612  2.4903 -0.6154
  188SLPC    HY21668   5.868   2.709   6.457  2.1665 -0.0673  0.2372
  188SLPC   O3121669   5.914   2.832   6.624 -0.5934  0.2023  0.4877
  188SLPC   C3121670   5.965   2.951   6.648 -0.2979  0.1353  1.1002
  188SLPC   O3221671   5.982   3.037   6.565  0.0870 -0.4659 -1.0897
  188SLPC   C3221672   6.014   2.956   6.794  0.4188  1.2277  0.6707
  188SLPC   H2X21673   6.080   2.869   6.817 -0.0989  0.3903 -0.9102
  188SLPC   H2Y21674   5.927   2.954   6.863  1.8265 -1.5232  2.5038
  188SLPC   C2321675   5.605   3.152   6.762 -0.2225 -0.1398 -0.4849
  188SLPC   H3R21676   5.620   3.258   6.793  1.5544 -0.6282  0.4167
  188SLPC   H3S21677   5.704   3.102   6.754  0.0514  0.3580 -0.2362
  188SLPC   C2421678   5.518   3.075   6.867 -0.1797 -0.6019  0.3981
  188SLPC   H4R21679   5.486   2.976   6.829  1.4422 -0.7473 -0.6298
  188SLPC   H4S21680   5.427   3.135   6.891  0.2838  0.4169 -0.3515
  188SLPC   C2521681   5.579   3.054   7.012 -0.0862 -0.5418  0.2272
  188SLPC   H5R21682   5.581   3.153   7.063  0.5884  0.1037 -1.0486
  188SLPC   H5S21683   5.685   3.023   7.008  0.4699  1.1747  0.9561
  188SLPC   C2621684   5.492   2.941   7.082 -0.0659  1.1263 -0.2736
  188SLPC   H6R21685   5.520   2.849   7.027  1.1328  1.7827 -0.7814
  188SLPC   H6S21686   5.391   2.983   7.065 -1.0229  0.0571  2.5300
  188SLPC   C2721687   5.521   2.922   7.233 -0.1427 -0.2453  0.0284
  188SLPC   H7R21688   5.503   3.014   7.294  0.8342 -1.6830  2.5694
  188SLPC   H7S21689   5.624   2.899   7.268 -1.5694 -1.5811  3.4873
  188SLPC   C2821690   5.426   2.813   7.285 -0.3801  0.2894 -0.0542
  188SLPC   H8R21691   5.461   2.795   7.389 -0.0482  3.0869  0.3627
  188SLPC   H8S21692   5.454   2.724   7.224 -0.2178 -0.1209  0.6193
  188SLPC   C2921693   5.278   2.819   7.286  0.1958  0.3077  0.1391
  188SLPC   H9R21694   5.232   2.759   7.206  2.1232 -0.1647 -0.6402
  188SLPC  C21021695   5.207   2.910   7.354 -0.5523  0.3290 -0.1039
  188SLPC  H10R21696   5.097   2.904   7.347 -0.5727 -0.3742  0.8102
  188SLPC  C21121697   5.257   3.017   7.445  0.3595 -0.1750 -0.5295
  188SLPC  H11R21698   5.359   2.985   7.477 -0.2432 -1.0003  0.6048
  188SLPC  H11S21699   5.193   3.018   7.535  0.3748  0.9126 -0.5334
  188SLPC  C21221700   5.246   3.160   7.392 -0.4797  0.4957  0.3119
  188SLPC  H12R21701   5.291   3.183   7.294  0.1982  0.4071  0.6017
  188SLPC  C21321702   5.211   3.267   7.462  0.0423 -0.1004  0.5091
  188SLPC  H13R21703   5.176   3.361   7.416  0.3822 -0.3255 -0.2139
  188SLPC  C21421704   5.178   3.266   7.607  0.3084  0.1783 -0.1232
  188SLPC  H14R21705   5.242   3.193   7.662  0.0286  0.2453  0.2941
  188SLPC  H14S21706   5.072   3.236   7.618  0.1565  1.4636  2.3610
  188SLPC  C21521707   5.192   3.399   7.680 -0.0564  0.3370 -0.6009
  188SLPC  H15R21708   5.132   3.478   7.629  0.8089  1.6886  0.4175
  188SLPC  H15S21709   5.298   3.431   7.686  0.1925 -0.6447  0.3740
  188SLPC  C21621710   5.146   3.400   7.823  0.0330  0.1928 -1.0256
  188SLPC  H16R21711   5.213   3.336   7.884 -1.3447 -0.1657  0.1552
  188SLPC  H16S21712   5.047   3.353   7.842 -0.5822  2.1217  0.8083
  188SLPC  C21721713   5.151   3.533   7.893 -0.3873 -0.5185  0.7309
  188SLPC  H17R21714   5.058   3.587   7.866 -0.9290 -2.7433 -2.0359
  188SLPC  H17S21715   5.235   3.596   7.859 -1.3290  1.8532  2.6753
  188SLPC  C21821716   5.163   3.515   8.050  0.3239  0.8352 -0.6029
  188SLPC  H18R21717   5.158   3.610   8.109  1.6202 -0.3640  1.5095
  188SLPC  H18S21718   5.260   3.472   8.082 -0.0375  0.2529 -0.2681
  188SLPC  H18T21719   5.085   3.443   8.085  0.2286  1.3532  0.2761
  188SLPC   C3321720   6.085   3.085   6.820  0.5785  0.0558 -0.7960
  188SLPC   H3X21721   6.035   3.181   6.795  0.1667  0.0995  0.1848
  188SLPC   H3Y21722   6.167   3.078   6.746  1.2061 -0.7554 -0.0388
  188SLPC   C3421723   6.155   3.098   6.959  0.2855  0.5074  0.2787
  188SLPC   H4X21724   6.255   3.051   6.949  0.6773  1.3597  0.1149
  188SLPC   H4Y21725   6.108   3.033   7.035  0.8519 -2.0274 -1.4555
  188SLPC   C3521726   6.174   3.242   7.008  0.1449 -0.5402  0.1100
  188SLPC   H5X21727   6.195   3.311   6.923 -1.3784  1.2498  1.1423
  188SLPC   H5Y21728   6.264   3.244   7.074  1.4056  2.5138 -1.5912
  188SLPC   C3621729   6.057   3.309   7.089  0.9305 -0.4372 -0.0212
  188SLPC   H6X21730   6.094   3.409   7.118 -1.0499  0.5126 -0.6330
  188SLPC   H6Y21731   6.036   3.257   7.185 -1.4655 -1.1735 -0.9035
  188SLPC   C3721732   5.931   3.331   6.992 -0.1992 -0.3241  0.2747
  188SLPC   H7X21733   5.881   3.235   6.970 -1.5557  1.1643 -3.7263
  188SLPC   H7Y21734   5.967   3.360   6.890  0.8396 -1.7406  0.2287
  188SLPC   C3821735   5.823   3.430   7.045 -0.1854 -0.0299 -0.0159
  188SLPC   H8X21736   5.724   3.404   7.003 -1.9660  2.3119  2.6217
  188SLPC   H8Y21737   5.854   3.532   7.015  1.2413 -0.4272  0.0337
  188SLPC   C3921738   5.818   3.424   7.201 -0.0497 -0.0220  0.3895
  188SLPC   H9X21739   5.749   3.499   7.246  0.3635 -0.0282  1.0384
  188SLPC   H9Y21740   5.919   3.453   7.240  0.1019 -0.0035 -0.0218
  188SLPC  C31021741   5.776   3.288   7.257 -0.1138 -0.0658  0.7144
  188SLPC  H10X21742   5.840   3.210   7.211 -1.0064  0.4173 -1.4180
  188SLPC  H10Y21743   5.680   3.275   7.203  0.9159 -1.7970 -0.7355
  188SLPC  C31121744   5.776   3.265   7.409  0.5605  0.3192  0.1281
  188SLPC  H11X21745   5.710   3.345   7.451  0.8616  0.2406  0.7575
  188SLPC  H11Y21746   5.881   3.274   7.442  0.1900  0.7784  1.2364
  188SLPC  C31221747   5.722   3.126   7.465 -0.0386  0.3144 -0.6354
  188SLPC  H12X21748   5.772   3.043   7.412  0.9742 -0.8242  1.9946
  188SLPC  H12Y21749   5.611   3.126   7.457 -0.0421  0.9974 -0.6390
  188SLPC  C31321750   5.765   3.110   7.618 -0.3551  0.8142 -0.3749
  188SLPC  H13X21751   5.875   3.116   7.633 -0.4067 -1.1778  0.9580
  188SLPC  H13Y21752   5.731   3.010   7.654 -0.7159  0.1360 -2.4945
  188SLPC  C31421753   5.710   3.228   7.705 -0.2394  0.5331 -0.5484
  188SLPC  H14X21754   5.602   3.239   7.684 -0.9197  0.6871  2.7841
  188SLPC  H14Y21755   5.754   3.324   7.672 -0.5587  0.8361 -0.1010
  188SLPC  C31521756   5.737   3.213   7.858  0.5222  0.1130 -0.3021
  188SLPC  H15X21757   5.673   3.131   7.897 -0.3606  0.4042 -1.1109
  188SLPC  H15Y21758   5.679   3.299   7.896 -0.7612 -1.3265  1.0879
  188SLPC  C31621759   5.882   3.218   7.906 -0.4698  0.1747  0.6817
  188SLPC  H16X21760   5.925   3.306   7.854  0.2663 -0.2295  0.6011
  188SLPC  H16Y21761   5.937   3.130   7.866 -2.0229 -0.4510 -0.1285
  188SLPC  C31721762   5.897   3.249   8.054 -0.1976  0.0032 -0.0054
  188SLPC  H17X21763   5.812   3.204   8.110 -1.3221  1.7123 -0.2866
  188SLPC  H17Y21764   5.893   3.359   8.070  0.8450  0.1881 -0.9317
  188SLPC  C31821765   6.036   3.207   8.104 -0.0035 -0.6954  0.6412
  188SLPC  H18X21766   6.120   3.233   8.037  0.1710 -0.4337  0.9583
  188SLPC  H18Y21767   6.024   3.101   8.135 -0.9459 -0.6522  0.4339
  188SLPC  H18Z21768   6.063   3.249   8.204 -0.3928  0.6367  0.1941
  189SLPC     N21769   6.466   3.573   6.091  0.1374 -0.1079  0.4050
  189SLPC   C1321770   6.437   3.576   5.944  0.3867 -0.4391  0.4842
  189SLPC  H13A21771   6.530   3.565   5.890  1.5024  1.4215  1.9650
  189SLPC  H13B21772   6.389   3.484   5.915  2.4680 -1.3591 -0.1676
  189SLPC  H13C21773   6.375   3.661   5.922  0.0592 -0.2730  2.0128
  189SLPC   C1421774   6.335   3.581   6.168 -0.5600  0.3428 -0.2995
  189SLPC  H14A21775   6.290   3.677   6.150  0.9301  0.8658 -1.3405
  189SLPC  H14B21776   6.270   3.507   6.123 -1.1098  1.0228 -0.6135
  189SLPC  H14C21777   6.347   3.545   6.269  0.3482 -0.0849 -0.5491
  189SLPC   C1521778   6.550   3.700   6.131 -0.0062  0.2666  0.5331
  189SLPC  H15A21779   6.569   3.695   6.237 -1.6248  1.1684  0.8779
  189SLPC  H15B21780   6.646   3.694   6.081  1.0681 -1.2793  2.7105
  189SLPC  H15C21781   6.503   3.790   6.096 -1.0953 -0.5123 -0.0233
  189SLPC   C1221782   6.540   3.454   6.130 -0.5980  0.3994  0.1634
  189SLPC  H12A21783   6.572   3.451   6.233  2.4520 -1.4259 -0.7474
  189SLPC  H12B21784   6.642   3.446   6.094 -0.4353 -1.0362  0.8720
  189SLPC   C1121785   6.472   3.318   6.122 -1.0413 -0.3656 -0.8557
  189SLPC  H11A21786   6.544   3.234   6.129 -1.6966 -0.6885  2.5258
  189SLPC  H11B21787   6.428   3.310   6.020 -0.7782 -2.6591 -0.8249
  189SLPC     P21788   6.415   3.249   6.364 -0.3087 -0.3533 -0.2462
  189SLPC   O1321789   6.365   3.338   6.475 -0.2153  0.3260  0.6831
  189SLPC   O1421790   6.372   3.106   6.372  0.6963  0.2272  0.1696
  189SLPC   O1221791   6.376   3.303   6.225 -0.6536 -0.0890  0.1890
  189SLPC   O1121792   6.574   3.240   6.366 -0.1522  0.1630  0.0974
  189SLPC    C121793   6.666   3.339   6.402 -0.5122  0.4409 -0.3443
  189SLPC    HA21794   6.727   3.352   6.311 -0.0172  1.0648  0.0787
  189SLPC    HB21795   6.612   3.435   6.419  2.2203  1.8271  0.7472
  189SLPC    C221796   6.761   3.292   6.516 -0.6129  0.1954 -1.0263
  189SLPC    HS21797   6.814   3.202   6.478  0.8014  1.1926 -1.4692
  189SLPC   O2121798   6.683   3.273   6.633  0.0788  0.6641  0.0800
  189SLPC   C2121799   6.648   3.152   6.648 -0.5854 -0.6945 -0.6654
  189SLPC   O2221800   6.684   3.057   6.573 -0.0134 -0.3226  0.4812
  189SLPC   C2221801   6.560   3.132   6.776 -0.2616 -0.1964 -0.2291
  189SLPC   H2R21802   6.469   3.195   6.765  0.4847  1.0656  0.6342
  189SLPC   H2S21803   6.529   3.028   6.753 -1.2382 -0.1299  0.7580
  189SLPC    C321804   6.858   3.410   6.547 -0.2180 -0.0118  0.0912
  189SLPC    HX21805   6.921   3.435   6.458 -0.9920  2.4174  0.2054
  189SLPC    HY21806   6.917   3.397   6.640  0.1327  1.1810  0.0481
  189SLPC   O3121807   6.775   3.532   6.567  0.1242  0.1346 -0.5889
  189SLPC   C3121808   6.830   3.637   6.622  0.2639 -0.1234 -0.5295
  189SLPC   O3221809   6.947   3.647   6.653 -0.5602  0.0881 -0.2064
  189SLPC   C3221810   6.722   3.739   6.657 -0.6186 -0.0769 -0.2790
  189SLPC   H2X21811   6.630   3.719   6.598 -1.1976 -2.2604  1.2913
  189SLPC   H2Y21812   6.759   3.841   6.635 -1.1297  0.5606  1.7067
  189SLPC   C2321813   6.635   3.156   6.909  0.4070 -0.0987 -0.2100
  189SLPC   H3R21814   6.567   3.149   6.996  1.3850  2.9273  0.8776
  189SLPC   H3S21815   6.666   3.262   6.901 -1.9618  0.7854  1.9492
  189SLPC   C2421816   6.755   3.060   6.927  0.5363  0.1990  0.2582
  189SLPC   H4R21817   6.834   3.069   6.849  0.6876  1.2600  0.5241
  189SLPC   H4S21818   6.717   2.956   6.930  0.5927  0.0892 -1.9738
  189SLPC   C2521819   6.829   3.082   7.059  0.6470 -0.5389  0.2525
  189SLPC   H5R21820   6.761   3.085   7.147 -0.4646  0.2988 -0.6295
  189SLPC   H5S21821   6.890   3.175   7.064 -2.6039  1.6291  0.8100
  189SLPC   C2621822   6.932   2.968   7.094  0.0366 -0.5117  0.4494
  189SLPC   H6R21823   6.998   2.964   7.004 -1.8812  3.9451 -1.3255
  189SLPC   H6S21824   6.869   2.877   7.097 -2.3443  0.8524 -3.9541
  189SLPC   C2721825   7.010   2.995   7.219  0.5799  0.4446 -1.1219
  189SLPC   H7R21826   7.071   2.904   7.237 -0.5804  0.2798  2.4833
  189SLPC   H7S21827   6.952   2.998   7.314  2.2315  1.2801 -0.1243
  189SLPC   C2821828   7.104   3.119   7.228 -0.3724 -0.1671  0.3021
  189SLPC   H8R21829   7.053   3.218   7.221  0.0884  0.1039  0.7560
  189SLPC   H8S21830   7.166   3.117   7.135 -0.0752 -2.5979  0.5301
  189SLPC   C2921831   7.189   3.113   7.351  0.0615  0.4769 -0.2585
  189SLPC   H9R21832   7.129   3.102   7.443  2.5518 -2.5545  1.0834
  189SLPC  C21021833   7.324   3.128   7.357  0.2062  0.3767  1.3799
  189SLPC  H10R21834   7.378   3.117   7.452 -0.9849  0.1434  2.0424
  189SLPC  C21121835   7.414   3.165   7.236 -0.2636  0.1461  0.0328
  189SLPC  H11R21836   7.372   3.146   7.135  0.8665 -1.4603 -0.1458
  189SLPC  H11S21837   7.504   3.102   7.252 -1.0337 -0.6637  1.2674
  189SLPC  C21221838   7.445   3.309   7.247  0.4673 -0.1011 -0.1942
  189SLPC  H12R21839   7.382   3.381   7.193  0.0956  0.6752  1.2398
  189SLPC  C21321840   7.543   3.366   7.324  0.1486 -0.3482 -0.0799
  189SLPC  H13R21841   7.565   3.473   7.317  0.1775 -0.2972  0.7028
  189SLPC  C21421842   7.634   3.299   7.423 -0.3949 -0.7182 -0.2600
  189SLPC  H14R21843   7.642   3.189   7.403  1.9281 -0.6430  0.1134
  189SLPC  H14S21844   7.600   3.318   7.527  1.0329 -1.4887  0.3658
  189SLPC  C21521845   7.778   3.353   7.407 -0.2831  0.0008  0.3977
  189SLPC  H15R21846   7.850   3.307   7.478  0.7857  0.0272 -0.6543
  189SLPC  H15S21847   7.792   3.463   7.419  1.0376 -0.0837 -0.2720
  189SLPC  C21621848   7.859   3.327   7.276  0.1096  0.1623 -0.0373
  189SLPC  H16R21849   7.795   3.379   7.202 -0.4327 -1.9040 -1.0787
  189SLPC  H16S21850   7.857   3.219   7.249 -0.3648  0.2505 -0.3770
  189SLPC  C21721851   8.004   3.374   7.267 -0.5492 -0.5437  0.2704
  189SLPC  H17R21852   8.018   3.484   7.275  0.6926 -0.5661 -1.2941
  189SLPC  H17S21853   8.035   3.355   7.162  0.7245  1.1392  0.3094
  189SLPC  C21821854   8.096   3.309   7.372 -0.1866  0.3387 -0.2133
  189SLPC  H18R21855   8.204   3.335   7.366 -0.1084 -0.1441 -0.9871
  189SLPC  H18S21856   8.087   3.199   7.358 -1.3518  0.3367  0.5248
  189SLPC  H18T21857   8.059   3.331   7.474 -0.5001  1.8462 -0.6292
  189SLPC   C3321858   6.687   3.750   6.812 -0.2533  0.2104 -0.4624
  189SLPC   H3X21859   6.626   3.843   6.817 -4.3594 -2.4200  0.9409
  189SLPC   H3Y21860   6.775   3.771   6.877 -0.8131 -0.8505  0.6524
  189SLPC   C3421861   6.605   3.631   6.866 -0.0247 -0.6292 -0.1152
  189SLPC   H4X21862   6.646   3.536   6.826 -0.4197 -1.6105  1.7492
  189SLPC   H4Y21863   6.501   3.643   6.828 -0.1297  1.9516  0.8977
  189SLPC   C3521864   6.591   3.633   7.027  0.2575 -0.5399  0.3850
  189SLPC   H5X21865   6.535   3.725   7.053 -0.7035 -0.4146 -1.9874
  189SLPC   H5Y21866   6.694   3.640   7.069  0.3006  0.2388  0.1523
  189SLPC   C3621867   6.519   3.502   7.083 -0.8957  0.1752 -0.2574
  189SLPC   H6X21868   6.524   3.417   7.012  2.8756  0.2056 -0.1381
  189SLPC   H6Y21869   6.412   3.532   7.092 -0.5587  1.3462  0.0207
  189SLPC   C3721870   6.564   3.448   7.220 -0.8842 -0.1304 -0.6323
  189SLPC   H7X21871   6.504   3.357   7.239  0.8164 -0.7354  1.9592
  189SLPC   H7Y21872   6.549   3.523   7.301 -1.1189  0.3098 -1.0760
  189SLPC   C3821873   6.710   3.414   7.230  0.0256 -0.0909 -0.1333
  189SLPC   H8X21874   6.770   3.506   7.241  1.7809 -1.0307 -1.5435
  189SLPC   H8Y21875   6.737   3.352   7.142 -3.6866  0.3394 -1.7030
  189SLPC   C3921876   6.741   3.327   7.360  0.6063 -0.0158  0.2275
  189SLPC   H9X21877   6.848   3.308   7.339  0.6456  0.5769 -0.1234
  189SLPC   H9Y21878   6.679   3.236   7.370  0.2780  0.0811 -0.8704
  189SLPC  C31021879   6.723   3.403   7.493  0.1366  0.1878 -0.5965
  189SLPC  H10X21880   6.618   3.411   7.527  0.3449  0.1058  0.0843
  189SLPC  H10Y21881   6.758   3.506   7.474 -1.8348  0.1968 -4.5233
  189SLPC  C31121882   6.807   3.336   7.605  0.6129 -0.4412 -0.0680
  189SLPC  H11X21883   6.916   3.341   7.584  1.2348  1.0862  3.2064
  189SLPC  H11Y21884   6.772   3.232   7.618  2.5141 -1.0365  0.4317
  189SLPC  C31221885   6.780   3.406   7.744 -0.4158 -0.5002 -1.0153
  189SLPC  H12X21886   6.818   3.336   7.822  0.0088 -2.7180 -3.1792
  189SLPC  H12Y21887   6.672   3.417   7.768 -0.1874  0.2543 -0.3015
  189SLPC  C31321888   6.837   3.549   7.754 -0.0284 -0.3063  0.3509
  189SLPC  H13X21889   6.839   3.603   7.657 -1.0369  0.1204  0.5599
  189SLPC  H13Y21890   6.943   3.549   7.788  0.0308 -0.3970  0.1648
  189SLPC  C31421891   6.752   3.639   7.852 -0.1179  0.5174  0.1998
  189SLPC  H14X21892   6.652   3.657   7.807 -0.1804 -0.7181 -0.1613
  189SLPC  H14Y21893   6.810   3.734   7.850 -1.3714  1.2709 -2.1148
  189SLPC  C31521894   6.737   3.583   7.990  0.8600  0.0970 -0.2805
  189SLPC  H15X21895   6.828   3.527   8.021  0.7401  0.4825  0.7782
  189SLPC  H15Y21896   6.659   3.503   7.992  1.7753 -0.8011  0.1773
  189SLPC  C31621897   6.704   3.691   8.099  0.3730  0.0396 -0.4799
  189SLPC  H16X21898   6.595   3.712   8.092  0.1936 -1.3904 -2.2456
  189SLPC  H16Y21899   6.765   3.782   8.085  2.4767 -1.0791  1.1618
  189SLPC  C31721900   6.750   3.653   8.246  0.2355 -0.2638  0.4162
  189SLPC  H17X21901   6.861   3.640   8.246  0.3087  0.3592 -0.3470
  189SLPC  H17Y21902   6.706   3.557   8.278  1.0258 -0.2335  1.6355
  189SLPC  C31821903   6.716   3.766   8.342  0.2738  0.1528  0.5079
  189SLPC  H18X21904   6.716   3.736   8.449  0.4463 -1.1795  0.1413
  189SLPC  H18Y21905   6.613   3.803   8.321  0.5630  0.8396  0.2879
  189SLPC  H18Z21906   6.778   3.856   8.324 -2.9891  1.8128 -2.9844
  190SLPC     N21907   6.760   2.892   6.257  0.5200  0.3007  0.0287
  190SLPC   C1321908   6.835   2.912   6.383 -1.0999 -0.1398 -0.1057
  190SLPC  H13A21909   6.894   2.825   6.408  1.7761  1.3673 -1.3896
  190SLPC  H13B21910   6.903   2.995   6.371 -2.7934  1.2988 -0.0183
  190SLPC  H13C21911   6.769   2.929   6.467  0.3707  1.0940  0.8198
  190SLPC   C1421912   6.662   2.997   6.241 -0.1214 -0.0561 -0.2623
  190SLPC  H14A21913   6.716   3.087   6.216  1.7302 -1.1696 -0.3460
  190SLPC  H14B21914   6.591   2.976   6.163 -0.3589 -0.4463  0.0570
  190SLPC  H14C21915   6.613   3.030   6.331 -0.1696  1.4443 -0.8188
  190SLPC   C1521916   6.683   2.759   6.256  0.2843 -0.4918  0.4435
  190SLPC  H15A21917   6.755   2.681   6.271  0.8278  0.2488  1.8290
  190SLPC  H15B21918   6.614   2.759   6.340 -1.6140  0.4878 -1.0645
  190SLPC  H15C21919   6.636   2.730   6.163 -0.0030  1.1824  0.0350
  190SLPC   C1221920   6.855   2.897   6.136  0.2517 -0.5267 -0.7498
  190SLPC  H12A21921   6.796   2.896   6.045  0.3261  1.7661 -0.8560
  190SLPC  H12B21922   6.917   2.809   6.134  1.6110  0.4091 -0.3217
  190SLPC   C1121923   6.958   3.024   6.124 -0.7394  0.6505 -0.7863
  190SLPC  H11A21924   7.018   3.013   6.031 -0.2199  3.1568 -0.7826
  190SLPC  H11B21925   7.022   3.029   6.215 -2.4063  1.1962  0.3889
  190SLPC     P21926   6.966   3.282   6.151 -0.0680  0.3273 -0.1329
  190SLPC   O1321927   7.084   3.277   6.068  0.5829  0.1763 -0.1132
  190SLPC   O1421928   6.875   3.390   6.123  0.2890 -0.9141 -0.4335
  190SLPC   O1221929   6.889   3.142   6.118 -0.1449 -0.1046 -0.4368
  190SLPC   O1121930   6.992   3.262   6.307 -0.0091  0.3899 -0.1437
  190SLPC    C121931   7.118   3.302   6.352 -0.4113 -0.0561 -0.2446
  190SLPC    HA21932   7.143   3.403   6.312  0.7071  0.8870  2.7227
  190SLPC    HB21933   7.116   3.320   6.462 -0.8376  1.4314 -0.4814
  190SLPC    C221934   7.237   3.197   6.350 -0.1467  0.1614 -0.0818
  190SLPC    HS21935   7.248   3.183   6.240 -0.5876  0.9561 -0.2327
  190SLPC   O2121936   7.195   3.068   6.396 -0.2176 -0.3811 -0.7204
  190SLPC   C2121937   7.288   2.968   6.365 -0.2488 -0.0911  0.2565
  190SLPC   O2221938   7.395   2.992   6.306 -0.1588  0.9109  0.4116
  190SLPC   C2221939   7.227   2.836   6.397 -0.2158 -0.2690 -0.9846
  190SLPC   H2R21940   7.116   2.837   6.395 -0.2503 -1.0186 -0.0007
  190SLPC   H2S21941   7.258   2.765   6.318 -0.2881 -0.9397 -0.4193
  190SLPC    C321942   7.369   3.255   6.411 -0.6110  0.5977  0.0822
  190SLPC    HX21943   7.360   3.366   6.403 -0.6362  0.6761  1.2187
  190SLPC    HY21944   7.443   3.223   6.334 -1.8922  2.2619 -1.9094
  190SLPC   O3121945   7.397   3.203   6.550 -0.2426 -0.2361  0.5024
  190SLPC   C3121946   7.335   3.280   6.644 -0.1056  0.0557  0.1334
  190SLPC   O3221947   7.290   3.394   6.627 -0.0790 -0.4807 -0.0873
  190SLPC   C3221948   7.344   3.224   6.781 -0.7463  0.1476 -0.3768
  190SLPC   H2X21949   7.453   3.220   6.797 -0.7043 -0.6029 -0.8069
  190SLPC   H2Y21950   7.305   3.120   6.784  2.3064 -1.0896 -1.8372
  190SLPC   C2321951   7.272   2.768   6.524 -0.0675 -0.1306  0.3733
  190SLPC   H3R21952   7.211   2.675   6.523 -0.2672 -0.0161 -2.1761
  190SLPC   H3S21953   7.233   2.835   6.603  0.8637  1.4027 -0.4368
  190SLPC   C2421954   7.421   2.751   6.542  0.4312  0.2621  0.3659
  190SLPC   H4R21955   7.464   2.854   6.534  0.9406  0.0954  0.9595
  190SLPC   H4S21956   7.452   2.691   6.454  1.6574  0.7509  0.4556
  190SLPC   C2521957   7.468   2.692   6.676 -0.0607  0.4812 -0.2056
  190SLPC   H5R21958   7.579   2.685   6.674 -0.1466 -1.2117  0.5252
  190SLPC   H5S21959   7.438   2.585   6.679 -3.4314  1.3550 -0.1104
  190SLPC   C2621960   7.415   2.763   6.802 -0.2965  0.0543 -0.5215
  190SLPC   H6R21961   7.310   2.729   6.817 -0.4017 -0.5512 -2.3855
  190SLPC   H6S21962   7.421   2.873   6.792 -1.4081  0.2605  0.9456
  190SLPC   C2721963   7.493   2.726   6.930  0.3114 -0.1775  0.1001
  190SLPC   H7R21964   7.602   2.718   6.913  0.1776  2.4299 -2.3494
  190SLPC   H7S21965   7.447   2.628   6.955  0.2316 -0.2127 -0.1806
  190SLPC   C2821966   7.471   2.817   7.049  0.4877 -1.3649 -0.1207
  190SLPC   H8R21967   7.453   2.923   7.023  1.3264 -1.0741  0.4697
  190SLPC   H8S21968   7.565   2.821   7.107  0.7096 -0.2678 -0.5541
  190SLPC   C2921969   7.368   2.760   7.140  0.4308  0.9390 -0.4202
  190SLPC   H9R21970   7.270   2.746   7.091 -1.0242  1.2102  2.2573
  190SLPC  C21021971   7.390   2.723   7.266  0.0841 -0.1857 -0.0286
  190SLPC  H10R21972   7.300   2.684   7.315 -0.1950 -1.5241 -1.5625
  190SLPC  C21121973   7.526   2.729   7.327  0.2923  0.7784 -0.1680
  190SLPC  H11R21974   7.555   2.836   7.336 -0.6255  1.0929 -0.9266
  190SLPC  H11S21975   7.595   2.677   7.258 -0.6869 -0.7673  0.0102
  190SLPC  C21221976   7.516   2.646   7.452  0.5657 -0.5881 -0.4693
  190SLPC  H12R21977   7.503   2.539   7.428  1.3168 -0.9575  0.6703
  190SLPC  C21321978   7.498   2.684   7.577 -0.5589 -0.2030  0.0702
  190SLPC  H13R21979   7.507   2.607   7.655  0.4170 -0.3870 -0.2153
  190SLPC  C21421980   7.488   2.824   7.625 -0.3229 -0.0900 -0.5985
  190SLPC  H14R21981   7.532   2.896   7.553  0.3581 -0.6174 -0.7046
  190SLPC  H14S21982   7.552   2.834   7.715 -0.6805 -0.8961 -0.2510
  190SLPC  C21521983   7.355   2.867   7.684 -0.4995 -0.4091  0.1753
  190SLPC  H15R21984   7.333   2.790   7.762  0.6746  0.6081  1.5476
  190SLPC  H15S21985   7.277   2.864   7.606 -0.5688 -0.0253  0.2294
  190SLPC  C21621986   7.365   3.011   7.744 -0.3310  0.5200 -0.3308
  190SLPC  H16R21987   7.388   3.086   7.665  4.0911  2.4614  2.6593
  190SLPC  H16S21988   7.441   3.022   7.824  1.2417  1.2610 -1.8922
  190SLPC  C21721989   7.229   3.045   7.798 -0.2149  0.5278 -0.0030
  190SLPC  H17R21990   7.230   3.018   7.906  1.6159  0.7957  0.0626
  190SLPC  H17S21991   7.147   2.973   7.775 -0.1909  0.1369  1.0966
  190SLPC  C21821992   7.176   3.185   7.778 -0.0888 -0.0568  0.1295
  190SLPC  H18R21993   7.232   3.253   7.845 -0.1022 -0.0240  0.1071
  190SLPC  H18S21994   7.069   3.199   7.803 -0.2625  0.2209 -0.7550
  190SLPC  H18T21995   7.188   3.218   7.673 -0.6780 -0.4211 -0.0546
  190SLPC   C3321996   7.278   3.309   6.893 -0.2185  0.1878  0.1022
  190SLPC   H3X21997   7.291   3.419   6.877 -0.3948  0.3347  0.9824
  190SLPC   H3Y21998   7.308   3.285   6.997  0.0455  0.5740  0.1202
  190SLPC   C3421999   7.128   3.280   6.887 -0.1029  0.0107  0.5686
  190SLPC   H4X22000   7.118   3.185   6.943  1.7144 -1.5272 -1.6370
  190SLPC   H4Y22001   7.083   3.271   6.786  0.2190  0.6667  0.3612
  190SLPC   C3522002   7.042   3.377   6.975 -0.1212 -1.3085  0.0556
  190SLPC   H5X22003   7.059   3.369   7.085 -0.9966 -0.3330  0.2700
  190SLPC   H5Y22004   6.935   3.354   6.960 -0.5540 -0.6128  1.8694
  190SLPC   C3622005   7.049   3.527   6.936 -0.2968 -0.1289 -0.1826
  190SLPC   H6X22006   6.952   3.575   6.912 -0.3634 -1.0862 -1.8867
  190SLPC   H6Y22007   7.105   3.528   6.839 -1.8274  0.4678 -1.0643
  190SLPC   C3722008   7.125   3.613   7.037 -0.4113 -0.5916 -0.0712
  190SLPC   H7X22009   7.155   3.713   6.998  0.4325 -0.6256  0.4814
  190SLPC   H7Y22010   7.217   3.556   7.065 -0.3494  0.4432  1.9123
  190SLPC   C3822011   7.044   3.645   7.170  0.4306 -0.6623 -0.1611
  190SLPC   H8X22012   6.992   3.551   7.198 -2.4013  0.1630 -2.4667
  190SLPC   H8Y22013   6.966   3.719   7.142 -0.8388 -1.5705  0.8859
  190SLPC   C3922014   7.128   3.701   7.281  0.2050  0.4895 -0.0998
  190SLPC   H9X22015   7.066   3.775   7.335 -0.4589  0.8427 -1.3237
  190SLPC   H9Y22016   7.212   3.756   7.233  0.1832  0.7873  0.2093
  190SLPC  C31022017   7.183   3.586   7.375  0.0464  0.0775  0.3455
  190SLPC  H10X22018   7.235   3.505   7.319  0.9372  0.1282  1.0788
  190SLPC  H10Y22019   7.096   3.538   7.425  0.5835 -0.0212  1.2027
  190SLPC  C31122020   7.282   3.631   7.492 -0.2691 -0.2812 -0.2439
  190SLPC  H11X22021   7.260   3.736   7.522 -0.5618  0.3704 -2.6593
  190SLPC  H11Y22022   7.388   3.640   7.462 -0.7147 -0.1156 -1.8377
  190SLPC  C31222023   7.299   3.537   7.606 -0.4146  0.1908  0.2245
  190SLPC  H12X22024   7.342   3.444   7.564  1.1536  0.5032  1.1120
  190SLPC  H12Y22025   7.198   3.507   7.640 -1.4569  2.4901 -0.7040
  190SLPC  C31322026   7.381   3.602   7.719 -0.0743 -0.1941  0.1493
  190SLPC  H13X22027   7.346   3.698   7.765  2.0391  1.5212 -1.7399
  190SLPC  H13Y22028   7.477   3.631   7.672  0.9737 -1.1360  1.6534
  190SLPC  C31422029   7.408   3.498   7.820  1.2714  1.0832  0.3158
  190SLPC  H14X22030   7.463   3.418   7.766 -1.0506  0.7540 -1.6215
  190SLPC  H14Y22031   7.304   3.462   7.838  1.1216  0.8782 -0.9475
  190SLPC  C31522032   7.481   3.549   7.954  0.4520  0.0861 -0.9641
  190SLPC  H15X22033   7.532   3.464   8.004  0.3189  0.3604 -0.3609
  190SLPC  H15Y22034   7.398   3.596   8.012  2.1515  0.6980  1.0524
  190SLPC  C31622035   7.588   3.655   7.928 -0.7114 -0.7405 -0.0835
  190SLPC  H16X22036   7.557   3.746   7.873 -0.9175 -1.9597 -2.0500
  190SLPC  H16Y22037   7.663   3.617   7.855  0.1926 -0.8171  0.8626
  190SLPC  C31722038   7.678   3.693   8.051 -0.0506 -0.2293  0.2629
  190SLPC  H17X22039   7.772   3.744   8.022  0.8585 -1.3882  1.0991
  190SLPC  H17Y22040   7.702   3.596   8.100  1.8338  0.3508  0.5311
  190SLPC  C31822041   7.599   3.782   8.152 -0.2265 -0.1640  0.5752
  190SLPC  H18X22042   7.668   3.834   8.223 -0.2345 -0.1478  0.5721
  190SLPC  H18Y22043   7.526   3.722   8.211 -1.2342 -0.6343 -1.1372
  190SLPC  H18Z22044   7.544   3.848   8.082  0.2350  0.9722  1.2532
  191SLPC     N22045   0.483   7.071   6.143 -0.1108 -0.9266 -0.5058
  191SLPC   C1322046   0.562   7.098   6.264 -1.2032 -0.3083  0.1832
  191SLPC  H13A22047   0.548   7.016   6.333  1.2749  1.0333  2.3923
  191SLPC  H13B22048   0.665   7.103   6.233 -1.1735 -0.9443  0.1647
  191SLPC  H13C22049   0.536   7.191   6.312 -0.4485  0.1099 -0.2085
  191SLPC   C1422050   0.508   7.173   6.037 -0.5348 -0.4186 -0.0982
  191SLPC  H14A22051   0.480   7.274   6.062  1.8751  0.3661 -0.4829
  191SLPC  H14B22052   0.612   7.163   6.008 -0.5652 -3.3007  0.6139
  191SLPC  H14C22053   0.449   7.130   5.957  0.8263 -3.4210  0.4402
  191SLPC   C1522054   0.338   7.078   6.178 -0.5195  0.3178 -0.7040
  191SLPC  H15A22055   0.279   7.039   6.098 -0.5866 -2.2106  0.5421
  191SLPC  H15B22056   0.308   7.017   6.261 -0.6541  1.2637 -0.0475
  191SLPC  H15C22057   0.312   7.179   6.205  1.3168  0.0508  2.3344
  191SLPC   C1222058   0.536   6.931   6.107 -0.0672 -0.7107  0.0544
  191SLPC  H12A22059   0.641   6.943   6.084 -0.4420 -1.0497 -1.8537
  191SLPC  H12B22060   0.486   6.887   6.022 -2.8876  3.3371 -0.4877
  191SLPC   C1122061   0.534   6.826   6.213  0.1707  0.8578  0.0932
  191SLPC  H11A22062   0.570   6.729   6.170  1.4933  0.5859  1.7930
  191SLPC  H11B22063   0.429   6.808   6.245  0.4636 -1.3061 -0.0719
  191SLPC     P22064   0.761   6.815   6.345 -0.0139 -0.4881  0.4626
  191SLPC   O1322065   0.798   6.675   6.309 -0.5460 -0.1564  0.0266
  191SLPC   O1422066   0.836   6.925   6.279  0.5752  0.1999  0.0306
  191SLPC   O1222067   0.604   6.843   6.332  0.0143 -0.4560  0.0087
  191SLPC   O1122068   0.780   6.836   6.504 -0.1903  0.0461  0.5985
  191SLPC    C122069   0.700   6.769   6.597 -0.1696 -0.0773  0.5197
  191SLPC    HA22070   0.612   6.716   6.554 -0.4437  0.1566  0.7844
  191SLPC    HB22071   0.764   6.692   6.644 -1.2907 -2.3944 -1.6396
  191SLPC    C222072   0.636   6.867   6.698  0.3225  0.4211  0.0420
  191SLPC    HS22073   0.707   6.947   6.730  0.5769  1.1764 -2.3424
  191SLPC   O2122074   0.607   6.790   6.816  0.7887 -0.1455  0.4224
  191SLPC   C2122075   0.567   6.855   6.920 -0.2863 -0.1939  0.4436
  191SLPC   O2222076   0.560   6.974   6.932  0.3836  0.2478 -0.1899
  191SLPC   C2222077   0.545   6.759   7.039  0.5387  1.3618  0.0580
  191SLPC   H2R22078   0.441   6.722   7.028 -0.4129  3.5462  1.4509
  191SLPC   H2S22079   0.618   6.675   7.041  0.3151  1.1964  1.9053
  191SLPC    C322080   0.512   6.950   6.649 -0.1752  0.0056  0.1514
  191SLPC    HX22081   0.526   6.979   6.543 -4.3086 -0.4805 -0.6374
  191SLPC    HY22082   0.490   7.037   6.715 -1.5991  0.1441 -0.4784
  191SLPC   O3122083   0.401   6.851   6.648  0.1794 -0.2943 -0.0236
  191SLPC   C3122084   0.301   6.877   6.563 -1.1583 -0.2375 -0.6457
  191SLPC   O3222085   0.287   6.984   6.506 -0.1531 -0.1211 -0.1518
  191SLPC   C3222086   0.239   6.740   6.533 -0.3439 -0.3695  0.5801
  191SLPC   H2X22087   0.312   6.659   6.553  1.1332  0.2961 -1.8687
  191SLPC   H2Y22088   0.226   6.728   6.423  1.5561 -1.3626  0.4472
  191SLPC   C2322089   0.536   6.833   7.177 -0.2152 -0.0470  0.2356
  191SLPC   H3R22090   0.504   6.755   7.250  0.9216 -0.2413  0.5253
  191SLPC   H3S22091   0.454   6.907   7.186 -0.6216 -0.8692  4.7059
  191SLPC   C2422092   0.663   6.903   7.219 -0.5292 -0.5217 -0.5602
  191SLPC   H4R22093   0.656   6.969   7.308 -0.7162 -1.6067  0.2226
  191SLPC   H4S22094   0.701   6.967   7.135 -1.5126  1.2571  0.3194
  191SLPC   C2522095   0.772   6.807   7.271  0.0775 -0.1806 -0.5468
  191SLPC   H5R22096   0.765   6.714   7.210 -2.0042 -1.3831  1.3940
  191SLPC   H5S22097   0.739   6.774   7.372 -0.9155 -0.2979 -0.9048
  191SLPC   C2622098   0.921   6.855   7.263  0.5110 -0.4705 -0.6983
  191SLPC   H6R22099   0.943   6.868   7.155 -0.3852  0.6220 -0.7553
  191SLPC   H6S22100   0.988   6.770   7.286  0.7374  0.4232  2.1541
  191SLPC   C2722101   0.956   6.981   7.349 -0.0624  0.4310 -0.0147
  191SLPC   H7R22102   0.928   6.953   7.453  0.5805  0.9725  0.3124
  191SLPC   H7S22103   0.890   7.057   7.301 -0.6171 -0.9682 -1.5186
  191SLPC   C2822104   1.110   7.009   7.330  0.2684  0.6322  0.5283
  191SLPC   H8R22105   1.161   6.920   7.372 -0.7803 -0.1215  0.2029
  191SLPC   H8S22106   1.137   7.091   7.401  2.0339 -0.4828  1.1955
  191SLPC   C2922107   1.157   7.029   7.190 -0.1870  0.7328  0.0093
  191SLPC   H9R22108   1.130   6.946   7.122  2.1689  0.1308 -0.2389
  191SLPC  C21022109   1.252   7.120   7.147  0.2314  0.5315 -0.6059
  191SLPC  H10R22110   1.284   7.104   7.043 -1.8533 -0.3172 -1.1416
  191SLPC  C21122111   1.327   7.224   7.222  0.1542  0.1633 -0.1265
  191SLPC  H11R22112   1.263   7.296   7.277  0.2309  0.2289 -0.1217
  191SLPC  H11S22113   1.383   7.285   7.149  2.4388 -1.5595  0.1131
  191SLPC  C21222114   1.422   7.164   7.320 -0.6522 -0.2106 -0.0244
  191SLPC  H12R22115   1.450   7.066   7.280  0.1010  0.4334 -1.1125
  191SLPC  C21322116   1.449   7.207   7.447 -0.4309  1.1194  0.6688
  191SLPC  H13R22117   1.487   7.137   7.523  1.0528 -0.2039 -1.2736
  191SLPC  C21422118   1.398   7.334   7.515 -0.0629  0.2990  0.4597
  191SLPC  H14R22119   1.391   7.413   7.436 -1.1921 -1.3080 -1.1053
  191SLPC  H14S22120   1.467   7.366   7.596  0.4912  0.3593 -0.0294
  191SLPC  C21522121   1.247   7.324   7.568  0.7814  0.1271 -0.1959
  191SLPC  H15R22122   1.185   7.297   7.480  0.9899 -2.9447  0.5347
  191SLPC  H15S22123   1.218   7.423   7.609 -0.7942  1.3545 -4.0130
  191SLPC  C21622124   1.237   7.222   7.678  0.2424  0.6700 -0.3601
  191SLPC  H16R22125   1.311   7.244   7.758 -0.5696 -0.9871  0.8714
  191SLPC  H16S22126   1.274   7.131   7.627 -0.6946  1.0853 -1.8128
  191SLPC  C21722127   1.098   7.217   7.745  0.4831  0.0908 -0.7742
  191SLPC  H17R22128   1.106   7.169   7.845  0.6462 -2.1872 -1.8482
  191SLPC  H17S22129   1.031   7.162   7.676  3.4558 -1.8684 -2.1838
  191SLPC  C21822130   1.029   7.355   7.768  0.7642 -0.2813 -0.8577
  191SLPC  H18R22131   0.923   7.346   7.799  1.0707  1.7797  0.8236
  191SLPC  H18S22132   1.034   7.408   7.670  0.4347 -0.7665 -1.1398
  191SLPC  H18T22133   1.084   7.403   7.852 -2.8812 -0.5320  1.7656
  191SLPC   C3322134   0.106   6.722   6.619 -0.0830  0.4927 -0.8416
  191SLPC   H3X22135   0.051   6.636   6.574  1.5515 -1.4311  0.7018
  191SLPC   H3Y22136   0.040   6.811   6.618 -0.2527  0.3708 -0.5528
  191SLPC   C3422137   0.128   6.657   6.760 -0.3672  0.7143  0.0907
  191SLPC   H4X22138   0.173   6.735   6.824 -1.4218 -0.6520  2.5820
  191SLPC   H4Y22139   0.191   6.567   6.742 -3.4839 -0.8879 -3.5298
  191SLPC   C3522140   0.007   6.604   6.831  0.0515 -0.1232 -0.4112
  191SLPC   H5X22141  -0.047   6.530   6.767  3.7468 -3.1555 -0.1952
  191SLPC   H5Y22142  -0.061   6.688   6.858 -0.5982 -0.4099 -1.1300
  191SLPC   C3622143   0.043   6.517   6.954  0.2565  0.0137  0.0915
  191SLPC   H6X22144   0.105   6.433   6.917 -1.3351  0.3517 -3.5804
  191SLPC   H6Y22145  -0.053   6.486   7.000 -0.3413  3.9396  1.7238
  191SLPC   C3722146   0.122   6.591   7.063 -0.0832 -0.8082  0.2708
  191SLPC   H7X22147   0.072   6.688   7.085 -1.6453 -1.7984  1.1905
  191SLPC   H7Y22148   0.227   6.611   7.035 -0.2676  0.1471  0.2419
  191SLPC   C3822149   0.122   6.502   7.193  0.4323 -0.2629  0.8473
  191SLPC   H8X22150   0.140   6.395   7.172 -1.4355 -0.0224 -2.2659
  191SLPC   H8Y22151   0.016   6.493   7.226 -0.3649 -1.2021 -1.8111
  191SLPC   C3922152   0.224   6.563   7.296  0.5776  0.0057 -0.0380
  191SLPC   H9X22153   0.332   6.557   7.267  0.8117  1.8319  0.3996
  191SLPC   H9Y22154   0.220   6.493   7.382 -0.2482  0.4910  0.3192
  191SLPC  C31022155   0.182   6.701   7.336 -1.1025 -0.8856  0.0210
  191SLPC  H10X22156   0.076   6.695   7.368 -0.7634 -2.1249  0.9923
  191SLPC  H10Y22157   0.200   6.776   7.257  2.9140 -1.5800  0.1704
  191SLPC  C31122158   0.270   6.760   7.455 -0.1532  0.1897  0.3436
  191SLPC  H11X22159   0.377   6.746   7.426 -0.1962 -0.9621  0.6982
  191SLPC  H11Y22160   0.262   6.694   7.544 -0.1255  0.5618  0.6213
  191SLPC  C31222161   0.252   6.905   7.484  0.6460  0.2255  0.3737
  191SLPC  H12X22162   0.155   6.916   7.536  2.2189 -0.7522  3.6606
  191SLPC  H12Y22163   0.245   6.970   7.394  3.5978 -1.0822 -0.8802
  191SLPC  C31322164   0.356   6.969   7.579  0.1376  0.9520  0.0506
  191SLPC  H13X22165   0.371   6.883   7.648  2.3910 -0.0108 -1.5672
  191SLPC  H13Y22166   0.306   7.053   7.633 -3.2185 -0.4259 -0.8257
  191SLPC  C31422167   0.483   7.012   7.516  0.3725 -0.3230  0.1453
  191SLPC  H14X22168   0.462   7.080   7.431  1.2014 -0.5348 -0.2324
  191SLPC  H14Y22169   0.534   6.924   7.472 -1.6851 -1.6078  0.2428
  191SLPC  C31522170   0.584   7.075   7.622  0.1564 -0.1862  0.6562
  191SLPC  H15X22171   0.549   7.173   7.662 -0.5385 -1.0915  2.2875
  191SLPC  H15Y22172   0.681   7.100   7.574 -0.0252  0.0555  0.4096
  191SLPC  C31622173   0.609   7.003   7.749 -0.3018  0.2647 -0.6891
  191SLPC  H16X22174   0.658   6.905   7.731 -0.5053  0.6528 -3.5819
  191SLPC  H16Y22175   0.514   7.001   7.806  0.4704 -0.1974  0.6205
  191SLPC  C31722176   0.711   7.073   7.842  0.3702  0.7121  0.0438
  191SLPC  H17X22177   0.810   7.087   7.792  0.7325  0.9375  0.8070
  191SLPC  H17Y22178   0.724   7.013   7.935 -0.9572  1.7834  0.9453
  191SLPC  C31822179   0.672   7.220   7.879 -0.0525  0.0020  0.5269
  191SLPC  H18X22180   0.733   7.262   7.962 -3.3040  3.5867  1.2673
  191SLPC  H18Y22181   0.568   7.224   7.918  0.9219 -1.1028  3.3538
  191SLPC  H18Z22182   0.691   7.287   7.792  0.7923 -1.0605 -0.1207
  192SLPC     N22183   0.162   6.301   5.947  0.1451  0.1311  0.5065
  192SLPC   C1322184   0.127   6.449   5.922 -0.2944 -0.2073 -0.1595
  192SLPC  H13A22185   0.033   6.451   5.867  0.3580 -2.0493 -1.4146
  192SLPC  H13B22186   0.106   6.489   6.019  0.6827 -0.2833  0.0817
  192SLPC  H13C22187   0.205   6.510   5.879 -1.2661  0.1376 -1.4697
  192SLPC   C1422188   0.290   6.302   6.020  0.2473  0.3778 -0.1130
  192SLPC  H14A22189   0.359   6.371   5.972  0.1732  0.0790 -0.6487
  192SLPC  H14B22190   0.282   6.339   6.121 -2.4623 -1.1926  0.2765
  192SLPC  H14C22191   0.328   6.201   6.027  1.2612  0.7755  0.2639
  192SLPC   C1522192   0.160   6.235   5.811 -0.8765 -0.2274 -0.9053
  192SLPC  H15A22193   0.181   6.130   5.817  1.2228  0.1600 -1.1195
  192SLPC  H15B22194   0.063   6.247   5.764 -1.4530 -2.4409 -0.3243
  192SLPC  H15C22195   0.229   6.281   5.742 -0.8234  0.0611 -0.6653
  192SLPC   C1222196   0.059   6.234   6.030  0.5103 -0.4946 -0.0246
  192SLPC  H12A22197   0.080   6.130   6.054  0.5671 -0.6512 -0.7593
  192SLPC  H12B22198  -0.035   6.240   5.978  0.9832  0.2657 -0.7851
  192SLPC   C1122199   0.027   6.297   6.167  0.0252 -0.6393 -0.0960
  192SLPC  H11A22200   0.114   6.277   6.234 -0.2997 -1.3824  0.1156
  192SLPC  H11B22201  -0.054   6.241   6.218  1.2126 -2.9847 -0.7160
  192SLPC     P22202   0.015   6.521   6.289  0.4041 -0.7959 -0.1401
  192SLPC   O1322203   0.152   6.493   6.340 -0.3154 -0.0892 -0.3967
  192SLPC   O1422204  -0.007   6.668   6.258  0.1000 -0.4423 -0.3158
  192SLPC   O1222205  -0.013   6.432   6.159 -0.2199 -0.1931 -0.6283
  192SLPC   O1122206  -0.095   6.465   6.393 -0.0835 -0.1155 -0.1512
  192SLPC    C122207  -0.217   6.519   6.394  0.2923 -0.4554 -0.2096
  192SLPC    HA22208  -0.207   6.629   6.382 -0.4936 -0.6281 -2.7696
  192SLPC    HB22209  -0.278   6.482   6.308 -1.5250  1.1906  0.3442
  192SLPC    C222210  -0.298   6.497   6.523  0.3101  0.3407  0.0995
  192SLPC    HS22211  -0.236   6.541   6.604  0.4542  0.9092 -0.3163
  192SLPC   O2122212  -0.316   6.354   6.543  0.5269 -0.4661  0.3041
  192SLPC   C2122213  -0.317   6.319   6.666 -0.2396 -0.6081  0.1656
  192SLPC   O2222214  -0.277   6.389   6.759 -0.4082 -0.4895 -0.5955
  192SLPC   C2222215  -0.366   6.181   6.675  1.0760 -0.2744  0.6171
  192SLPC   H2R22216  -0.461   6.179   6.618  1.2306 -0.0954  0.3514
  192SLPC   H2S22217  -0.303   6.109   6.618 -2.0817 -2.5298 -0.1572
  192SLPC    C322218  -0.435   6.579   6.522 -0.7723  0.2045 -0.1807
  192SLPC    HX22219  -0.490   6.560   6.427 -0.6460 -1.2658  0.0259
  192SLPC    HY22220  -0.399   6.683   6.531  2.1771 -0.9518  1.8873
  192SLPC   O3122221  -0.525   6.541   6.634 -0.5415  0.4300  0.7488
  192SLPC   C3122222  -0.643   6.592   6.632 -0.0950  0.7799  0.0817
  192SLPC   O3222223  -0.687   6.657   6.542 -0.2730  0.2479  0.5440
  192SLPC   C3222224  -0.720   6.556   6.750 -0.6145 -0.0634  0.3577
  192SLPC   H2X22225  -0.678   6.598   6.843 -0.5986  1.2824 -0.2455
  192SLPC   H2Y22226  -0.706   6.446   6.759 -1.9360 -0.1413  1.6007
  192SLPC   C2322227  -0.402   6.132   6.811 -0.1570 -0.2912  0.2201
  192SLPC   H3R22228  -0.320   6.152   6.883 -2.2281  2.1619  1.9682
  192SLPC   H3S22229  -0.418   6.022   6.801  2.3881 -0.6127 -0.8946
  192SLPC   C2422230  -0.522   6.199   6.880  0.4715 -0.2183 -0.0056
  192SLPC   H4R22231  -0.617   6.191   6.823  0.6472 -0.0436 -0.3242
  192SLPC   H4S22232  -0.503   6.308   6.873  0.2259 -0.2446 -1.0824
  192SLPC   C2522233  -0.538   6.143   7.022  0.2439 -0.3664  0.2536
  192SLPC   H5R22234  -0.444   6.179   7.069  0.9315 -1.3936 -0.2998
  192SLPC   H5S22235  -0.534   6.032   7.021  0.0266 -0.3663 -0.8116
  192SLPC   C2622236  -0.649   6.203   7.110  0.0900  0.6410  0.5575
  192SLPC   H6R22237  -0.700   6.121   7.165  0.0118  0.4397  0.1895
  192SLPC   H6S22238  -0.726   6.250   7.045  1.6938  1.3658 -0.8715
  192SLPC   C2722239  -0.600   6.288   7.215 -0.8502 -0.6946  0.2444
  192SLPC   H7R22240  -0.531   6.358   7.163  0.3925  0.5189  3.3905
  192SLPC   H7S22241  -0.538   6.236   7.292  1.4538 -2.3170 -2.6040
  192SLPC   C2822242  -0.716   6.352   7.295  0.3309 -0.0010 -0.2201
  192SLPC   H8R22243  -0.754   6.274   7.365  1.1788 -0.9176 -0.7592
  192SLPC   H8S22244  -0.799   6.396   7.237  0.2244  0.7602  0.5067
  192SLPC   C2922245  -0.656   6.460   7.386  0.5400 -0.1280 -0.3545
  192SLPC   H9R22246  -0.625   6.551   7.333 -2.5060  1.0436 -0.2317
  192SLPC  C21022247  -0.634   6.453   7.523  0.0964 -0.3330  0.2728
  192SLPC  H10R22248  -0.579   6.536   7.570 -0.3337  0.8791 -1.3038
  192SLPC  C21122249  -0.652   6.335   7.609 -0.5506  0.6675 -0.6205
  192SLPC  H11R22250  -0.573   6.344   7.686  0.5460 -2.8589 -1.2556
  192SLPC  H11S22251  -0.644   6.242   7.549 -0.1701 -0.0525  0.5437
  192SLPC  C21222252  -0.798   6.338   7.658  0.5882 -0.4348  0.3774
  192SLPC  H12R22253  -0.873   6.320   7.579  0.8424 -1.2392  0.3079
  192SLPC  C21322254  -0.850   6.363   7.781  0.1769 -0.2658 -0.9742
  192SLPC  H13R22255  -0.958   6.359   7.799  0.1416  0.7460 -0.9261
  192SLPC  C21422256  -0.761   6.395   7.894 -0.7414  0.1603  0.4510
  192SLPC  H14R22257  -0.674   6.456   7.861  1.1121 -2.3977  0.4285
  192SLPC  H14S22258  -0.713   6.305   7.939  0.7288 -0.0380 -1.4304
  192SLPC  C21522259  -0.830   6.480   8.005  1.2279  0.5988 -0.4355
  192SLPC  H15R22260  -0.871   6.577   7.969  0.0633  1.0443  1.9646
  192SLPC  H15S22261  -0.754   6.501   8.084 -1.0487 -0.5581  2.1020
  192SLPC  C21622262  -0.940   6.411   8.082  0.4550 -0.0026  0.1976
  192SLPC  H16R22263  -0.894   6.330   8.142 -0.2034 -0.0797  0.6074
  192SLPC  H16S22264  -1.007   6.351   8.016  0.9893 -1.2799  0.7919
  192SLPC  C21722265  -1.013   6.497   8.188 -0.5195 -0.4101  0.2402
  192SLPC  H17R22266  -0.936   6.558   8.242 -2.4258  0.5764  1.9214
  192SLPC  H17S22267  -1.084   6.570   8.145  1.2258  2.6671  2.3436
  192SLPC  C21822268  -1.081   6.404   8.280  0.0838  0.4014  0.8071
  192SLPC  H18R22269  -1.018   6.319   8.313  0.1440 -0.2554 -0.9512
  192SLPC  H18S22270  -1.171   6.360   8.232 -0.1474  0.1968  1.4245
  192SLPC  H18T22271  -1.111   6.461   8.371 -0.3860 -0.1086  0.9782
  192SLPC   C3322272  -0.863   6.597   6.739  0.2029 -0.1497 -0.0868
  192SLPC   H3X22273  -0.904   6.551   6.647  0.3802 -1.1036  0.3118
  192SLPC   H3Y22274  -0.872   6.706   6.717 -0.7863  0.0192  1.0644
  192SLPC   C3422275  -0.942   6.575   6.862 -0.0991 -0.7341 -0.3465
  192SLPC   H4X22276  -0.963   6.466   6.877 -0.1268 -0.9356 -1.7825
  192SLPC   H4Y22277  -1.036   6.634   6.859  0.9769  0.9871 -0.6296
  192SLPC   C3522278  -0.879   6.626   6.995 -0.5266  0.5752 -0.5175
  192SLPC   H5X22279  -0.821   6.721   6.992 -1.3264  1.1186  0.5494
  192SLPC   H5Y22280  -0.809   6.551   7.037 -0.6777  0.8163  0.1774
  192SLPC   C3622281  -0.982   6.661   7.113 -0.5515  0.6621 -0.3490
  192SLPC   H6X22282  -1.051   6.575   7.124 -0.4325  0.6454  0.2889
  192SLPC   H6Y22283  -1.051   6.742   7.080 -1.3388 -0.8015 -2.4162
  192SLPC   C3722284  -0.916   6.695   7.247  0.2684  0.1733 -1.0140
  192SLPC   H7X22285  -0.897   6.804   7.250  0.3957  0.1240  0.2210
  192SLPC   H7Y22286  -0.823   6.636   7.263 -0.0727 -0.2921 -0.7260
  192SLPC   C3822287  -1.009   6.672   7.358  0.2798 -0.7303  0.1157
  192SLPC   H8X22288  -1.043   6.567   7.343  1.2794 -0.7468 -2.1450
  192SLPC   H8Y22289  -1.104   6.728   7.340  0.2872 -0.4636  0.8795
  192SLPC   C3922290  -0.955   6.695   7.506 -0.1904 -0.2885 -0.6642
  192SLPC   H9X22291  -0.873   6.623   7.528  1.6941  1.3383 -2.1811
  192SLPC   H9Y22292  -1.034   6.655   7.573 -0.2615 -0.7532 -1.0208
  192SLPC  C31022293  -0.910   6.837   7.540  0.1094 -0.0107  0.0718
  192SLPC  H10X22294  -0.982   6.914   7.504  1.0147  0.9009  0.1666
  192SLPC  H10Y22295  -0.811   6.855   7.491  0.8569 -1.9875  0.8269
  192SLPC  C31122296  -0.900   6.845   7.688  0.6270 -0.8378  0.6508
  192SLPC  H11X22297  -0.996   6.802   7.723 -0.3277  0.3648 -0.4453
  192SLPC  H11Y22298  -0.906   6.951   7.719  3.9055 -0.5418  0.4320
  192SLPC  C31222299  -0.773   6.776   7.749 -0.3659  0.9140  0.0305
  192SLPC  H12X22300  -0.773   6.666   7.735  0.7548  1.0924 -1.4286
  192SLPC  H12Y22301  -0.781   6.801   7.857 -0.5685 -1.1957  0.5373
  192SLPC  C31322302  -0.629   6.829   7.705 -0.0228  0.0101  0.0607
  192SLPC  H13X22303  -0.614   6.938   7.722  0.6826  0.4192 -2.7863
  192SLPC  H13Y22304  -0.634   6.813   7.595  0.1805  2.4724 -0.3533
  192SLPC  C31422305  -0.510   6.759   7.770  0.6712 -0.2605  0.5033
  192SLPC  H14X22306  -0.511   6.648   7.769 -0.8676 -0.2578  0.6451
  192SLPC  H14Y22307  -0.505   6.804   7.871  0.6831  0.2829  0.2670
  192SLPC  C31522308  -0.388   6.796   7.689  0.1087  0.5763 -0.1033
  192SLPC  H15X22309  -0.372   6.905   7.671 -1.5567  0.5343 -2.0234
  192SLPC  H15Y22310  -0.393   6.742   7.593 -0.8392  0.0855  0.2176
  192SLPC  C31622311  -0.264   6.743   7.761 -0.5455  0.4116  0.3046
  192SLPC  H16X22312  -0.286   6.638   7.790 -1.9589  0.2430 -1.2966
  192SLPC  H16Y22313  -0.251   6.811   7.848 -1.1181  0.0453  0.6749
  192SLPC  C31722314  -0.148   6.749   7.667  0.6207 -0.1030  0.4104
  192SLPC  H17X22315  -0.139   6.853   7.630 -0.5056 -1.1089 -2.9094
  192SLPC  H17Y22316  -0.179   6.693   7.576  0.9465  1.0033 -0.3984
  192SLPC  C31822317  -0.026   6.698   7.737 -0.4153 -0.8952  0.0239
  192SLPC  H18X22318   0.070   6.723   7.688 -1.4176  3.1930  0.0192
  192SLPC  H18Y22319  -0.028   6.587   7.739 -0.9587 -0.8975 -0.3206
  192SLPC  H18Z22320  -0.019   6.714   7.846  1.1621 -0.9549 -0.0573
  193SOD    SOD22321   3.518   5.187  13.368  0.6954 -0.1013 -0.1557
  194SOD    SOD22322   5.655   7.047   0.667 -0.4725 -0.1425 -0.4349
  195SOD    SOD22323   2.347   0.125   9.916 -0.4598  0.2241 -0.2003
  196SOD    SOD22324   4.579   2.261  14.626  0.3054  0.3332  0.0459
  197SOD    SOD22325   5.430   5.412   2.820  0.4154 -0.0703  0.0637
  198SOD    SOD22326   2.181   6.147  13.500 -0.2908  0.3494 -0.4804
  199SOD    SOD22327   5.756   4.316   5.378 -0.2473  0.1698 -0.3131
  200SOD    SOD22328   2.106   2.984   1.585  0.1865 -0.1804  0.0408
  201SOD    SOD22329   7.094   2.161   2.073 -0.4949  0.3342  0.0476
  202SOD    SOD22330   4.745   6.462   5.222  0.1003  0.2166 -0.0817
  203SOD    SOD22331   2.382   5.672  10.261 -0.5848  0.1960  0.1766
  204SOD    SOD22332   0.149   6.755   2.120  0.4903 -0.0454  0.4249
  205SOD    SOD22333   1.544   4.956   3.777  0.0914 -0.3443 -0.0789
  206SOD    SOD22334   1.263   1.682   3.398 -0.2756  0.2741 -0.5896
  207SOD    SOD22335   3.083   6.188   1.691  0.2991  0.0394  0.2240
  208SOD    SOD22336   5.898   5.646  11.736 -0.7821 -0.5837  0.2400
  209SOD    SOD22337   0.742   6.506   3.508  0.2630 -0.3723  0.2773
  210SOD    SOD22338   4.053   1.698   1.475 -0.6517  0.5918 -0.0123
  211SOD    SOD22339   6.911   2.981   0.850 -0.1226 -0.8272  0.0481
  212SOD    SOD22340   3.759   0.605   0.543  0.6234  0.4148 -0.4897
  213SOD    SOD22341   7.014   5.914   1.084  0.0095  0.2696 -0.2804
  214SOD    SOD22342   5.023   6.549  11.234  0.3211  0.4354 -0.5354
  215SOD    SOD22343   6.538   1.399  15.196  0.2813 -0.0853  0.2932
  216SOD    SOD22344   5.249   5.886   5.100  0.1784  0.0023  0.0146
  217SOD    SOD22345   6.486   3.705  11.382  0.0951  0.9102  0.2094
  218SOD    SOD22346   0.041   6.957  14.867  0.0633  0.1435  0.1235
  219SOD    SOD22347   6.183   5.808  13.816 -0.4887 -0.0777  0.2414
  220SOD    SOD22348   5.722   7.148   2.786  0.1273  0.2549  0.7027
  221SOD    SOD22349   5.565   1.787   2.543 -0.3898  0.0205  0.4817
  222SOD    SOD22350   3.371   0.343  11.173 -0.3892 -0.1186 -0.1030
  223SOD    SOD22351   4.361   5.097   4.616 -0.0565  0.0593  0.4937
  224SOD    SOD22352   6.119   2.439  11.849  0.0605 -0.0445 -0.0325
  225SOD    SOD22353   5.222   1.192   1.891 -0.1694 -0.0188 -0.0333
  226SOD    SOD22354   2.260   1.399   3.794 -0.7223  0.4242  0.5730
  227SOD    SOD22355   3.523   4.302   2.606 -0.1333  0.6287 -0.0477
  228SOD    SOD22356   2.237   3.099  12.647  0.3591 -0.1596 -0.0024
  229SOD    SOD22357   4.782   6.650  13.421 -0.3919 -0.2213 -0.0464
  230SOD    SOD22358   5.592   3.477   5.043  0.2306  0.1856  0.3905
  231SOD    SOD22359   4.297   1.447  15.132 -0.1836  0.0447 -0.5057
  232SOD    SOD22360   7.278   3.878   1.162  0.4711  0.0258  0.5094
  233SOD    SOD22361   3.059   6.486   5.094  0.0743 -0.0781  0.5378
  234SOD    SOD22362   6.983   0.072  15.644 -0.6241  0.4900  0.4609
  235SOD    SOD22363   3.421   4.634   5.000  0.0276  0.3483  0.1677
  236SOD    SOD22364   5.662   3.602  15.172  0.0943  0.2133  0.5139
  237SOD    SOD22365   0.624   6.164  10.915 -0.1083  0.3193 -0.2383
  238SOD    SOD22366   2.146   2.510   4.906  0.0738  0.3676  0.0466
  239SOD    SOD22367   3.324   1.994  13.077  0.1153 -0.2391 -0.6135
  240SOD    SOD22368   6.279   2.284  10.392 -0.3254  0.5457  0.3390
  241SOD    SOD22369   6.160   0.639   3.923 -0.4014 -0.3508 -0.0131
  242SOD    SOD22370   5.757   6.073  14.575  0.1987  0.6202 -0.0158
  243SOD    SOD22371   4.409   2.763   2.397  0.5948  0.2617  0.3227
  244SOD    SOD22372   4.228   7.185   0.762  0.0808  0.3370  0.1446
  245SOD    SOD22373   3.591   5.288  11.248  0.1830  0.0076  0.1887
  246SOD    SOD22374   5.165   1.157   4.310 -0.4049 -0.1949  0.3800
  247SOD    SOD22375   2.757   4.807   3.323  0.3567 -0.1706  0.5105
  248SOD    SOD22376   6.973   1.787   4.950 -0.3429 -0.0215  0.3807
  249SOD    SOD22377   2.421   3.935  10.740 -0.4892 -0.0063  0.1816
  250SOD    SOD22378   6.892   0.221   2.941 -0.0356  0.1812  0.0387
  251SOD    SOD22379   2.650   0.099  13.342  0.2096  0.8719 -0.3117
  252SOD    SOD22380   4.181   5.120  14.165  0.0920  0.2413 -0.3079
  253SOD    SOD22381   3.730   3.765  10.538  0.1414 -0.0811 -0.1715
  254SOD    SOD22382   5.190   4.483  10.924 -0.3195 -0.2015 -0.4447
  255SOD    SOD22383   4.046   1.086  11.428  0.1800 -0.3425  0.0199
  256SOD    SOD22384   7.082   6.608   5.844 -0.1561  0.1207 -0.0424
  257SOD    SOD22385   5.247   4.154  12.200 -0.4332  1.0123 -0.6290
  258SOD    SOD22386   0.694   5.091   4.412  0.0803  0.0276  0.3466
  259SOD    SOD22387   1.638   3.123  11.369  0.1156 -0.0155 -0.1077
  260SOD    SOD22388   6.188   7.186  11.008 -0.4897  0.1185  0.0293
  261SOD    SOD22389   5.896   4.737  12.933  0.1198 -0.1931  0.1350
  262SOD    SOD22390   4.410   6.525  12.172 -0.0306  0.3310  0.6209
  263SOD    SOD22391   0.057   2.839  14.151 -0.4253  0.3132  0.0737
  264SOD    SOD22392   3.308   3.771   0.256 -0.2069 -0.2540 -0.4838
  265SOD    SOD22393   4.104   7.004  14.521  0.5416  0.2835  0.3680
  266CLA    CLA22394   6.300   3.446  15.404  0.1379 -0.1828  0.8767
  267CLA    CLA22395   0.002   6.552   3.129  0.1636 -0.2283 -0.5560
  268CLA    CLA22396   3.212   4.370  14.437  0.3104  0.1375  0.0119
  269CLA    CLA22397   6.810   6.119   2.798  0.1526 -0.0324 -0.4152
  270CLA    CLA22398   4.325   7.200  15.214  0.3146  0.2227 -0.3047
  271CLA    CLA22399   6.920   0.233  15.876  0.0576 -0.1282  0.1263
  272CLA    CLA22400   5.585   3.046  10.515 -0.0180 -0.2308 -0.1885
  273CLA    CLA22401   0.857   3.765   5.023 -0.2359 -0.2333 -0.0926
  274CLA    CLA22402   4.699   0.460   1.016  0.0598 -0.1000 -0.5528
  275CLA    CLA22403   2.247   1.801   3.531  0.1249  0.0353 -0.3384
  276CLA    CLA22404   1.767   6.208  15.341  0.3993 -0.3556  0.4674
  277CLA    CLA22405   6.448   1.412   2.121 -0.1896 -0.2090  0.5620
  278CLA    CLA22406   5.097   6.369  14.553 -0.3998  0.1202 -0.2075
  279CLA    CLA22407   3.936   7.059   4.252  0.1327  0.3241 -0.2959
  280CLA    CLA22408   6.788   2.360  12.648  0.5439 -0.7813 -0.0781
  281CLA    CLA22409   4.918   6.501  12.458 -0.3179 -0.2013 -0.0097
  282CLA    CLA22410   6.490   2.998  13.493  0.0438 -0.1483 -0.3374
  283CLA    CLA22411   1.871   2.151   4.725  0.1862  0.1774  0.2484
  284CLA    CLA22412   2.551   4.566  13.501  0.3226  0.0468 -0.1106
  285CLA    CLA22413   6.324   7.322   4.422  0.0189  0.0435 -0.1688
  286CLA    CLA22414   4.966   4.218  12.188  0.0954 -0.0519  0.2401
  287CLA    CLA22415   3.662   5.424  12.325 -0.4763 -0.2036  0.4980
  288CLA    CLA22416   1.336   3.038  10.426  0.4425 -0.1552  0.3699
  289CLA    CLA22417   6.591   0.708   5.199 -0.1256  0.4160 -0.0915
  290CLA    CLA22418   4.095   2.494   3.114  0.1019  0.1783  0.1104
  291CLA    CLA22419   3.329   4.177   0.415  0.4757 -0.0584  0.3407
  292CLA    CLA22420   7.030   3.923  11.605  0.6837  0.0625 -0.0164
  293CLA    CLA22421   0.913   6.607  10.824  0.0345 -0.3413  0.2526
  294CLA    CLA22422   1.870   0.323  14.234 -0.5626 -0.0427 -0.1058
  295CLA    CLA22423   4.277   3.108   2.839 -0.3619 -0.2047  0.0198
  296CLA    CLA22424   2.876   3.713   0.068  0.0429 -0.1244 -0.1094
  297CLA    CLA22425   6.936   2.565   2.424 -0.3538  0.0569 -0.0539
  298CLA    CLA22426   3.950   5.581   2.487  0.3168  0.1113 -0.0278
  299CLA    CLA22427   2.629   5.922  15.324  0.1233  0.0060 -0.1713
  300CLA    CLA22428   4.541   1.844   0.841  0.2532  0.2095  0.0611
  301CLA    CLA22429   3.529   4.293   0.845 -0.3488 -0.0924  0.6584
  302CLA    CLA22430   7.189   4.116   1.731 -0.0806 -0.1974 -0.1199
  303CLA    CLA22431   2.138   3.565   1.542  0.1689 -0.1772  0.0477
  304CLA    CLA22432   1.654   2.959   1.794  0.0620 -0.3849 -0.2281
  305CLA    CLA22433   4.691   2.527   1.928 -0.3538 -0.2084  0.3181
  306CLA    CLA22434   2.807   6.022  11.243 -0.1858  0.2819  0.0956
  307CLA    CLA22435   0.351   3.287  14.184 -0.2678 -0.4427 -0.3274
  308CLA    CLA22436   4.476   7.213   1.191  0.2679  0.3802 -0.1403
  309CLA    CLA22437   3.530   4.493  11.162 -0.0878 -0.0209 -0.1498
  310CLA    CLA22438   4.083   5.229   3.940 -0.0354  0.1218  0.1130
  311CLA    CLA22439   2.117   4.590   4.866 -0.0109 -0.1635  0.2260
  312CLA    CLA22440   6.780   4.477   2.578 -0.4552 -0.1940 -0.2193
  313CLA    CLA22441   5.071   3.583  10.455 -0.5167  0.2172  0.0064
  314CLA    CLA22442   6.806   7.026  12.437  0.0264 -0.1186  0.2628
  315CLA    CLA22443   5.590   6.550  15.145 -0.0181  0.5902  0.2647
  316CLA    CLA22444   3.044   6.863  14.775  0.0651  0.2918  0.4537
  317CLA    CLA22445   2.377   0.243  10.646  0.6818 -0.0295  0.0496
  318CLA    CLA22446   4.777   1.865  15.210  0.2683  0.0766  0.4423
  319TIP3   OH222447   3.560   3.129  11.607 -0.3464  0.1727  0.6695
  319TIP3    H122448   3.479   3.162  11.646  0.6662  2.4156  0.9318
  319TIP3    H222449   3.630   3.174  11.654  1.0308 -0.8062 -0.3941
  320TIP3   OH222450   4.843   4.188  10.713  0.8845 -0.1390 -0.1372
  320TIP3    H122451   4.772   4.135  10.750  1.6232  0.6071  2.4401
  320TIP3    H222452   4.912   4.124  10.693  0.4488 -0.5493 -0.3511
  321TIP3   OH222453   2.202   4.770  10.985  0.6939 -0.5413 -0.5380
  321TIP3    H122454   2.160   4.854  10.968 -0.9341 -1.1504  0.4421
  321TIP3    H222455   2.285   4.793  11.027 -0.0227  0.5453  0.3057
  322TIP3   OH222456   4.018   3.727  10.278 -0.3372 -0.1811  0.3696
  322TIP3    H122457   3.960   3.660  10.241 -0.8512  0.6585 -0.3682
  322TIP3    H222458   4.095   3.725  10.221  0.0654 -0.7942  0.9201
  323TIP3   OH222459   4.952   4.131   9.869  0.5045 -0.3400  0.1121
  323TIP3    H122460   4.864   4.114   9.902  0.1854 -1.7565 -1.3891
  323TIP3    H222461   5.006   4.061   9.905  0.7635 -0.1571  0.0820
  324TIP3   OH222462   5.227   3.591   9.972  0.3317  0.2321  0.0708
  324TIP3    H122463   5.304   3.544   9.938  0.2389 -0.5906  0.9645
  324TIP3    H222464   5.154   3.557   9.920  0.3830  0.0220  0.1363
  325TIP3   OH222465   4.916   4.245  11.173  0.1392 -0.5402  0.0815
  325TIP3    H122466   4.851   4.177  11.184  0.9999 -1.2089  1.0797
  325TIP3    H222467   4.876   4.324  11.210  1.2272 -1.7261  3.9723
  326TIP3   OH222468   2.543   5.188  10.390 -0.8273  0.3448 -0.6486
  326TIP3    H122469   2.451   5.175  10.366 -1.8423  1.4240  2.4782
  326TIP3    H222470   2.547   5.168  10.483  2.4633 -1.2065 -1.0365
  327TIP3   OH222471   1.416   5.877   9.692 -0.9149  0.4803  0.3394
  327TIP3    H122472   1.363   5.885   9.771 -0.9489 -1.1624  0.5062
  327TIP3    H222473   1.473   5.802   9.709 -0.2204  0.7293 -0.8020
  328TIP3   OH222474   5.331   2.133  11.741  0.4529  0.0466 -0.3336
  328TIP3    H122475   5.297   2.208  11.691 -1.6509 -1.1331 -0.7185
  328TIP3    H222476   5.397   2.171  11.799  0.3676  1.9953 -1.4790
  329TIP3   OH222477   4.325   2.777   9.848  0.2781  0.6802  0.0668
  329TIP3    H122478   4.402   2.734   9.809  0.8230  1.3615  0.3853
  329TIP3    H222479   4.275   2.705   9.886 -0.2143  0.0014 -1.7944
  330TIP3   OH222480   4.228   3.050  10.295 -0.5278  0.4820 -0.1543
  330TIP3    H122481   4.256   3.134  10.258  1.7599 -0.0356  0.3245
  330TIP3    H222482   4.263   2.985  10.234  1.5284 -0.2840  1.7881
  331TIP3   OH222483   4.952   5.572  10.298  0.1960 -0.1265 -0.2265
  331TIP3    H122484   5.043   5.565  10.268 -0.0925  0.2512 -1.1766
  331TIP3    H222485   4.951   5.522  10.380  0.9950 -1.1064 -0.7953
  332TIP3   OH222486   5.331   4.001  12.354  0.0655  0.3827 -0.5029
  332TIP3    H122487   5.337   4.068  12.422  1.3273  0.0869 -0.3163
  332TIP3    H222488   5.412   3.951  12.362 -1.4148 -2.0038  0.2219
  333TIP3   OH222489   4.404   2.690  12.447 -0.6416  0.3176  0.3210
  333TIP3    H122490   4.367   2.617  12.498 -1.9966  0.8636  0.1426
  333TIP3    H222491   4.376   2.768  12.495 -0.8199  0.7853 -0.5440
  334TIP3   OH222492   3.816   2.789  11.735 -0.0421  0.4076 -0.0434
  334TIP3    H122493   3.814   2.694  11.724  0.5729  0.3838  0.0141
  334TIP3    H222494   3.743   2.808  11.793 -0.7896  0.0822 -0.8584
  335TIP3   OH222495   4.102   2.363   9.787 -0.3810  0.3937 -0.0544
  335TIP3    H122496   4.091   2.416   9.708 -1.0322  0.1394 -0.1400
  335TIP3    H222497   4.081   2.422   9.859 -0.7311  0.3633 -0.1288
  336TIP3   OH222498   4.132   2.076  10.769 -0.1248  0.2421  0.2150
  336TIP3    H122499   4.125   2.053  10.862  0.1683  0.1609  0.2175
  336TIP3    H222500   4.160   1.995  10.726  1.6516  0.7847  0.3296
  337TIP3   OH222501   1.593   3.040   9.717  0.0369 -0.4737 -0.7977
  337TIP3    H122502   1.529   3.098   9.674  0.1297  0.8841  0.8775
  337TIP3    H222503   1.585   2.957   9.669 -0.0477  0.9118 -3.2714
  338TIP3   OH222504   0.822   4.751   9.798 -0.1063 -0.3724 -0.3207
  338TIP3    H122505   0.762   4.789   9.862 -0.1572 -0.1049 -0.5251
  338TIP3    H222506   0.879   4.824   9.772  1.4825 -1.0276  1.2082
  339TIP3   OH222507   1.461   5.131  11.602 -0.4096 -0.0540  0.5335
  339TIP3    H122508   1.475   5.141  11.508  0.8887  1.2381  0.8381
  339TIP3    H222509   1.513   5.056  11.627  1.7608  1.4789  0.7309
  340TIP3   OH222510   3.115   5.308  10.231 -0.1972  0.3615 -0.2287
  340TIP3    H122511   3.120   5.262  10.314 -0.4760  0.9897  0.1428
  340TIP3    H222512   3.177   5.381  10.240 -1.3233  1.2928 -0.0163
  341TIP3   OH222513   3.089   5.903  11.934  0.1740  0.2406  0.4381
  341TIP3    H122514   3.004   5.903  11.976 -0.8576  0.3514 -1.5948
  341TIP3    H222515   3.077   5.955  11.854  2.4024  1.1302  0.6514
  342TIP3   OH222516   5.674   3.375  12.749  0.2684 -0.6378 -0.0422
  342TIP3    H122517   5.647   3.322  12.824 -0.2879 -1.8297 -1.0613
  342TIP3    H222518   5.591   3.403  12.708  0.5567 -0.8256 -0.7685
  343TIP3   OH222519   5.629   0.618  11.507  0.2782 -0.7144 -0.0890
  343TIP3    H122520   5.702   0.599  11.566  0.1967 -0.1588  0.1955
  343TIP3    H222521   5.668   0.665  11.434  0.6006 -2.5821 -1.1564
  344TIP3   OH222522   7.241   5.007  10.688 -0.1075  0.1904  0.1003
  344TIP3    H122523   7.183   5.069  10.645 -1.0570  0.1579  1.3262
  344TIP3    H222524   7.186   4.962  10.751  0.7816 -1.2806 -0.1568
  345TIP3   OH222525   5.555   4.136  10.988 -0.2699  0.0290  0.1708
  345TIP3    H122526   5.643   4.171  10.973 -0.1425 -0.1680  0.4541
  345TIP3    H222527   5.529   4.174  11.072  0.4410 -1.6773  1.1944
  346TIP3   OH222528   6.298   3.684   9.874  0.1612  0.0718 -0.4776
  346TIP3    H122529   6.319   3.710   9.963 -2.1184  1.7643 -0.4119
  346TIP3    H222530   6.300   3.588   9.876  0.2810  0.1004  1.3402
  347TIP3   OH222531   5.901   4.466  10.094  0.3432 -0.7573  0.2755
  347TIP3    H122532   5.828   4.516  10.131 -1.0193 -2.0637 -0.5840
  347TIP3    H222533   5.863   4.380  10.075  2.1658 -1.5110 -0.0145
  348TIP3   OH222534   6.143   2.273  10.568 -0.4305 -0.5059 -0.3634
  348TIP3    H122535   6.124   2.360  10.604 -1.3951 -0.4853 -0.9051
  348TIP3    H222536   6.114   2.212  10.635 -1.7874 -0.4577 -0.9000
  349TIP3   OH222537   6.535   4.308  10.266 -0.5273 -0.5459 -0.5231
  349TIP3    H122538   6.524   4.349  10.180 -1.4248  0.9244  0.2736
  349TIP3    H222539   6.630   4.312  10.282 -0.5091  0.4003 -0.8508
  350TIP3   OH222540   5.332   5.062  11.147  0.4095  0.2735  0.0531
  350TIP3    H122541   5.382   5.143  11.153 -0.6187  1.1787 -2.6984
  350TIP3    H222542   5.241   5.090  11.155  0.1322 -0.8428  0.9111
  351TIP3   OH222543   2.516   0.596  11.757  0.4233  0.6041 -0.3884
  351TIP3    H122544   2.579   0.631  11.819  0.2106 -1.3902  1.0125
  351TIP3    H222545   2.457   0.669  11.738  0.1603  1.0970  2.1950
  352TIP3   OH222546   5.123   2.255  11.127 -0.0631 -0.1236 -0.4452
  352TIP3    H122547   5.130   2.291  11.039 -0.2174  1.4634  0.1723
  352TIP3    H222548   5.033   2.276  11.154  1.2738  3.2250  1.6761
  353TIP3   OH222549   0.739   5.709  10.547  0.1223 -0.6423  0.6135
  353TIP3    H122550   0.751   5.619  10.575 -2.7566 -0.7710  1.5757
  353TIP3    H222551   0.690   5.703  10.465 -1.5778  0.0960  1.5664
  354TIP3   OH222552   2.574   2.189   9.637 -0.0905 -0.5098  0.5018
  354TIP3    H122553   2.505   2.128   9.664  0.1626  0.5906  3.8571
  354TIP3    H222554   2.655   2.146   9.661  0.1555  0.3195  1.2083
  355TIP3   OH222555   3.149   1.445  10.365  0.2462  0.5111  0.0819
  355TIP3    H122556   3.221   1.433  10.302  0.1163  0.2124 -0.0144
  355TIP3    H222557   3.071   1.456  10.310  0.3298  1.5735  0.1803
  356TIP3   OH222558   2.487   0.990  10.079  0.2048  0.1201 -0.4491
  356TIP3    H122559   2.539   0.911  10.089  0.3330  0.3626  1.0172
  356TIP3    H222560   2.513   1.026   9.995  0.7145 -0.9817 -0.7687
  357TIP3   OH222561   2.442   1.691  10.677 -0.4444 -0.5116 -0.0394
  357TIP3    H122562   2.357   1.732  10.695 -0.5463 -0.5645 -0.3901
  357TIP3    H222563   2.449   1.621  10.741 -0.5606 -0.3576  0.1414
  358TIP3   OH222564   3.720   6.189  10.446 -0.0820 -0.2246  0.3468
  358TIP3    H122565   3.677   6.179  10.361  0.7666 -1.3212  0.0307
  358TIP3    H222566   3.648   6.189  10.509 -0.7015  0.3306 -0.3442
  359TIP3   OH222567   0.238   4.903  10.491  0.3761 -0.1845  0.0127
  359TIP3    H122568   0.258   4.993  10.467  0.3639 -0.3678 -0.7156
  359TIP3    H222569   0.217   4.906  10.584 -1.3343  0.8295 -0.3943
  360TIP3   OH222570   1.290   6.320   9.606  0.2796 -0.5195  0.3019
  360TIP3    H122571   1.216   6.280   9.651 -0.5836  0.5603 -0.1287
  360TIP3    H222572   1.340   6.245   9.571 -1.0658 -1.2421 -0.1285
  361TIP3   OH222573   7.071   3.745   9.810  0.3622  0.2224  0.5085
  361TIP3    H122574   7.105   3.680   9.872  0.2283 -0.0066  0.3412
  361TIP3    H222575   7.141   3.809   9.802  0.3994  0.2315  0.8650
  362TIP3   OH222576   5.924   2.795  10.286  0.4014  0.7620  0.1775
  362TIP3    H122577   5.931   2.712  10.239  0.7300  0.5199  0.6444
  362TIP3    H222578   5.874   2.852  10.228 -0.6418 -0.0628  0.2541
  363TIP3   OH222579   1.391   4.628  11.024 -0.2346 -0.3581 -0.2024
  363TIP3    H122580   1.418   4.577  11.101 -4.1557 -0.7053  1.0790
  363TIP3    H222581   1.316   4.580  10.989 -0.7417  1.7524 -2.0904
  364TIP3   OH222582   0.212   4.029  11.184 -0.0341  0.2646  0.0419
  364TIP3    H122583   0.135   3.982  11.218  0.9360 -0.3980  1.3600
  364TIP3    H222584   0.286   3.992  11.232  1.3183 -0.2478 -2.3599
  365TIP3   OH222585   6.432   6.536  12.018  0.3187  0.5252  0.4779
  365TIP3    H122586   6.450   6.450  12.056 -0.4937  0.2341  0.2161
  365TIP3    H222587   6.464   6.598  12.084 -1.0131  0.0302  1.6227
  366TIP3   OH222588   2.348   7.050   9.865  0.1125  0.2950 -0.3448
  366TIP3    H122589   2.281   7.005   9.916 -0.3749 -0.7157 -1.8474
  366TIP3    H222590   2.420   6.987   9.858  0.9793  1.1411  0.7194
  367TIP3   OH222591   2.184   0.165   9.736 -0.6009 -0.0603  0.2875
  367TIP3    H122592   2.115   0.173   9.671 -1.3744  1.5167  1.2724
  367TIP3    H222593   2.157   0.222   9.808  0.4171 -1.4819  1.8463
  368TIP3   OH222594   2.304   1.289  12.027 -0.4194  0.1155  0.4315
  368TIP3    H122595   2.222   1.324  11.993  0.9241  2.5118 -0.4244
  368TIP3    H222596   2.369   1.307  11.959  1.5524  1.5773  2.6062
  369TIP3   OH222597   2.057   5.949  11.173  0.3142 -0.0788 -1.1869
  369TIP3    H122598   2.017   5.862  11.176 -1.9466  0.8051 -3.5671
  369TIP3    H222599   2.071   5.973  11.265  0.5418 -2.7309 -0.5000
  370TIP3   OH222600   6.020   6.142  10.230 -0.2546 -0.3524  0.1705
  370TIP3    H122601   6.094   6.130  10.170 -1.1958  0.5683 -1.2162
  370TIP3    H222602   5.949   6.173  10.174 -1.2695  0.1946  1.7264
  371TIP3   OH222603   2.058   1.334  11.227  0.2291 -0.2994  0.4146
  371TIP3    H122604   2.003   1.276  11.175  0.1989 -0.8381  1.0367
  371TIP3    H222605   2.119   1.373  11.164  0.3675 -1.1483  0.0144
  372TIP3   OH222606   1.579   1.071  10.172 -0.0118 -0.5432  0.1912
  372TIP3    H122607   1.532   0.992  10.143 -0.9739 -0.7355  2.1725
  372TIP3    H222608   1.536   1.142  10.125  1.3690 -1.2520 -2.2012
  373TIP3   OH222609   2.843   6.816  10.522 -0.4641 -0.3984 -0.0980
  373TIP3    H122610   2.751   6.842  10.523 -0.6743 -1.0238 -1.7375
  373TIP3    H222611   2.859   6.781  10.609 -1.0864  2.0539  1.0352
  374TIP3   OH222612   4.288   4.343   6.332 -0.1341  0.3796 -0.3359
  374TIP3    H122613   4.317   4.429   6.363  0.1604  0.8855 -1.9753
  374TIP3    H222614   4.369   4.294   6.318 -0.3347 -0.6664  1.9114
  375TIP3   OH222615   3.429   6.084   5.014 -1.2632 -0.1667  0.7610
  375TIP3    H122616   3.497   6.024   5.045  0.7857  1.2097 -1.0146
  375TIP3    H222617   3.438   6.161   5.070 -0.1119  0.7616 -0.6835
  376TIP3   OH222618   2.742   6.228   4.633 -0.0723 -0.2365 -0.1969
  376TIP3    H122619   2.762   6.162   4.699 -0.0793  1.5786  1.6644
  376TIP3    H222620   2.828   6.264   4.609 -0.1727 -0.0613 -0.2890
  377TIP3   OH222621   2.433   3.659   5.619  0.2195 -0.0971 -0.4074
  377TIP3    H122622   2.382   3.738   5.638 -0.1751 -0.0521 -1.6008
  377TIP3    H222623   2.397   3.627   5.536  1.3842 -0.7023 -0.6854
  378TIP3   OH222624   0.705   3.146   4.496  0.2809  0.1002  0.6171
  378TIP3    H122625   0.778   3.089   4.522  1.6587  2.2455  1.5912
  378TIP3    H222626   0.646   3.145   4.571  1.6925  2.1373  1.8067
  379TIP3   OH222627   4.791   2.373   5.381  0.3987 -0.0962  0.2506
  379TIP3    H122628   4.844   2.321   5.442  0.5370 -0.9605 -0.5972
  379TIP3    H222629   4.831   2.359   5.295 -0.3667  0.3452 -0.1925
  380TIP3   OH222630   4.618   4.609   5.558 -0.0234  0.2632 -0.4247
  380TIP3    H122631   4.649   4.659   5.633 -1.2192  1.4904 -0.7477
  380TIP3    H222632   4.557   4.545   5.596  0.4120 -0.0235 -0.1957
  381TIP3   OH222633   3.131   5.805   4.886  0.0577  0.0790 -0.0424
  381TIP3    H122634   3.197   5.800   4.817  1.0850  0.5890  0.8894
  381TIP3    H222635   3.171   5.761   4.961 -1.1791 -0.7768  0.1448
  382TIP3   OH222636   2.267   4.839   5.453 -0.0761  0.2131 -0.0501
  382TIP3    H122637   2.258   4.847   5.358  2.5003  0.6218 -0.2963
  382TIP3    H222638   2.227   4.918   5.488 -0.8267  0.1766 -0.8031
  383TIP3   OH222639   1.907   3.581   5.951 -0.2075 -0.7108  0.1389
  383TIP3    H122640   1.822   3.546   5.924 -0.2528 -0.1582 -0.4524
  383TIP3    H222641   1.911   3.566   6.046 -2.5083  2.4980  0.8140
  384TIP3   OH222642   2.697   5.082   5.836  0.2384  0.8746 -0.0857
  384TIP3    H122643   2.668   5.066   5.746  1.5663  0.8915 -0.5316
  384TIP3    H222644   2.787   5.116   5.826  0.1558  1.4947  1.2085
  385TIP3   OH222645   4.250   5.797   4.306 -0.0456 -0.2413 -0.3847
  385TIP3    H122646   4.185   5.728   4.291 -0.9325  0.1357  1.5332
  385TIP3    H222647   4.300   5.767   4.382  2.8453 -1.0770 -2.5368
  386TIP3   OH222648   5.174   6.231   5.798  0.2477  0.2022 -0.0726
  386TIP3    H122649   5.174   6.159   5.861  0.4313 -0.3333 -0.6679
  386TIP3    H222650   5.201   6.307   5.848 -1.9506  0.2924  1.0424
  387TIP3   OH222651   1.420   2.722   5.216 -0.3426 -0.0722 -0.5367
  387TIP3    H122652   1.340   2.774   5.208 -0.4211 -0.1836 -0.4958
  387TIP3    H222653   1.452   2.713   5.127  0.3431  1.0727 -0.4162
  388TIP3   OH222654   2.942   0.670   5.994  0.0889 -0.0269 -0.0934
  388TIP3    H122655   2.886   0.712   6.059  0.8550  1.8202 -0.6080
  388TIP3    H222656   2.894   0.679   5.912 -1.2242 -3.0134  0.2878
  389TIP3   OH222657   3.131   1.703   4.963 -0.7663 -0.0466  0.2335
  389TIP3    H122658   3.119   1.610   4.983 -0.8040 -0.1587 -0.2992
  389TIP3    H222659   3.144   1.705   4.869 -0.5751  0.4741  0.2726
  390TIP3   OH222660   3.602   4.782   5.587 -0.1638  0.0426 -0.8557
  390TIP3    H122661   3.678   4.767   5.644 -1.3359  1.5586  1.1687
  390TIP3    H222662   3.562   4.695   5.579  0.3034 -0.2862  0.2329
  391TIP3   OH222663   4.863   0.605   5.598  0.1779 -0.1862 -0.5924
  391TIP3    H122664   4.795   0.667   5.625  2.0716  0.9937  1.6180
  391TIP3    H222665   4.858   0.535   5.663  1.7700  0.4387  0.2249
  392TIP3   OH222666   4.925   0.857   6.299  0.2692  0.4513  0.0348
  392TIP3    H122667   5.020   0.852   6.290  0.3682 -0.0092  1.2209
  392TIP3    H222668   4.908   0.946   6.330  0.4693  0.0023  1.4794
  393TIP3   OH222669   4.459   7.170   5.677  0.3573  0.2781  0.0072
  393TIP3    H122670   4.550   7.184   5.702  1.3533 -0.8110 -2.9178
  393TIP3    H222671   4.414   7.248   5.709  2.2882  0.8552  1.4476
  394TIP3   OH222672   0.548   0.330   6.008 -0.0268  0.5495  0.1063
  394TIP3    H122673   0.461   0.311   5.973 -0.1477  1.2511  0.0143
  394TIP3    H222674   0.593   0.245   6.009 -0.4328  0.3262 -0.5983
  395TIP3   OH222675   6.184   2.785   6.216  0.0909  0.7318  0.1403
  395TIP3    H122676   6.197   2.737   6.298 -1.3681  1.2791  0.7095
  395TIP3    H222677   6.100   2.753   6.182  0.1801  1.2672 -0.6036
  396TIP3   OH222678   6.639   5.931   6.133  0.4501  0.2703 -0.6257
  396TIP3    H122679   6.729   5.938   6.165  0.2009  0.1658  0.1012
  396TIP3    H222680   6.593   6.004   6.174  0.1999  0.3338 -1.0069
  397TIP3   OH222681   5.393   6.251   6.122  0.3443  0.0864 -0.8306
  397TIP3    H122682   5.419   6.325   6.068 -2.3674  1.5375 -0.2122
  397TIP3    H222683   5.313   6.280   6.166  1.4538 -1.6946  2.5771
  398TIP3   OH222684   6.175   6.104   5.709 -0.1765  0.0471 -0.7917
  398TIP3    H122685   6.192   6.128   5.800 -0.2788  0.2247 -0.8183
  398TIP3    H222686   6.254   6.058   5.681 -0.6833 -1.1996 -0.2078
  399TIP3   OH222687   3.555   6.928   6.425 -0.8562 -0.4023 -0.4186
  399TIP3    H122688   3.553   7.006   6.370  1.5553 -0.2493 -0.3324
  399TIP3    H222689   3.513   6.861   6.371 -2.0781  0.7021 -0.8671
  400TIP3   OH222690   4.960   7.341   5.151  0.0579 -0.4175 -0.1173
  400TIP3    H122691   4.985   7.405   5.084 -0.2285  0.1709  0.3324
  400TIP3    H222692   5.041   7.292   5.169  0.9680  1.5964  1.4675
  401TIP3   OH222693   5.563   3.013   5.195 -0.0969  0.1247 -0.3215
  401TIP3    H122694   5.624   3.042   5.127 -0.9591  0.4470 -0.9668
  401TIP3    H222695   5.619   2.971   5.261  1.3548  4.1575  1.1755
  402TIP3   OH222696   6.124   1.666   6.140  0.1472 -0.7704 -0.5120
  402TIP3    H122697   6.073   1.609   6.198  0.8292 -2.7125 -1.7623
  402TIP3    H222698   6.080   1.661   6.056 -0.2595  1.2431 -0.4512
  403TIP3   OH222699   6.733   1.250   6.030  0.5283  0.6329 -0.0106
  403TIP3    H122700   6.751   1.344   6.039  1.9730  0.2210  1.4513
  403TIP3    H222701   6.646   1.247   5.989  0.2696  2.6024  0.3452
  404TIP3   OH222702   5.370   1.078   5.278 -0.0553 -0.3945 -0.0814
  404TIP3    H122703   5.363   1.104   5.370  1.7952 -2.7459  0.7798
  404TIP3    H222704   5.364   0.982   5.280 -0.1839 -0.4566 -2.4317
  405TIP3   OH222705   5.674   6.307   5.494 -0.0434  0.0376 -0.0091
  405TIP3    H122706   5.702   6.241   5.431 -0.0244 -0.6598  0.7256
  405TIP3    H222707   5.754   6.352   5.520 -0.0760  0.4508 -0.6261
  406TIP3   OH222708   0.165   1.632   5.901 -0.0132  0.2364  0.5430
  406TIP3    H122709   0.100   1.604   5.965 -1.4773  1.3329 -0.4297
  406TIP3    H222710   0.230   1.681   5.953  0.0892 -0.9290  1.5261
  407TIP3   OH222711   7.121   2.748   6.096  0.4411 -0.1558  0.7931
  407TIP3    H122712   7.172   2.680   6.051 -2.8738 -2.3590  0.1509
  407TIP3    H222713   7.070   2.699   6.161 -2.8795  1.5296 -0.4527
  408TIP3   OH222714   1.364   2.189   5.904  0.0039 -0.8564  0.0956
  408TIP3    H122715   1.338   2.176   5.813  2.5220  0.4211 -0.8211
  408TIP3    H222716   1.433   2.124   5.919  0.7893  0.0745  0.5719
  409TIP3   OH222717   3.116   0.197   5.931  0.1149 -0.4842 -0.2438
  409TIP3    H122718   3.134   0.282   5.972 -2.8832 -0.4443  1.1327
  409TIP3    H222719   3.061   0.218   5.855  0.5551 -1.0876 -0.7369
  410TIP3   OH222720   3.760   6.422   5.432 -0.2559 -0.1641 -0.6003
  410TIP3    H122721   3.682   6.460   5.471  0.2933  0.8637 -0.4729
  410TIP3    H222722   3.829   6.436   5.497 -0.5082 -3.5237  0.5159
  411TIP3   OH222723   0.222   4.784   5.899 -0.0602 -0.0768 -0.9594
  411TIP3    H122724   0.171   4.703   5.909 -0.1337  0.1304  0.4148
  411TIP3    H222725   0.165   4.852   5.935  0.7954  0.2956 -0.3148
  412TIP3   OH222726   1.852   6.922   5.856 -0.3789  0.0533  0.0164
  412TIP3    H122727   1.880   7.000   5.904 -1.8605  1.4996 -1.4141
  412TIP3    H222728   1.790   6.879   5.915  0.4662 -0.0884  0.8248
  413TIP3   OH222729   2.240   6.801   5.814  0.2324  0.3427 -0.3200
  413TIP3    H122730   2.287   6.807   5.898 -0.9223 -1.7401  0.5236
  413TIP3    H222731   2.150   6.826   5.836 -0.0045  0.1021 -1.0194
  414TIP3   OH222732   1.457   7.120   5.190  0.2126  0.0386 -0.4222
  414TIP3    H122733   1.495   7.058   5.129  0.2926 -0.2846 -0.0456
  414TIP3    H222734   1.497   7.099   5.274 -0.4840 -0.0251 -0.1033
  415TIP3   OH222735   3.395   1.078   5.174  0.7998 -0.1233 -0.1045
  415TIP3    H122736   3.340   1.156   5.185 -2.2198 -2.4076  1.8390
  415TIP3    H222737   3.484   1.108   5.193 -0.0808  3.1126 -0.7043
  416TIP3   OH222738   5.781   0.810   6.300  0.0398  0.1233  0.2366
  416TIP3    H122739   5.687   0.789   6.307  0.0402  0.2744  0.7525
  416TIP3    H222740   5.785   0.881   6.236 -0.2127  0.1940  0.2966
  417TIP3   OH222741   7.060   1.977   5.720  0.0811  0.1050  0.5203
  417TIP3    H122742   7.033   1.921   5.793  3.4496 -0.4383  1.4264
  417TIP3    H222743   7.151   1.953   5.704 -0.3531  0.7912 -3.3740
  418TIP3   OH222744   0.556   0.955   5.442  0.2721 -0.2499 -0.0850
  418TIP3    H122745   0.634   0.920   5.485 -0.6012 -1.0889  0.8573
  418TIP3    H222746   0.516   0.878   5.400 -0.5356  0.0100  0.2138
  419TIP3   OH222747   6.142   1.497   5.332  0.2069 -0.1616 -0.0895
  419TIP3    H122748   6.121   1.522   5.242  0.3650  1.5346  0.3138
  419TIP3    H222749   6.108   1.569   5.385  0.4129 -0.9821  1.1835
  420TIP3   OH222750   5.495   0.804   6.275 -0.1594 -0.4149 -0.0551
  420TIP3    H122751   5.403   0.830   6.281 -0.1382 -0.3837  0.1617
  420TIP3    H222752   5.515   0.807   6.182 -0.0695  0.6807 -0.0114
  421TIP3   OH222753   6.023   1.121   4.487  0.3848  0.1029  0.3467
  421TIP3    H122754   6.116   1.097   4.486  0.2023 -0.7153  1.2111
  421TIP3    H222755   5.977   1.037   4.486 -0.3943  0.5205 -2.0418
  422TIP3   OH222756   0.316   6.605   5.611  0.5985 -0.3714  0.0228
  422TIP3    H122757   0.231   6.575   5.579  0.7822 -0.6840 -0.1706
  422TIP3    H222758   0.332   6.687   5.565  0.6683 -0.6054 -0.3694
  423TIP3   OH222759   7.023   1.865   5.954 -0.0722  0.1244  0.0379
  423TIP3    H122760   6.992   1.811   6.027  0.2587 -1.4014 -0.9412
  423TIP3    H222761   7.117   1.872   5.968 -0.0376 -0.0054 -0.1265
  424TIP3   OH222762   7.145   1.576   4.996 -0.0870  0.2542 -0.7511
  424TIP3    H122763   7.218   1.521   4.967  0.0009 -1.0925  1.8370
  424TIP3    H222764   7.182   1.631   5.065 -0.9401  1.3727 -1.1612
  425TIP3   OH222765   0.432   1.173   5.720  0.2158 -0.7258 -0.5242
  425TIP3    H122766   0.394   1.203   5.802  0.1283 -0.7998 -0.5362
  425TIP3    H222767   0.392   1.229   5.653 -0.0553 -0.9585 -0.5608
  426TIP3   OH222768   5.429   1.040   3.462  0.3669 -0.0080 -0.2777
  426TIP3    H122769   5.375   1.034   3.541 -0.9199  1.3555 -1.0288
  426TIP3    H222770   5.421   0.954   3.420 -0.1525 -0.2423  0.2981
  427TIP3   OH222771   6.503   6.592   6.307  0.2239  0.1299 -0.1150
  427TIP3    H122772   6.420   6.626   6.339  0.4149  2.5129 -2.0085
  427TIP3    H222773   6.566   6.613   6.377 -0.4215 -0.0379  0.5195
  428TIP3   OH222774   6.294   0.433   5.467  0.3552 -0.1036  0.0805
  428TIP3    H122775   6.378   0.479   5.470  0.7188 -0.8352  2.4256
  428TIP3    H222776   6.311   0.354   5.417  0.0533  1.5967 -2.8425
  429TIP3   OH222777   1.187   0.347  12.177  0.0806 -0.0739  0.1357
  429TIP3    H122778   1.141   0.402  12.114  3.0731  1.2405 -0.9745
  429TIP3    H222779   1.170   0.257  12.148 -2.3492  0.3292  0.2076
  430TIP3   OH222780   2.116   1.673   9.824  0.0187  0.2711  0.9413
  430TIP3    H122781   2.160   1.741   9.772  0.2793 -0.0456  0.7467
  430TIP3    H222782   2.176   1.598   9.822 -1.0957 -0.6131 -0.4082
  431TIP3   OH222783   0.972   5.013  12.786  0.2723 -0.2411  0.0292
  431TIP3    H122784   0.952   5.059  12.704  1.2633  0.4887  0.1845
  431TIP3    H222785   1.060   4.978  12.772 -0.4513 -2.0695 -0.0726
  432TIP3   OH222786   2.737   0.919  11.785 -0.3784  0.0448 -0.3272
  432TIP3    H122787   2.819   0.969  11.781  0.6009 -1.5781 -1.3370
  432TIP3    H222788   2.756   0.850  11.849 -0.8725 -0.4771 -0.7457
  433TIP3   OH222789   3.017   0.486  10.479 -0.0751 -0.3057 -0.1833
  433TIP3    H122790   3.109   0.466  10.462 -0.4527 -2.1246 -0.2511
  433TIP3    H222791   2.991   0.544  10.408  1.2679  0.9966  0.3743
  434TIP3   OH222792   1.062   7.230  10.040  0.0967  0.0147 -0.0273
  434TIP3    H122793   1.147   7.206  10.002  0.5276 -0.1480  1.0171
  434TIP3    H222794   1.038   7.155  10.095 -1.7428 -0.8534 -1.9258
  435TIP3   OH222795   7.334   1.488  12.037  0.2496 -0.2053 -0.3457
  435TIP3    H122796   7.317   1.446  12.122  2.2526 -0.0772  0.1428
  435TIP3    H222797   7.409   1.441  12.002  0.0790  0.4365 -1.5830
  436TIP3   OH222798   1.485   2.248  10.033 -0.2426  0.3370  0.1808
  436TIP3    H122799   1.443   2.166  10.057  0.5078 -0.3177 -0.6974
  436TIP3    H222800   1.507   2.290  10.116 -2.1997  0.4791  0.6528
  437TIP3   OH222801   0.621   0.908  12.862 -0.2539  0.5075 -0.3416
  437TIP3    H122802   0.589   0.997  12.872 -3.4258 -0.1287 -3.6848
  437TIP3    H222803   0.682   0.913  12.787 -1.4851 -0.3071 -1.4266
  438TIP3   OH222804   2.006   1.423  11.624  0.2772  0.2693  0.6956
  438TIP3    H122805   1.962   1.343  11.594 -0.9004  1.5227 -0.9847
  438TIP3    H222806   2.071   1.442  11.557  2.5570 -0.8289  2.5148
  439TIP3   OH222807   0.166   6.877  10.459  0.0170 -0.1380 -0.1627
  439TIP3    H122808   0.166   6.943  10.389  0.3966  1.2809  1.1405
  439TIP3    H222809   0.255   6.878  10.493  0.0413 -1.3973 -0.1941
  440TIP3   OH222810   2.499   2.648  11.221 -0.4418  0.2006 -0.2227
  440TIP3    H122811   2.483   2.658  11.127  2.6966  1.4967 -0.6747
  440TIP3    H222812   2.573   2.588  11.226 -0.8046 -0.1225  1.4645
  441TIP3   OH222813   0.715   1.365  10.170 -0.5019  0.0723 -0.3284
  441TIP3    H122814   0.691   1.336  10.082  0.7939 -1.3491 -0.2126
  441TIP3    H222815   0.779   1.302  10.200 -0.3961  0.9642  1.3752
  442TIP3   OH222816   0.208   6.540  10.343 -0.4167 -0.2093  0.5303
  442TIP3    H122817   0.247   6.486  10.275  0.2639  2.0813 -0.9696
  442TIP3    H222818   0.282   6.586  10.383 -1.1901  1.5436  0.0081
  443TIP3   OH222819   6.926   6.454  12.778 -0.2135 -0.2623 -0.1466
  443TIP3    H122820   6.992   6.496  12.832 -0.2062  0.8641 -1.0035
  443TIP3    H222821   6.973   6.386  12.730  0.1434 -0.0383 -0.1115
  444TIP3   OH222822   1.969   0.187  10.947  0.4474  0.2361  0.0049
  444TIP3    H122823   1.876   0.167  10.934  0.7034 -0.1925 -1.2080
  444TIP3    H222824   1.974   0.220  11.037 -0.8518  0.1057  0.1331
  445TIP3   OH222825   1.476   2.022  10.657  0.0600  0.2135 -0.4595
  445TIP3    H122826   1.444   2.016  10.567  0.6567  0.7545 -0.7107
  445TIP3    H222827   1.560   2.067  10.650  0.3115 -0.1215  0.3248
  446TIP3   OH222828   7.263   1.515  10.168 -0.0507  0.4208  0.1021
  446TIP3    H122829   7.227   1.570  10.099 -0.5006  0.9302  0.7424
  446TIP3    H222830   7.357   1.533  10.166 -0.0610  0.4296 -0.3757
  447TIP3   OH222831   1.146   2.812  10.509 -0.4454  0.0971 -0.2055
  447TIP3    H122832   1.170   2.751  10.440 -0.3740 -1.6158  1.3022
  447TIP3    H222833   1.213   2.881  10.505 -0.2742 -0.1426 -1.6308
  448TIP3   OH222834   2.051   1.255  10.322 -0.2596 -0.2409 -0.2214
  448TIP3    H122835   1.971   1.204  10.310 -2.6100  2.3802  3.3251
  448TIP3    H222836   2.110   1.198  10.371 -0.4753 -1.6741 -1.6000
  449TIP3   OH222837   2.123   5.012  10.911 -0.0263  0.3356  0.2337
  449TIP3    H122838   2.032   5.032  10.892  0.1360  0.5797 -0.2985
  449TIP3    H222839   2.167   5.014  10.825  0.6382  1.0741  0.5795
  450TIP3   OH222840   6.670   0.049  10.650  0.0890 -0.1175  0.2475
  450TIP3    H122841   6.641  -0.011  10.581  1.7828 -0.2569 -0.3492
  450TIP3    H222842   6.750   0.089  10.616 -0.7918  2.2130  0.8036
  451TIP3   OH222843   7.193   1.294  10.305  0.2672  0.1147 -0.1088
  451TIP3    H122844   7.277   1.250  10.317 -0.2347 -0.5234  1.2273
  451TIP3    H222845   7.212   1.370  10.250  2.1173  1.2637  2.0698
  452TIP3   OH222846   2.492   3.088  12.133 -0.1155 -0.4750 -0.1466
  452TIP3    H122847   2.564   3.035  12.098  0.5031 -0.3285  0.8559
  452TIP3    H222848   2.492   3.068  12.227 -1.3166 -0.3794 -0.1262
  453TIP3   OH222849   2.241   1.067  12.454 -0.4538  0.4819 -0.1401
  453TIP3    H122850   2.186   1.000  12.494  1.0196  0.8186  2.4989
  453TIP3    H222851   2.260   1.032  12.366 -2.5832 -0.9024 -0.0779
  454TIP3   OH222852   1.512   1.268  10.537 -0.0210  0.1424  0.3508
  454TIP3    H122853   1.590   1.323  10.548 -0.8811  1.0533  2.2249
  454TIP3    H222854   1.528   1.193  10.594  1.0764 -1.5166 -2.0827
  455TIP3   OH222855   1.311   2.441  11.616 -0.1521 -0.4732 -0.4539
  455TIP3    H122856   1.386   2.382  11.607 -0.1085 -0.4239 -0.4145
  455TIP3    H222857   1.254   2.398  11.679 -0.0260 -0.3752 -0.2750
  456TIP3   OH222858   2.913   0.649  11.558  0.0802 -0.4897  0.3041
  456TIP3    H122859   2.976   0.716  11.584  0.7400 -1.9088  2.4976
  456TIP3    H222860   2.905   0.592  11.634 -2.4146 -1.4598 -0.6132
  457TIP3   OH222861   1.023   1.284  10.644  0.5782  0.4917 -0.5298
  457TIP3    H122862   0.979   1.267  10.561 -0.2361  1.0979 -0.2342
  457TIP3    H222863   1.116   1.278  10.623  0.3705 -0.0762 -1.3270
  458TIP3   OH222864   0.752   0.447  11.513 -0.0147  0.2669 -0.0973
  458TIP3    H122865   0.715   0.435  11.600 -0.7184  3.7588  0.1598
  458TIP3    H222866   0.834   0.494  11.529  1.3883 -1.7373 -1.1482
  459TIP3   OH222867   0.543   0.438  10.428 -1.1285  0.3972  0.2604
  459TIP3    H122868   0.452   0.429  10.399 -1.2064  2.0218 -0.0707
  459TIP3    H222869   0.560   0.532  10.424  0.0678  0.2710  1.8375
  460TIP3   OH222870   1.751   0.922  10.566  0.0702 -0.6079 -0.1602
  460TIP3    H122871   1.714   0.846  10.520  0.4690 -1.7660  1.4110
  460TIP3    H222872   1.843   0.899  10.580  0.7526  1.0955 -1.5874
  461TIP3   OH222873   7.312   1.893  13.143 -0.0987 -0.0349 -0.2839
  461TIP3    H122874   7.318   1.865  13.235 -0.3244 -0.2030 -0.3192
  461TIP3    H222875   7.228   1.858  13.113 -0.3817  0.6671 -0.3348
  462TIP3   OH222876   2.080   7.304  12.983  0.0324  0.2633  1.1604
  462TIP3    H122877   2.065   7.211  12.967 -0.7130  0.3895  1.1118
  462TIP3    H222878   1.997   7.346  12.959  1.5590  1.3780 -2.3961
  463TIP3   OH222879   0.109   1.426  10.511 -0.1379 -0.3483 -0.1400
  463TIP3    H122880   0.111   1.342  10.464  0.6450 -0.6192  0.3822
  463TIP3    H222881   0.147   1.407  10.596  1.1444  0.7975 -0.4403
  464TIP3   OH222882   1.205   3.046  10.140 -0.4367  0.2791  0.6574
  464TIP3    H122883   1.257   3.124  10.121 -0.0420 -0.1010  0.1674
  464TIP3    H222884   1.233   3.018  10.227 -1.8559  1.7154  1.5992
  465TIP3   OH222885   0.436   6.823  12.698  0.3580 -0.5451 -0.1461
  465TIP3    H122886   0.483   6.791  12.621  2.3656  0.8278  0.4787
  465TIP3    H222887   0.395   6.745  12.736  2.5134 -1.8485 -0.4450
  466TIP3   OH222888   2.582   1.917  11.468  0.0180  0.0757 -0.7113
  466TIP3    H122889   2.532   1.974  11.526  1.9413 -0.5029  1.6090
  466TIP3    H222890   2.551   1.829  11.487  2.3279 -0.3688  1.2946
  467TIP3   OH222891   1.176   7.037  10.729  0.6826  0.0321 -0.1117
  467TIP3    H122892   1.099   6.982  10.715 -0.2472  1.2749  0.0597
  467TIP3    H222893   1.208   7.013  10.816  0.6859 -0.7240 -0.3191
  468TIP3   OH222894   1.040   0.114   9.887 -0.0485  0.5812  0.3656
  468TIP3    H122895   1.064   0.065   9.808 -0.0900 -0.2315  0.8586
  468TIP3    H222896   1.063   0.056   9.959 -3.3210 -0.1574  0.8668
  469TIP3   OH222897   7.080   1.512  10.775 -0.3582  0.3075 -0.0208
  469TIP3    H122898   7.102   1.424  10.743 -0.0497  0.9114 -1.4825
  469TIP3    H222899   7.162   1.545  10.812  0.0855  0.8358 -1.4673
  470TIP3   OH222900   2.714   0.696  11.932 -0.2583 -0.5021 -0.2723
  470TIP3    H122901   2.799   0.651  11.933  0.7365  1.3397  0.3439
  470TIP3    H222902   2.678   0.681  12.020  0.4450  0.5682  0.2083
  471TIP3   OH222903   1.596   0.889  13.548 -0.0188  0.4236  0.0642
  471TIP3    H122904   1.649   0.845  13.615 -0.6566 -1.5325 -0.6761
  471TIP3    H222905   1.525   0.931  13.596  0.5776  0.6187  0.7844
  472TIP3   OH222906   0.926   0.353   9.866 -0.2883 -0.2150 -0.3156
  472TIP3    H122907   0.960   0.265   9.879  2.3694  1.0669  1.9292
  472TIP3    H222908   0.840   0.352   9.908 -0.0836 -1.6228  0.0817
  473TIP3   OH222909   1.141   0.312  11.080  0.4949 -0.0315  0.1512
  473TIP3    H122910   1.046   0.301  11.075  0.2137  1.8207  0.9921
  473TIP3    H222911   1.166   0.346  10.994  0.4092 -0.6058 -0.1032
  474TIP3   OH222912   2.716   0.258  11.049 -0.3062 -0.3876  0.4892
  474TIP3    H122913   2.681   0.180  11.005 -0.0665  1.2351 -2.7805
  474TIP3    H222914   2.799   0.275  11.004 -1.2757  2.8353 -0.2380
  475TIP3   OH222915   0.835   1.661  12.783 -0.5680 -0.4592  0.0096
  475TIP3    H122916   0.842   1.635  12.692 -2.3259 -1.4484  0.1149
  475TIP3    H222917   0.913   1.625  12.825 -1.0992 -2.4252 -0.5931
  476TIP3   OH222918   1.688   0.416  10.404  0.3753  0.6967 -0.4050
  476TIP3    H122919   1.746   0.435  10.331  0.6963  1.3418  0.0197
  476TIP3    H222920   1.736   0.444  10.482  0.1993 -0.3511  0.0964
  477TIP3   OH222921   0.893   7.245  10.617 -0.5705 -0.5278 -0.5050
  477TIP3    H122922   0.825   7.217  10.556 -1.2002  0.7925 -0.4315
  477TIP3    H222923   0.886   7.184  10.691 -1.2134 -0.8274 -0.8094
  478TIP3   OH222924   1.955   0.765  12.750 -0.6945  0.0730 -0.0112
  478TIP3    H122925   2.011   0.695  12.785  0.1438  0.3286 -0.8477
  478TIP3    H222926   1.900   0.722  12.685  0.5404  0.3859 -1.2759
  479TIP3   OH222927   0.170   1.299  11.923  0.1141 -0.5809  0.2547
  479TIP3    H122928   0.148   1.254  11.841  0.6235 -1.6998  0.7209
  479TIP3    H222929   0.249   1.348  11.902 -0.3819  0.0291 -0.2261
  480TIP3   OH222930   7.034   1.068  10.400  0.2451  0.6868  0.0275
  480TIP3    H122931   6.989   1.058  10.316  0.1406  0.0769  0.1580
  480TIP3    H222932   7.104   1.131  10.383  1.6041 -1.0900 -1.0508
  481TIP3   OH222933   2.149   2.798  12.285  0.2274  0.1611 -0.1115
  481TIP3    H122934   2.067   2.842  12.264  0.6850  0.2889 -1.6823
  481TIP3    H222935   2.123   2.708  12.304 -0.4328  0.5353  0.8125
  482TIP3   OH222936   1.885   0.028  14.372 -0.1107 -0.4312  0.8477
  482TIP3    H122937   1.923   0.040  14.459  1.2402  0.0935  0.2080
  482TIP3    H222938   1.878   0.116  14.336  0.3688 -0.7246  0.0101
  483TIP3   OH222939   2.895   0.008  10.875 -0.1407 -0.0136  0.3898
  483TIP3    H122940   2.875  -0.086  10.873 -0.9402  0.1591  0.3410
  483TIP3    H222941   2.825   0.049  10.825  0.4968  0.5654 -0.0368
  484TIP3   OH222942   0.745   7.031  10.743  0.2619  0.5457  0.2718
  484TIP3    H122943   0.697   7.033  10.660 -0.6979 -0.4856  0.7900
  484TIP3    H222944   0.699   6.966  10.796 -0.0565  2.2980  2.1775
  485TIP3   OH222945   1.138   0.403  10.220  0.0712 -0.2942  0.0887
  485TIP3    H122946   1.197   0.445  10.157  0.7979 -0.9367  0.3249
  485TIP3    H222947   1.195   0.342  10.268 -0.3320  0.6421  1.7914
  486TIP3   OH222948   2.425   0.094  10.132  0.6851  0.8469  0.3717
  486TIP3    H122949   2.374   0.067  10.208  0.3149  1.5388  0.3725
  486TIP3    H222950   2.509   0.048  10.142  0.2066  0.0184  0.5757
  487TIP3   OH222951   0.902   1.309  10.392 -0.0840 -0.3539  0.0425
  487TIP3    H122952   0.949   1.329  10.311 -0.3765 -0.9245 -0.2680
  487TIP3    H222953   0.892   1.394  10.435  3.6407 -0.5214  1.4532
  488TIP3   OH222954   1.005   7.012  10.225  0.0536  0.0050  0.0181
  488TIP3    H122955   0.988   6.987  10.316 -0.1380  0.0231 -0.0120
  488TIP3    H222956   0.948   6.956  10.173  1.5740 -1.3706 -0.2088
  489TIP3   OH222957   0.451   1.172  11.889 -0.4742  0.4245  0.2252
  489TIP3    H122958   0.455   1.178  11.985 -0.1598  1.2429  0.1722
  489TIP3    H222959   0.516   1.236  11.859  0.3744 -0.7649 -0.5259
  490TIP3   OH222960   1.249   5.892  10.412 -0.1055  0.0687 -0.1157
  490TIP3    H122961   1.204   5.809  10.432  0.3330 -0.3837 -0.9767
  490TIP3    H222962   1.287   5.919  10.495 -1.7447  0.3162  0.5743
  491TIP3   OH222963   1.526   0.370  12.670 -0.5154  0.1985  0.4322
  491TIP3    H122964   1.607   0.354  12.718  0.7975  1.2337 -1.3745
  491TIP3    H222965   1.532   0.313  12.593 -0.6613  1.5592 -0.6155
  492TIP3   OH222966   1.960   0.655  10.757 -0.7543  0.1828  0.8196
  492TIP3    H122967   1.961   0.711  10.680  0.5724  0.7829  1.2659
  492TIP3    H222968   2.048   0.616  10.760 -0.8269  0.0794  1.9580
  493TIP3   OH222969   7.142   0.314  10.137  0.6407  0.1090 -0.0227
  493TIP3    H122970   7.165   0.398  10.097  0.0510  0.1360 -0.3154
  493TIP3    H222971   7.205   0.252  10.102  1.3144  0.5021  0.4804
  494TIP3   OH222972   1.567   6.586   9.986  0.6437 -0.4079  0.2399
  494TIP3    H122973   1.633   6.571   9.919 -1.0843  0.0661 -1.6278
  494TIP3    H222974   1.489   6.541   9.953 -0.4339  0.4389  1.5680
  495TIP3   OH222975   0.386   6.944  11.793 -0.1667  0.4033  0.3547
  495TIP3    H122976   0.437   6.987  11.724  1.4738 -0.2533  1.1107
  495TIP3    H222977   0.310   6.909  11.749 -0.2631  1.9127 -0.7181
  496TIP3   OH222978   0.324   1.070  10.758  0.1140  0.6474 -0.3962
  496TIP3    H122979   0.244   1.110  10.724  1.0750  2.1361 -0.9365
  496TIP3    H222980   0.364   1.137  10.813  0.1426 -0.6743  1.2533
  497TIP3   OH222981   1.936   0.167   9.563  0.1882  0.0387 -0.7920
  497TIP3    H122982   1.869   0.217   9.517  0.5271 -0.8394 -2.2626
  497TIP3    H222983   1.888   0.097   9.607  0.1505 -0.8049 -2.1362
  498TIP3   OH222984   2.757   6.896  12.265  0.9841  0.4644  0.5989
  498TIP3    H122985   2.743   6.851  12.182  1.3364  1.6924 -0.1392
  498TIP3    H222986   2.827   6.846  12.308  0.5866 -0.3572  0.2996
  499TIP3   OH222987   0.648   1.650   9.687 -0.4561 -0.2100  0.1301
  499TIP3    H122988   0.599   1.594   9.748 -0.3408 -0.0420  0.3759
  499TIP3    H222989   0.606   1.635   9.602 -0.1767 -0.9594  0.1257
  500TIP3   OH222990   3.336   2.924  11.206  0.1743 -0.0162  0.3987
  500TIP3    H122991   3.346   2.830  11.221 -0.4588 -0.0432  0.6859
  500TIP3    H222992   3.395   2.965  11.268  0.0647 -0.2159  0.6367
  501TIP3   OH222993   2.199   7.317   0.062  0.0021 -0.3137  0.6394
  501TIP3    H122994   2.285   7.302   0.101 -1.1642 -0.3532  3.2510
  501TIP3    H222995   2.185   7.411   0.069  0.7945  0.0403 -1.9350
  502TIP3   OH222996   2.325   1.423  10.050 -0.1283 -0.3504 -0.3242
  502TIP3    H122997   2.381   1.490  10.089 -0.8146  1.1173 -1.7841
  502TIP3    H222998   2.352   1.419   9.958 -0.6360 -1.5013 -0.4328
  503TIP3   OH222999   1.414   7.328  11.033 -0.0367 -0.7738  0.1786
  503TIP3    H123000   1.437   7.392  10.966  0.2517 -0.7584  0.2902
  503TIP3    H223001   1.383   7.252  10.984 -0.5743 -0.4730  0.0522
  504TIP3   OH223002   0.879   1.032  10.081 -0.0820 -0.1795 -0.5792
  504TIP3    H123003   0.959   1.040  10.133  0.8020 -0.6085 -1.8817
  504TIP3    H223004   0.879   0.942  10.049  0.0960  0.4859 -2.4924
  505TIP3   OH223005   2.260   1.719  12.374 -0.0847 -0.4564  1.0041
  505TIP3    H123006   2.297   1.634  12.349 -0.8472 -0.1912 -1.1079
  505TIP3    H223007   2.246   1.765  12.291  0.0517  1.6331  2.0977
  506TIP3   OH223008   2.201   0.835  10.827 -0.0384 -0.4020 -0.5043
  506TIP3    H123009   2.289   0.856  10.795  0.2114 -1.3788 -0.4786
  506TIP3    H223010   2.210   0.747  10.863 -1.2527 -0.9092 -1.4087
  507TIP3   OH223011   6.583   0.533  12.036  0.1388  0.4250  0.1140
  507TIP3    H123012   6.529   0.611  12.042 -0.0796  0.2509  0.4204
  507TIP3    H223013   6.629   0.541  11.953  1.3173  1.6550  0.8645
  508TIP3   OH223014   1.875   6.972  13.942 -0.1298 -0.2892  0.4147
  508TIP3    H123015   1.960   7.008  13.918 -0.9907 -0.3860 -3.0364
  508TIP3    H223016   1.885   6.877  13.928 -0.0864 -0.5916  2.3857
  509TIP3   OH223017   0.752   1.299  10.835 -0.3581 -0.3197 -0.0161
  509TIP3    H123018   0.806   1.230  10.794 -0.9749 -0.5278 -0.4942
  509TIP3    H223019   0.748   1.274  10.927  0.2595 -0.3725 -0.0003
  510TIP3   OH223020   2.902   1.009  13.129 -0.1572 -0.2918  0.4582
  510TIP3    H123021   2.862   0.926  13.102 -0.0401  0.1688 -1.1770
  510TIP3    H223022   2.832   1.074  13.118  0.0579 -0.0094  0.7618
  511TIP3   OH223023   1.002   3.020  11.678  0.3166  0.3039  0.0482
  511TIP3    H123024   0.956   2.949  11.633  1.7068 -0.6116  0.0205
  511TIP3    H223025   0.978   3.099  11.630 -1.9081 -0.0159  0.5759
  512TIP3   OH223026   3.558   7.113  10.942 -0.3206 -0.3047 -0.0213
  512TIP3    H123027   3.620   7.140  10.874 -0.6749 -1.7615 -0.9593
  512TIP3    H223028   3.573   7.173  11.014 -0.4683  1.7553 -1.6762
  513TIP3   OH223029   3.369   0.733  11.045  0.4970  0.6310 -0.1399
  513TIP3    H123030   3.428   0.782  10.989  1.6149  1.0671  1.3767
  513TIP3    H223031   3.386   0.767  11.133 -1.2214 -0.0234  0.4604
  514TIP3   OH223032   2.798   3.549  13.642 -0.0275  0.6547 -0.8041
  514TIP3    H123033   2.834   3.462  13.659  2.4377  1.3222 -2.4186
  514TIP3    H223034   2.754   3.540  13.558 -2.3871  0.2570  0.4172
  515TIP3   OH223035   0.318   0.921   9.635  0.3742  0.0691  0.0343
  515TIP3    H123036   0.308   1.000   9.687 -0.9289  1.3511 -2.1168
  515TIP3    H223037   0.280   0.852   9.688  0.5193  1.0696  1.4545
  516TIP3   OH223038   0.317   6.832  10.792 -0.1139 -0.3580  0.2448
  516TIP3    H123039   0.386   6.837  10.726  0.8770 -1.4397  1.1870
  516TIP3    H223040   0.311   6.921  10.828 -0.5182  0.1843 -1.1291
  517TIP3   OH223041   0.496   1.592  10.174  0.1753  0.2694  0.1418
  517TIP3    H123042   0.552   1.523  10.209  0.9138  0.7309 -0.1300
  517TIP3    H223043   0.518   1.670  10.225  1.4893  1.0248 -1.5427
  518TIP3   OH223044   4.789   7.117  13.086  0.3660  0.1582 -0.2801
  518TIP3    H123045   4.837   7.057  13.029  2.7787  1.6216  0.1193
  518TIP3    H223046   4.800   7.081  13.174 -2.6093 -1.6091 -0.5436
  519TIP3   OH223047   0.525   1.511   9.893 -0.1566  0.1665  0.0704
  519TIP3    H123048   0.528   1.540   9.984 -0.0153  0.9348 -0.1823
  519TIP3    H223049   0.442   1.464   9.886  0.4565 -1.0784  0.9558
  520TIP3   OH223050   1.373   1.636  13.037 -0.0096  0.1507  0.7295
  520TIP3    H123051   1.419   1.635  12.953 -1.6317 -1.4837 -0.1716
  520TIP3    H223052   1.422   1.574  13.091  0.6514  0.7148  0.7863
  521TIP3   OH223053   1.179   0.407  10.816  0.9230  0.5313 -0.8923
  521TIP3    H123054   1.228   0.347  10.759 -0.0019  0.6254 -1.8149
  521TIP3    H223055   1.238   0.481  10.827  2.7610 -1.2247  1.6295
  522TIP3   OH223056   1.185   4.251  10.405 -0.1270 -0.1338 -0.3914
  522TIP3    H123057   1.111   4.192  10.390 -0.3383 -0.1624  0.7293
  522TIP3    H223058   1.253   4.220  10.345 -0.4038 -1.2127 -0.1572
  523TIP3   OH223059   0.717   1.078  10.541  0.1815 -0.1400 -0.6471
  523TIP3    H123060   0.757   1.165  10.533  0.2071 -0.1082 -0.1389
  523TIP3    H223061   0.625   1.093  10.522 -0.1500  0.3119  1.2358
  524TIP3   OH223062   2.627   0.875  10.500  0.5802 -0.0292  0.0371
  524TIP3    H123063   2.689   0.811  10.463  2.0293  1.0413  0.5656
  524TIP3    H223064   2.580   0.910  10.424  0.8743 -0.5881 -0.4078
  525TIP3   OH223065   2.389   6.185  13.379  0.4248 -0.3258  0.4393
  525TIP3    H123066   2.397   6.184  13.284  2.0766 -0.9681  0.5752
  525TIP3    H223067   2.382   6.278  13.402  1.7779 -0.0571 -0.1856
  526TIP3   OH223068   2.608   1.355  11.099 -0.8682 -0.2444  1.0025
  526TIP3    H123069   2.696   1.392  11.092 -0.7081 -0.4303  1.9004
  526TIP3    H223070   2.580   1.340  11.009 -1.0612  2.3568  0.5929
  527TIP3   OH223071   1.961   6.943  10.803 -0.2167 -0.4216  0.8306
  527TIP3    H123072   2.006   6.933  10.718  1.3433  0.8145  1.4718
  527TIP3    H223073   1.872   6.968  10.779  0.5786  1.3753 -0.4936
  528TIP3   OH223074   2.589   1.449  10.818 -0.4348 -0.3843  0.2842
  528TIP3    H123075   2.681   1.425  10.833 -0.4358 -1.0042 -0.6735
  528TIP3    H223076   2.571   1.421  10.728 -1.3405  0.4305  0.2048
  529TIP3   OH223077   1.547   1.655  11.278 -0.4240  0.9215  0.4365
  529TIP3    H123078   1.628   1.613  11.249 -0.0206  1.4540  0.7693
  529TIP3    H223079   1.511   1.596  11.343 -0.0201  0.9411  0.6797
  530TIP3   OH223080   6.604   2.351  12.399  0.1690  0.0549 -0.0356
  530TIP3    H123081   6.649   2.359  12.483 -0.3810  0.2859  0.2426
  530TIP3    H223082   6.516   2.320  12.421  0.2056 -0.4463 -0.5784
  531TIP3   OH223083   1.688   0.705  10.968 -0.5902 -0.3704  0.2748
  531TIP3    H123084   1.634   0.691  11.046  0.3429 -2.5895  0.5429
  531TIP3    H223085   1.677   0.626  10.917  0.8160  0.0177 -0.6481
  532TIP3   OH223086   1.463   0.978   9.852  0.2880  0.4352  0.0569
  532TIP3    H123087   1.436   1.060   9.894 -0.8437  0.4172 -0.6252
  532TIP3    H223088   1.439   0.910   9.914  1.3844  0.6158  0.7012
  533TIP3   OH223089   0.459   0.559  10.112  0.5361  0.2806  0.0798
  533TIP3    H123090   0.379   0.510  10.131 -1.2883  2.3780 -1.8568
  533TIP3    H223091   0.442   0.647  10.147  1.3145  1.1971 -1.7675
  534TIP3   OH223092   1.050   1.080  11.169  0.2572 -0.1150 -0.1308
  534TIP3    H123093   1.088   1.021  11.235 -0.1150  0.0149  0.2037
  534TIP3    H223094   0.956   1.067  11.178  0.1572  0.7774  0.1767
  535TIP3   OH223095   1.555   7.202  11.521  0.1145 -0.4241 -0.4034
  535TIP3    H123096   1.527   7.119  11.482 -0.2548 -0.4920  0.0014
  535TIP3    H223097   1.524   7.269  11.459 -0.1693 -0.5495 -0.3964
  536TIP3   OH223098   5.992   1.574  10.869 -0.1209 -0.3707 -0.0722
  536TIP3    H123099   6.049   1.651  10.873 -0.3878 -0.2147  0.9385
  536TIP3    H223100   5.904   1.608  10.887 -0.6991 -0.4548 -2.6337
  537TIP3   OH223101   0.936   0.038  11.828 -0.8221 -0.1490  0.1493
  537TIP3    H123102   0.995   0.034  11.752 -0.6451  1.0956  0.2159
  537TIP3    H223103   0.866  -0.024  11.807 -0.9721  0.4469 -1.1985
  538TIP3   OH223104   3.373   2.371  10.924 -0.6360  0.0368  0.5951
  538TIP3    H123105   3.408   2.282  10.937  0.0324  0.2317  0.1612
  538TIP3    H223106   3.369   2.381  10.829 -0.9031  0.4010  0.6456
  539TIP3   OH223107   2.126   7.033  11.693  0.2033 -0.2143  0.2721
  539TIP3    H123108   2.130   7.036  11.788  0.6127 -2.1263  0.3439
  539TIP3    H223109   2.215   7.050  11.664 -0.4393  3.2385  0.0784
  540TIP3   OH223110   1.218   1.667  10.242  0.3781  0.3292 -0.0795
  540TIP3    H123111   1.228   1.583  10.199 -1.1757  2.0763 -4.0564
  540TIP3    H223112   1.295   1.718  10.215  1.6732  0.0408  2.8571
  541TIP3   OH223113   0.357   0.956  12.435  0.0362 -0.2053 -0.0839
  541TIP3    H123114   0.311   0.918  12.510 -1.0030 -0.7329 -0.9732
  541TIP3    H223115   0.332   0.900  12.362 -0.1207  1.1853 -1.0962
  542TIP3   OH223116   1.289   2.246  10.589 -0.3366 -0.1987 -0.5104
  542TIP3    H123117   1.371   2.220  10.548  0.5313  1.5935  0.0101
  542TIP3    H223118   1.292   2.206  10.676 -1.2092 -2.2619 -1.4236
  543TIP3   OH223119   3.192   5.677  12.764 -0.1693  0.1397  0.0767
  543TIP3    H123120   3.158   5.588  12.768  1.4496 -0.4519  1.9867
  543TIP3    H223121   3.158   5.720  12.843  0.5562  0.6219  0.1407
  544TIP3   OH223122   0.505   0.529  14.854 -0.2226 -0.1673 -0.1643
  544TIP3    H123123   0.577   0.473  14.884 -1.4304 -1.8805 -0.3667
  544TIP3    H223124   0.547   0.596  14.801  1.0494 -2.5099 -2.2229
  545TIP3   OH223125   2.835   3.560  13.236 -0.3889  0.4770 -0.2373
  545TIP3    H123126   2.782   3.617  13.181 -0.5805 -1.9858 -2.6879
  545TIP3    H223127   2.771   3.512  13.289 -0.6322 -1.6492 -2.3663
  546TIP3   OH223128   1.623   1.761  13.799 -0.2056  0.2590  0.1480
  546TIP3    H123129   1.628   1.853  13.824  1.0717  0.1244  0.4298
  546TIP3    H223130   1.529   1.743  13.789 -0.4875  1.4226  0.6969
  547TIP3   OH223131   6.921   0.372  13.952  0.7687 -0.4139 -0.8038
  547TIP3    H123132   6.870   0.320  14.015 -1.5745  1.3973 -1.1304
  547TIP3    H223133   6.921   0.320  13.872  0.8163 -1.1602 -0.3279
  548TIP3   OH223134   0.237   0.743  10.868  0.0615 -0.0328 -0.3717
  548TIP3    H123135   0.219   0.707  10.782 -0.7446  1.1078 -0.7002
  548TIP3    H223136   0.212   0.835  10.861 -0.3794 -0.0125  1.1843
  549TIP3   OH223137   2.435   2.130  13.115 -0.2465  0.0742 -0.4864
  549TIP3    H123138   2.443   2.197  13.182  1.0157 -1.1004  0.5634
  549TIP3    H223139   2.440   2.047  13.162  0.4219 -0.7742 -1.9966
  550TIP3   OH223140   0.557   0.579  11.394  0.9368 -0.5910  0.7162
  550TIP3    H123141   0.632   0.534  11.431  0.4115 -0.5043  1.9269
  550TIP3    H223142   0.506   0.607  11.471  0.6942  1.0718 -0.0407
  551TIP3   OH223143   6.533   0.167  12.223  0.2887 -0.0683 -0.1776
  551TIP3    H123144   6.599   0.235  12.214 -0.8649  1.2980  1.2769
  551TIP3    H223145   6.581   0.090  12.254  1.0821  1.1949  1.8359
  552TIP3   OH223146   1.153   1.014  13.145  0.2465 -0.0571 -0.3554
  552TIP3    H123147   1.128   0.934  13.099 -1.8468  1.0883 -1.2832
  552TIP3    H223148   1.144   0.992  13.237 -1.8216 -0.4629 -0.6284
  553TIP3   OH223149   1.627   6.834  13.404 -0.4654  0.2881 -0.0372
  553TIP3    H123150   1.578   6.866  13.328  1.9045  3.7510 -0.2528
  553TIP3    H223151   1.566   6.844  13.478 -1.4574  0.6423 -0.8886
  554TIP3   OH223152   7.254   7.274  12.076  0.0915 -0.6188 -0.1480
  554TIP3    H123153   7.316   7.233  12.016  0.2308 -0.6711  0.0301
  554TIP3    H223154   7.304   7.346  12.115  0.6982 -1.9247  1.5357
  555TIP3   OH223155   1.698   7.328  12.203  0.4470 -0.9903 -0.0592
  555TIP3    H123156   1.682   7.352  12.112 -1.0761  0.9473  0.6871
  555TIP3    H223157   1.746   7.402  12.240 -0.5856 -0.9267  1.1949
  556TIP3   OH223158   7.134   1.077  11.893  0.2912 -0.0998 -0.1897
  556TIP3    H123159   7.214   1.090  11.843  1.0495 -0.6659  0.8508
  556TIP3    H223160   7.103   1.166  11.912  0.6140  0.1200 -0.6844
  557TIP3   OH223161   1.085   1.736  10.479 -0.1300  0.1179  0.1821
  557TIP3    H123162   1.022   1.669  10.505  0.7173 -0.4815  0.7191
  557TIP3    H223163   1.117   1.707  10.393 -0.7963  0.5728 -0.2189
  558TIP3   OH223164   1.793   0.047  12.674  0.0252 -0.3931 -0.0291
  558TIP3    H123165   1.851  -0.013  12.627  0.7146  1.1231 -1.1545
  558TIP3    H223166   1.708   0.005  12.673  1.0028 -2.4896  1.3208
  559TIP3   OH223167   4.655   7.269  10.536 -0.1858 -0.3626  0.0741
  559TIP3    H123168   4.725   7.261  10.471 -1.0089  0.3419 -0.9181
  559TIP3    H223169   4.654   7.362  10.558 -1.6093 -0.1597 -0.8240
  560TIP3   OH223170   1.946   6.813  11.625 -0.0010  0.0367  0.3571
  560TIP3    H123171   1.997   6.891  11.648  0.6256  0.1394 -1.2773
  560TIP3    H223172   1.855   6.843  11.621 -0.1072  0.0443  2.4713
  561TIP3   OH223173   3.026   6.934  13.342 -0.9191  0.3911  0.2024
  561TIP3    H123174   3.018   6.992  13.265 -1.2099 -1.1601 -0.9571
  561TIP3    H223175   2.938   6.929  13.378 -1.1714 -0.3985 -0.5046
  562TIP3   OH223176   3.196   0.465  10.712 -0.9843 -0.0054 -0.0416
  562TIP3    H123177   3.284   0.463  10.673  0.2616  1.4137  2.5396
  562TIP3    H223178   3.137   0.457  10.638  1.3126  0.8531 -2.0492
  563TIP3   OH223179   1.144   1.555  14.204 -0.4276 -0.2075 -0.2427
  563TIP3    H123180   1.154   1.641  14.247 -1.7144  0.9052 -2.0990
  563TIP3    H223181   1.228   1.512  14.218  1.0696  2.2699 -1.2058
  564TIP3   OH223182   0.135   1.576   9.564 -0.1309  0.0186  0.0649
  564TIP3    H123183   0.166   1.486   9.572 -2.7975 -0.8471  1.2418
  564TIP3    H223184   0.171   1.621   9.640 -0.3590 -0.5432  0.5089
  565TIP3   OH223185   1.069   1.354  10.197 -0.3795 -0.1697  0.2176
  565TIP3    H123186   1.073   1.260  10.183 -1.4753 -0.3449  1.0651
  565TIP3    H223187   1.155   1.386  10.170 -0.1610 -1.3449 -0.5063
  566TIP3   OH223188   6.962   2.672  10.042 -0.6095 -0.5889  0.2688
  566TIP3    H123189   6.903   2.747  10.042  1.9922  1.5565 -0.9059
  566TIP3    H223190   7.021   2.688  10.116  0.2421 -1.2270 -0.2585
  567TIP3   OH223191   2.076   2.793  13.915 -0.1159  0.3424  0.2714
  567TIP3    H123192   2.100   2.735  13.844 -0.1791 -0.9063  1.2467
  567TIP3    H223193   1.983   2.776  13.930 -0.3145  1.2314  0.0767
  568TIP3   OH223194   3.401   2.830  12.275  0.2421  0.7782  0.5567
  568TIP3    H123195   3.375   2.827  12.183 -0.3924  0.7295  0.7282
  568TIP3    H223196   3.324   2.867  12.320  0.2114 -0.0190  1.1817
  569TIP3   OH223197   3.198   3.037  13.015  0.0501 -0.1028  0.3479
  569TIP3    H123198   3.276   3.090  12.997  0.5890 -0.5177  1.4195
  569TIP3    H223199   3.214   2.999  13.102 -0.8614 -1.0654  0.1067
  570TIP3   OH223200   1.303   0.161   9.976  0.0383 -0.3484 -0.0437
  570TIP3    H123201   1.303   0.065   9.969 -0.5362 -0.3610  0.0397
  570TIP3    H223202   1.212   0.186   9.957  0.5230  0.3011 -1.5482
  571TIP3   OH223203   2.401   0.773  12.291  0.3539 -0.3019 -0.1189
  571TIP3    H123204   2.356   0.693  12.263 -1.4010  1.0861 -1.3270
  571TIP3    H223205   2.404   0.828  12.213  1.2077  0.9692  0.7905
  572TIP3   OH223206   1.874   0.435  10.221  0.4055 -0.2224  0.5562
  572TIP3    H123207   1.949   0.468  10.271 -0.7188  0.6885  1.6763
  572TIP3    H223208   1.848   0.508  10.165  0.2936 -0.4997  0.2442
  573TIP3   OH223209   2.331   1.079  13.731  0.7332  0.1652  0.5328
  573TIP3    H123210   2.253   1.050  13.779 -0.9164 -0.5500 -2.4530
  573TIP3    H223211   2.387   1.001  13.727  0.9746  0.2877  1.4632
  574TIP3   OH223212   2.074   6.094  10.870  0.1060  0.5938  0.4863
  574TIP3    H123213   2.053   6.033  10.942 -0.2273  1.7744  1.4026
  574TIP3    H223214   2.119   6.039  10.805  0.2137 -0.5427  1.4891
  575TIP3   OH223215   2.982   6.610   9.838  0.3095  0.0118  0.0517
  575TIP3    H123216   2.896   6.605   9.794  0.7882  0.7937 -1.0044
  575TIP3    H223217   3.010   6.519   9.844  1.3789 -0.0013 -3.6501
  576TIP3   OH223218   2.266   1.675  11.967  0.0328  0.1211 -0.1785
  576TIP3    H123219   2.229   1.600  11.921 -0.4154  0.4298 -0.3346
  576TIP3    H223220   2.288   1.737  11.898  1.1599 -0.1871 -0.1079
  577TIP3   OH223221   5.226   4.495  12.562 -0.1804 -0.5094  0.4519
  577TIP3    H123222   5.151   4.552  12.548  1.3748  1.5008  0.1083
  577TIP3    H223223   5.225   4.477  12.656 -0.4120  0.4693  0.6365
  578TIP3   OH223224   2.263   0.092  12.080 -0.1821  0.5309 -0.9392
  578TIP3    H123225   2.179   0.077  12.037  0.4996 -0.1331 -2.0896
  578TIP3    H223226   2.320   0.022  12.046  1.2660  1.9034 -1.4284
  579TIP3   OH223227   1.067   0.093  11.596  0.1631  0.2969  0.5856
  579TIP3    H123228   1.106   0.181  11.596 -0.2861  0.4949  1.3689
  579TIP3    H223229   1.082   0.061  11.507 -1.5855  2.0085 -0.3609
  580TIP3   OH223230   1.221   0.970  12.376 -0.3987 -0.2533  0.1548
  580TIP3    H123231   1.263   1.055  12.388 -1.7972  0.2897  1.3013
  580TIP3    H223232   1.190   0.971  12.286  0.1650  0.1857 -0.0387
  581TIP3   OH223233   2.025   0.005  11.234  0.1938 -0.0736  0.6350
  581TIP3    H123234   1.937  -0.016  11.202  0.2825  1.7042 -0.8535
  581TIP3    H223235   2.058  -0.078  11.268 -3.0534 -0.2471  3.7049
  582TIP3   OH223236   0.483   7.254  10.310 -0.6263 -0.1418  0.5643
  582TIP3    H123237   0.524   7.340  10.298 -0.3535 -0.5154 -1.5406
  582TIP3    H223238   0.405   7.257  10.254 -1.3138 -0.8182  1.4810
  583TIP3   OH223239   2.924   1.628  12.077 -0.3891 -0.1820  0.3235
  583TIP3    H123240   2.906   1.720  12.096  0.2967 -0.2660  1.4422
  583TIP3    H223241   2.915   1.621  11.982  0.6124  1.2776  0.1087
  584TIP3   OH223242   3.124   6.377  10.153 -0.1993 -0.0364  0.2051
  584TIP3    H123243   3.078   6.355  10.072 -0.3317  0.4297  0.1506
  584TIP3    H223244   3.120   6.473  10.157  2.0435  0.1165 -0.5529
  585TIP3   OH223245   6.899   5.866  14.414 -0.0550 -0.0763 -0.1758
  585TIP3    H123246   6.926   5.815  14.490 -1.3080  1.6374  1.4690
  585TIP3    H223247   6.978   5.912  14.386 -0.3380  2.0146  2.3047
  586TIP3   OH223248   7.028   0.430  12.794 -0.1551 -0.0406 -0.1294
  586TIP3    H123249   7.116   0.399  12.816  0.6114  1.2652 -1.2771
  586TIP3    H223250   7.007   0.387  12.711 -1.0723 -1.2124  0.6902
  587TIP3   OH223251   3.239   0.482  11.300  0.1781 -0.8403  0.2998
  587TIP3    H123252   3.288   0.542  11.355  0.0444 -0.7609  0.3332
  587TIP3    H223253   3.178   0.438  11.359 -1.2865  0.6196 -0.0920
  588TIP3   OH223254   0.599   6.590   9.841 -0.1810 -0.3346 -0.1010
  588TIP3    H123255   0.605   6.521   9.775  0.4243 -0.1999 -0.1938
  588TIP3    H223256   0.629   6.669   9.795 -1.0926  0.0357 -0.0628
  589TIP3   OH223257   1.100   1.868  11.181 -0.9271 -0.1243  0.5243
  589TIP3    H123258   1.101   1.810  11.257  0.4702 -0.8865 -0.0668
  589TIP3    H223259   1.137   1.816  11.110  0.0858  1.3897 -0.0872
  590TIP3   OH223260   0.519   6.941  11.044  0.3554  0.1974  0.1328
  590TIP3    H123261   0.565   6.883  10.983 -0.8913 -1.3797  0.6528
  590TIP3    H223262   0.581   7.012  11.061  2.1049 -1.2119 -0.1902
  591TIP3   OH223263   2.960   1.075  13.598  0.0251  0.2564  0.5810
  591TIP3    H123264   2.890   1.073  13.664 -0.3315  1.6681  0.2571
  591TIP3    H223265   3.040   1.064  13.649 -0.4058 -1.4309  0.9499
  592TIP3   OH223266   1.345   2.552  13.110 -0.4667  0.0159  0.1519
  592TIP3    H123267   1.374   2.470  13.150  1.4815  1.2348  1.3195
  592TIP3    H223268   1.423   2.608  13.109 -1.0722  0.9548 -3.0498
  593TIP3   OH223269   2.230   3.024  11.870 -0.4826  0.3479 -0.3774
  593TIP3    H123270   2.203   3.069  11.950  2.7417  1.0989  0.3561
  593TIP3    H223271   2.232   2.932  11.893 -0.4687  0.4777  0.1342
  594TIP3   OH223272   2.254   0.366  12.496  0.5766  0.2320 -0.3506
  594TIP3    H123273   2.264   0.310  12.419 -1.4400 -0.0421 -0.4445
  594TIP3    H223274   2.342   0.399  12.514  1.5159 -1.7258 -1.2391
  595TIP3   OH223275   1.417   6.348  12.517 -0.4218 -0.1908 -0.6668
  595TIP3    H123276   1.373   6.409  12.576 -0.4694 -1.1548  0.3135
  595TIP3    H223277   1.474   6.403  12.464 -0.8613  0.7701 -0.1561
  596TIP3   OH223278   5.488   7.337  11.710  0.1406 -0.7349  0.2305
  596TIP3    H123279   5.446   7.304  11.790 -0.7315  1.0272  0.5146
  596TIP3    H223280   5.421   7.327  11.642  1.0147 -2.6070 -0.4073
  597TIP3   OH223281   1.171   0.765  13.034  0.2738  0.0954  0.1001
  597TIP3    H123282   1.182   0.682  13.079  1.7408  0.3749  0.2717
  597TIP3    H223283   1.095   0.751  12.977  0.3991 -1.2985  0.2504
  598TIP3   OH223284   0.848   3.586  10.966 -0.5004 -0.2636  0.3985
  598TIP3    H123285   0.890   3.649  10.907 -1.4259 -2.4888 -2.7691
  598TIP3    H223286   0.920   3.529  10.995 -0.3219 -0.2968 -0.0945
  599TIP3   OH223287   2.568   2.346  10.688 -0.1324 -0.4101  0.0796
  599TIP3    H123288   2.531   2.361  10.775  1.7436 -1.8512  1.1581
  599TIP3    H223289   2.607   2.429  10.664 -1.8933  0.4070 -0.0089
  600TIP3   OH223290   2.388   1.346  10.318  0.0618 -0.3047  0.1740
  600TIP3    H123291   2.366   1.436  10.343  0.0744 -0.6924  1.6358
  600TIP3    H223292   2.351   1.335  10.231 -0.3042  0.9801  0.1592
  601TIP3   OH223293   1.037   0.435  11.864  0.4953  0.4277  0.9096
  601TIP3    H123294   0.953   0.395  11.887  0.2372 -0.1150 -0.9131
  601TIP3    H223295   1.016   0.500  11.797  1.5312  0.2155  0.3612
  602TIP3   OH223296   5.622   0.434  11.870  0.4113  0.0860  0.0229
  602TIP3    H123297   5.574   0.356  11.898 -2.8056  1.1469 -2.2172
  602TIP3    H223298   5.632   0.485  11.950 -0.4568 -1.0797  0.9043
  603TIP3   OH223299   0.310   2.103  10.492 -0.0785 -0.2082 -0.4531
  603TIP3    H123300   0.320   2.133  10.402  0.9990 -3.6033 -1.5331
  603TIP3    H223301   0.218   2.078  10.499  0.2878 -1.9044 -1.3120
  604TIP3   OH223302   1.754   1.427  11.285 -0.1435 -0.4944 -0.1794
  604TIP3    H123303   1.777   1.467  11.200  1.6348  4.4658  2.4344
  604TIP3    H223304   1.837   1.400  11.322 -0.4140  1.1842  1.7188
  605TIP3   OH223305   0.869   0.164  10.707 -0.0839 -0.1733  0.3805
  605TIP3    H123306   0.948   0.175  10.760 -0.3118 -1.0823  0.9251
  605TIP3    H223307   0.864   0.070  10.691  0.6100  0.2021 -2.2503
  606TIP3   OH223308   2.226   2.121  10.787 -0.6340 -0.0646  0.7907
  606TIP3    H123309   2.276   2.146  10.710 -1.4393  0.1019  0.3182
  606TIP3    H223310   2.247   2.189  10.852 -0.3837  0.0950  0.5416
  607TIP3   OH223311   1.546   1.280  11.166 -0.4456  0.0350 -0.0156
  607TIP3    H123312   1.608   1.338  11.211 -0.5326  0.3575 -0.3121
  607TIP3    H223313   1.573   1.192  11.191 -0.2541  0.2004  0.3620
  608TIP3   OH223314   0.290   0.227   9.875 -0.3251 -0.5533 -0.1725
  608TIP3    H123315   0.291   0.312   9.920 -0.4121  0.0947 -1.3839
  608TIP3    H223316   0.378   0.218   9.839 -1.2007  0.4272 -2.6290
  609TIP3   OH223317   2.525   0.019  10.464  0.1049  0.1082  0.1429
  609TIP3    H123318   2.492   0.082  10.528 -0.7742  1.0794 -1.2580
  609TIP3    H223319   2.612   0.051  10.442 -0.1740  0.5935 -0.2502
  610TIP3   OH223320   1.454   6.376  10.165  0.5416 -0.5652  0.0171
  610TIP3    H123321   1.549   6.388  10.170  0.5041 -0.8354  1.5886
  610TIP3    H223322   1.418   6.456  10.205  0.1718 -1.9208  2.4911
  611TIP3   OH223323   1.648   0.090  10.372  0.1892  0.2364 -0.1980
  611TIP3    H123324   1.653   0.185  10.382  0.3358  0.3773 -1.5529
  611TIP3    H223325   1.658   0.075  10.278 -1.0386 -1.0314 -0.1461
  612TIP3   OH223326   0.721   2.482  11.164  0.3832 -0.2553  0.0010
  612TIP3    H123327   0.789   2.480  11.096  0.6925  1.3564  0.2517
  612TIP3    H223328   0.709   2.575  11.183 -1.1959 -0.5892  0.6687
  613TIP3   OH223329   5.875   6.912  11.743 -0.0528  0.1209 -0.0490
  613TIP3    H123330   5.897   7.001  11.771  0.1917  0.3895 -1.0900
  613TIP3    H223331   5.960   6.868  11.736 -0.1189  0.0484 -0.3601
  614TIP3   OH223332   0.312   6.202   9.819  0.1913  0.3461  0.4341
  614TIP3    H123333   0.233   6.188   9.871  0.5609 -1.8416  0.4332
  614TIP3    H223334   0.339   6.115   9.791  0.4259  1.3885 -2.8442
  615TIP3   OH223335   0.482   1.840  11.067  0.7638 -0.0761  0.5051
  615TIP3    H123336   0.536   1.909  11.028 -1.8800  2.6846  1.4676
  615TIP3    H223337   0.399   1.844  11.018  0.6425 -2.7680  0.4272
  616TIP3   OH223338   1.118   1.076  10.231 -0.4381  0.0507  0.4223
  616TIP3    H123339   1.161   0.993  10.210 -0.6494 -0.0460  0.3616
  616TIP3    H223340   1.188   1.134  10.259  0.0528  0.6190 -1.8724
  617TIP3   OH223341   5.726   6.276  10.463  0.3208  0.2001  0.1880
  617TIP3    H123342   5.637   6.286  10.427  0.1292  1.2676  0.9441
  617TIP3    H223343   5.754   6.365  10.482  1.5608 -0.1380 -0.0286
  618TIP3   OH223344   0.120   0.363  11.366 -0.7156  0.3796  0.4104
  618TIP3    H123345   0.207   0.372  11.326 -0.9462  0.7923 -0.0004
  618TIP3    H223346   0.110   0.269  11.380  0.2065  0.4141  1.3642
  619TIP3   OH223347   2.260   0.473  11.630  0.1242  0.3028  0.2322
  619TIP3    H123348   2.240   0.529  11.706  0.9073 -0.7893  1.2634
  619TIP3    H223349   2.338   0.425  11.657 -0.4938 -1.2138 -0.6861
  620TIP3   OH223350   3.628   4.999  13.492  0.2891 -0.3215  0.3552
  620TIP3    H123351   3.667   5.002  13.579 -0.2548  0.5924  0.5787
  620TIP3    H223352   3.589   4.912  13.486  1.0057 -0.6666  0.7270
  621TIP3   OH223353   3.160   2.620  10.353  0.2665  0.5997  0.5189
  621TIP3    H123354   3.179   2.528  10.376  2.0886  0.8976  0.2841
  621TIP3    H223355   3.099   2.614  10.279  0.5318 -0.4304  0.3682
  622TIP3   OH223356   2.577   1.870  10.334 -0.0551 -0.1043 -0.3371
  622TIP3    H123357   2.578   1.938  10.401 -0.1928  1.1387 -1.5785
  622TIP3    H223358   2.556   1.789  10.381 -0.8312  0.8739  1.0017
  623TIP3   OH223359   3.211   2.391  11.966  0.4005 -0.1315  0.1066
  623TIP3    H123360   3.136   2.447  11.946 -0.6160 -1.1722  0.9376
  623TIP3    H223361   3.288   2.447  11.950 -0.5569  1.1592 -0.0843
  624TIP3   OH223362   3.178   1.672  11.736  0.4770  0.5845  0.8890
  624TIP3    H123363   3.089   1.638  11.748  0.3367  1.5064  2.6388
  624TIP3    H223364   3.233   1.594  11.728 -0.2618 -0.0241  1.6314
  625TIP3   OH223365   2.211   0.583  11.953 -0.0089  0.5015  0.1448
  625TIP3    H123366   2.256   0.569  12.036  0.1112  3.5711  0.6415
  625TIP3    H223367   2.119   0.592  11.976 -0.1919 -0.3591 -0.2511
  626TIP3   OH223368   1.891   1.106  11.080 -0.0988  0.8817  0.4899
  626TIP3    H123369   1.976   1.062  11.071 -0.6232 -0.2040  0.7286
  626TIP3    H223370   1.845   1.086  10.998 -0.2892  1.1209  0.5380
  627TIP3   OH223371   2.122   2.226  10.402 -0.7901 -0.3812 -0.0699
  627TIP3    H123372   2.093   2.142  10.365 -2.0528 -1.4360  3.1429
  627TIP3    H223373   2.203   2.205  10.448  0.3084  0.7325 -1.4697
  628TIP3   OH223374   4.448   2.591  11.494  0.9620  0.5710  0.4198
  628TIP3    H123375   4.490   2.674  11.470  0.6237  0.9111  0.9850
  628TIP3    H223376   4.420   2.604  11.585  1.4461 -0.3809  0.7176
  629TIP3   OH223377   3.090   2.317  10.397  0.1929  0.1266  0.1042
  629TIP3    H123378   3.083   2.313  10.302  2.1664  1.3984 -0.1184
  629TIP3    H223379   3.000   2.322  10.428 -0.5625 -2.4523 -1.5797
  630TIP3   OH223380   1.234   6.039  10.912 -0.1309 -0.1840  0.7156
  630TIP3    H123381   1.320   6.025  10.950  0.3074 -0.9252 -0.5077
  630TIP3    H223382   1.224   6.134  10.907  0.1100 -0.0959  1.9709
  631TIP3   OH223383   3.008   1.528  12.490 -0.0838  0.0085 -0.1622
  631TIP3    H123384   2.974   1.576  12.565 -1.4793 -1.1590 -0.0019
  631TIP3    H223385   2.945   1.545  12.420  1.0680  0.8799 -1.0058
  632TIP3   OH223386   2.778   7.284  10.241 -0.0976 -0.8538 -0.3036
  632TIP3    H123387   2.745   7.293  10.152 -0.6674  1.1836  0.0803
  632TIP3    H223388   2.826   7.202  10.241  1.6352  0.0902 -3.0492
  633TIP3   OH223389   2.510   2.885  11.800  0.4005  0.0251 -0.1189
  633TIP3    H123390   2.567   2.890  11.877 -0.2349 -1.9450  0.5068
  633TIP3    H223391   2.443   2.951  11.816 -0.0548 -0.7631  1.3174
  634TIP3   OH223392   2.564   0.253   9.872 -0.5564 -0.3737  0.1244
  634TIP3    H123393   2.612   0.326   9.911 -2.4550  0.4609  0.9707
  634TIP3    H223394   2.597   0.248   9.782  0.5036  0.6860  0.4364
  635TIP3   OH223395   3.299   7.219  10.766 -0.3957  0.2612  0.6192
  635TIP3    H123396   3.288   7.176  10.851 -3.0194 -0.6810 -0.1259
  635TIP3    H223397   3.248   7.300  10.774 -0.4883  0.2633  0.0096
  636TIP3   OH223398   3.007   2.231  11.473  0.4635  0.1055  0.1100
  636TIP3    H123399   2.916   2.201  11.474 -0.2896  2.2755 -0.4482
  636TIP3    H223400   3.049   2.177  11.406 -0.7493  0.0074 -0.5873
  637TIP3   OH223401   1.543   5.925  10.972 -0.9422  0.3490 -0.2946
  637TIP3    H123402   1.496   5.842  10.963  0.2492 -0.6066  1.8758
  637TIP3    H223403   1.613   5.920  10.906  0.0016 -1.0160  0.7900
  638TIP3   OH223404   3.187   1.456   9.956 -0.0048  0.3512  0.3050
  638TIP3    H123405   3.132   1.496   9.889 -1.1772 -0.3541  0.8371
  638TIP3    H223406   3.140   1.471  10.039  0.2024 -0.9172  0.6722
  639TIP3   OH223407   2.249   1.001  12.967  0.2798  0.1774 -0.1093
  639TIP3    H123408   2.318   1.067  12.966 -0.1989  0.6673 -0.5955
  639TIP3    H223409   2.186   1.033  13.031  0.7422 -0.5283  0.7190
  640TIP3   OH223410   5.039   7.104  11.175 -0.0003  0.0163  0.0765
  640TIP3    H123411   5.064   7.033  11.234  0.2478 -0.3413 -0.4538
  640TIP3    H223412   5.120   7.153  11.162  0.1413 -0.4158 -0.6589
  641TIP3   OH223413   3.376   7.314  10.247 -0.1890 -0.4237 -0.2082
  641TIP3    H123414   3.320   7.325  10.171 -0.1268  1.7909  0.0372
  641TIP3    H223415   3.318   7.276  10.314  0.1401 -3.8342 -1.7728
  642TIP3   OH223416   2.592   0.006  13.121 -0.1112 -0.0293  0.1853
  642TIP3    H123417   2.510  -0.042  13.106  0.8094 -1.3028 -0.8608
  642TIP3    H223418   2.585   0.082  13.062 -0.7557  0.1485  0.4807
  643TIP3   OH223419   2.393   1.992  10.160  0.6036 -0.6145  0.2768
  643TIP3    H123420   2.446   1.942  10.222  1.3220 -0.7733 -0.4657
  643TIP3    H223421   2.410   1.951  10.075 -1.6813 -1.4942  0.1914
  644TIP3   OH223422   2.726   2.175  11.716 -0.3567  0.2992 -0.0049
  644TIP3    H123423   2.639   2.143  11.693 -0.1194 -0.2211 -0.1719
  644TIP3    H223424   2.769   2.100  11.757  0.4017  0.2164 -0.9239
  645TIP3   OH223425   4.987   6.422  11.933 -0.2724 -0.6406  0.0768
  645TIP3    H123426   5.045   6.483  11.887 -0.7783 -1.7715 -2.1728
  645TIP3    H223427   5.034   6.339  11.932 -0.5962 -0.8416  1.0317
  646TIP3   OH223428   2.629   0.764  10.153  0.4950  0.6141 -0.4132
  646TIP3    H123429   2.653   0.718  10.233  1.9183  0.9022 -0.6620
  646TIP3    H223430   2.560   0.710  10.114  0.5403 -0.0898  0.4614
  647TIP3   OH223431   4.369   2.826  11.263  0.3747  0.4809 -0.3551
  647TIP3    H123432   4.364   2.898  11.200 -0.3874  0.8400  0.1008
  647TIP3    H223433   4.441   2.850  11.321  1.0913  0.1396 -1.0990
  648TIP3   OH223434   4.068   2.139  10.495 -0.2454  0.6118  0.1596
  648TIP3    H123435   4.046   2.169  10.583 -0.0159  1.8563 -0.1915
  648TIP3    H223436   3.985   2.109  10.458 -0.3150 -0.0446  0.8473
  649TIP3   OH223437   2.860   7.085  10.616 -0.0617  0.9816 -0.6211
  649TIP3    H123438   2.777   7.085  10.568 -1.3528  0.7994  1.5329
  649TIP3    H223439   2.903   7.004  10.589 -0.8576  0.7720 -1.2999
  650TIP3   OH223440   3.226   1.195  10.029 -0.2482 -0.1442 -0.0173
  650TIP3    H123441   3.196   1.278   9.990 -0.1763  0.5292  1.3516
  650TIP3    H223442   3.320   1.194  10.012 -0.4053 -0.4319 -0.9159
  651TIP3   OH223443   3.161   0.693  10.849 -0.6340  0.0246 -0.4925
  651TIP3    H123444   3.166   0.605  10.813 -2.3139 -0.2563 -0.0868
  651TIP3    H223445   3.221   0.693  10.923 -0.9725 -0.9205 -0.2146
  652TIP3   OH223446   3.586   6.472  11.775 -0.3596  0.5533 -0.1090
  652TIP3    H123447   3.527   6.440  11.708 -4.0038  5.0451  0.7270
  652TIP3    H223448   3.654   6.520  11.727 -0.8895  0.6164 -0.8013
  653TIP3   OH223449   4.070   1.088  10.093 -0.3164  0.7005  0.5407
  653TIP3    H123450   4.100   1.134  10.015 -0.2535 -1.9084 -1.0670
  653TIP3    H223451   4.015   1.151  10.139  1.9097  3.2200 -0.1293
  654TIP3   OH223452   3.783   0.355  12.009  0.5248  0.0265  0.1403
  654TIP3    H123453   3.816   0.441  11.982 -0.7141  0.6824  0.6821
  654TIP3    H223454   3.760   0.312  11.926 -1.6511  1.3774  0.0091
  655TIP3   OH223455   1.459   2.295   9.667 -0.0688  0.7213 -1.0145
  655TIP3    H123456   1.408   2.332   9.739 -0.2728 -1.0372 -0.2314
  655TIP3    H223457   1.540   2.347   9.666  0.5766 -0.1495  1.4364
  656TIP3   OH223458   3.200   1.069  12.573 -0.2470  0.3195  0.0727
  656TIP3    H123459   3.246   1.111  12.500  0.1675  0.4883  0.4262
  656TIP3    H223460   3.112   1.107  12.572 -0.1066  0.6401 -0.0728
  657TIP3   OH223461   3.799   1.638  10.363  0.1409 -0.3974  0.1964
  657TIP3    H123462   3.770   1.547  10.360 -0.4942 -0.2150  0.8567
  657TIP3    H223463   3.729   1.687  10.321  0.0605 -0.0984  0.6838
  658TIP3   OH223464   2.992   1.324  10.760  0.7295 -0.2147  0.5647
  658TIP3    H123465   2.917   1.310  10.704  1.1471  0.0709 -0.0719
  658TIP3    H223466   3.016   1.237  10.792  0.5721 -0.3901  0.1974
  659TIP3   OH223467   3.656   1.614  11.171  0.1316  0.1906  0.5979
  659TIP3    H123468   3.599   1.540  11.148  0.4953 -0.6234  2.2285
  659TIP3    H223469   3.697   1.639  11.089 -2.1054  0.3963 -0.4981
  660TIP3   OH223470   4.578   1.009  10.734  0.5295 -0.4324 -0.3413
  660TIP3    H123471   4.647   1.051  10.786 -0.8310  0.9202  0.4127
  660TIP3    H223472   4.506   1.071  10.735 -1.7512 -2.9533  1.2560
  661TIP3   OH223473   2.480   1.272  10.603 -0.0595  0.4880 -0.3296
  661TIP3    H123474   2.434   1.204  10.554  2.0085 -0.4781 -0.9942
  661TIP3    H223475   2.412   1.332  10.631 -1.5955 -0.4072 -2.0737
  662TIP3   OH223476   4.516   2.590  10.920  0.1414  0.1141  0.1922
  662TIP3    H123477   4.436   2.621  10.962  0.3940  0.1306  0.6601
  662TIP3    H223478   4.557   2.532  10.984  0.4889  0.0810 -0.0535
  663TIP3   OH223479   2.388   3.541  11.942 -0.0658 -0.4563  0.2908
  663TIP3    H123480   2.392   3.546  11.846 -0.8694 -1.6897  0.1812
  663TIP3    H223481   2.373   3.631  11.970 -0.2520 -0.1514 -0.7693
  664TIP3   OH223482   3.260   0.531  11.750 -0.6670  0.2041 -0.2265
  664TIP3    H123483   3.274   0.544  11.843  0.9261  0.2790 -0.4755
  664TIP3    H223484   3.176   0.484  11.745 -0.1287 -0.9805  1.3059
  665TIP3   OH223485   3.066   1.541  10.606 -0.0128 -0.3667 -1.1748
  665TIP3    H123486   3.101   1.515  10.521 -0.2717  1.1289 -1.7599
  665TIP3    H223487   3.042   1.459  10.648  0.3246 -1.1430 -2.4579
  666TIP3   OH223488   1.679   2.466  12.864 -0.1414  0.3652 -0.5545
  666TIP3    H123489   1.738   2.540  12.876 -0.7052  1.0305 -1.8418
  666TIP3    H223490   1.607   2.482  12.924  0.9745 -0.4714  1.0601
  667TIP3   OH223491   3.748   1.962  12.944 -0.2699 -0.0853  0.3957
  667TIP3    H123492   3.774   1.885  12.995 -0.1034 -0.2192  0.1046
  667TIP3    H223493   3.709   1.926  12.864  0.9058  0.1553 -0.2851
  668TIP3   OH223494   2.758   0.967  10.728 -0.1556  0.6586  0.5222
  668TIP3    H123495   2.798   0.880  10.729 -1.0364  0.2502  0.9421
  668TIP3    H223496   2.695   0.964  10.656 -1.2722  0.4371  1.4926
  669TIP3   OH223497   3.770   1.891  10.908 -0.1749  0.3403  0.1039
  669TIP3    H123498   3.697   1.864  10.852  0.4047 -0.7090 -0.1579
  669TIP3    H223499   3.818   1.810  10.925 -0.1064  0.7182  1.7769
  670TIP3   OH223500   2.183   2.102  11.825  0.6373  0.2882 -0.6703
  670TIP3    H123501   2.198   2.173  11.888  2.1730 -1.1193  0.5729
  670TIP3    H223502   2.094   2.071  11.846  0.1995  1.4201 -0.8095
  671TIP3   OH223503   5.189   0.852  11.894 -0.0817 -0.0109  0.1757
  671TIP3    H123504   5.258   0.841  11.960 -0.6604 -1.7444  0.5090
  671TIP3    H223505   5.201   0.941  11.862  1.9176 -0.0735  0.6842
  672TIP3   OH223506   3.283   1.276  11.000  0.0119  0.7020  0.0740
  672TIP3    H123507   3.262   1.186  10.976  1.3181  0.2041  0.6925
  672TIP3    H223508   3.221   1.297  11.070 -1.8663  1.1394 -1.6926
  673TIP3   OH223509   1.591   0.307  11.845 -0.1190 -0.5486  0.0051
  673TIP3    H123510   1.655   0.338  11.782  0.9532 -0.4466  1.1322
  673TIP3    H223511   1.506   0.317  11.800  0.6432 -0.8110 -1.5288
  674TIP3   OH223512   4.329   1.448  11.334 -0.8915  0.2580 -0.3160
  674TIP3    H123513   4.274   1.369  11.334 -1.9954  0.9713  2.3846
  674TIP3    H223514   4.377   1.444  11.417  0.9730  1.1478 -1.3274
  675TIP3   OH223515   5.453   3.382  13.739 -0.4008 -0.1574  0.2040
  675TIP3    H123516   5.457   3.297  13.695  0.5173 -1.2558  2.3549
  675TIP3    H223517   5.398   3.367  13.816 -2.5375  1.9083 -0.8467
  676TIP3   OH223518   4.365   1.092   9.897  0.2789 -0.8463  0.1142
  676TIP3    H123519   4.427   1.059   9.832  1.3717 -0.1207  0.7592
  676TIP3    H223520   4.285   1.109   9.848  0.9714 -0.6723 -0.9629
  677TIP3   OH223521   2.784   0.111  10.459 -0.1071  0.0190  0.0659
  677TIP3    H123522   2.804   0.035  10.405 -1.3851  0.6340 -1.2718
  677TIP3    H223523   2.821   0.185  10.411 -0.3967  0.4541  0.5091
  678TIP3   OH223524   3.067   6.751  11.415 -0.4207 -0.3205  0.8613
  678TIP3    H123525   3.001   6.685  11.395  0.2456 -0.8234  0.3220
  678TIP3    H223526   3.121   6.757  11.336 -1.8366  2.5013  0.0545
  679TIP3   OH223527   7.064   4.512  10.200  0.1238  0.5405  0.4058
  679TIP3    H123528   7.145   4.508  10.150 -0.4893 -0.2927 -0.5343
  679TIP3    H223529   7.088   4.481  10.287  0.8059  0.2717  0.1240
  680TIP3   OH223530   2.171   1.046  11.046  0.5959 -0.6053  1.0230
  680TIP3    H123531   2.238   1.110  11.021  2.0955 -1.8510  1.8020
  680TIP3    H223532   2.165   0.987  10.970 -1.1351  0.7124  0.1056
  681TIP3   OH223533   2.431   0.290  11.166  0.6718  0.3604 -0.1423
  681TIP3    H123534   2.409   0.335  11.085  0.4181  0.3409 -0.0838
  681TIP3    H223535   2.512   0.243  11.146  0.7163  0.5124 -0.3248
  682TIP3   OH223536   2.155   0.180  13.146 -0.0575  0.0952 -0.1149
  682TIP3    H123537   2.107   0.161  13.226  1.9088 -0.1391  1.0551
  682TIP3    H223538   2.144   0.102  13.092 -0.1388 -0.3777  0.5746
  683TIP3   OH223539   3.231   1.124  10.509  0.4167 -0.3875  0.4250
  683TIP3    H123540   3.286   1.162  10.442  0.3958  1.3499  1.3741
  683TIP3    H223541   3.234   1.186  10.582 -1.0279 -1.3254  1.3253
  684TIP3   OH223542   2.981   5.659  10.824 -0.5358 -0.0438  0.1933
  684TIP3    H123543   3.059   5.632  10.776 -0.7420  0.6907 -0.5571
  684TIP3    H223544   3.012   5.675  10.913 -0.1157 -1.1928  0.2653
  685TIP3   OH223545   2.636   0.785  13.345  0.2099  0.6453  0.3251
  685TIP3    H123546   2.552   0.807  13.305  0.3632  0.8205  0.1001
  685TIP3    H223547   2.683   0.868  13.348  0.6153  0.4300 -0.1147
  686TIP3   OH223548   2.894   2.016  11.864  0.3273  0.1814 -0.1958
  686TIP3    H123549   2.977   2.040  11.904 -0.8221  1.7926  1.2580
  686TIP3    H223550   2.840   1.985  11.936 -1.9326  3.5671 -0.3189
  687TIP3   OH223551   3.329   6.920  10.408 -0.7225  0.3924  0.0379
  687TIP3    H123552   3.317   6.856  10.478 -0.1948 -0.4431 -0.6092
  687TIP3    H223553   3.392   6.983  10.443 -0.6970  0.1538  0.4226
  688TIP3   OH223554   4.375   1.981   9.941 -0.0547 -0.1435  0.0036
  688TIP3    H123555   4.318   2.056   9.958  1.1611  0.7394  0.2760
  688TIP3    H223556   4.330   1.907   9.982 -0.2199  0.8364  1.6369
  689TIP3   OH223557   4.273   3.985  12.933 -0.0368  0.3421 -0.1289
  689TIP3    H123558   4.322   4.062  12.963 -0.9758  1.6265 -1.7999
  689TIP3    H223559   4.195   3.984  12.988 -0.1137  0.7137 -0.2267
  690TIP3   OH223560   3.211   0.084  14.882  0.3590 -0.0752 -0.3712
  690TIP3    H123561   3.172  -0.000  14.906  1.1618  0.0568  1.5539
  690TIP3    H223562   3.253   0.068  14.798  1.2468 -1.8665  0.3841
  691TIP3   OH223563   4.167   0.354  10.329  0.0410  0.0134 -0.2989
  691TIP3    H123564   4.236   0.300  10.290  0.4316  0.8623 -0.8100
  691TIP3    H223565   4.139   0.411  10.257 -0.6038  0.2481  0.1383
  692TIP3   OH223566   2.177   0.307   9.982  0.1679  0.6747  0.3526
  692TIP3    H123567   2.137   0.259  10.055  1.1410 -1.0107 -0.2033
  692TIP3    H223568   2.162   0.399  10.003 -1.3465  0.1583  1.6612
  693TIP3   OH223569   2.513   1.057  12.493 -0.3157 -0.1713  0.1442
  693TIP3    H123570   2.531   1.068  12.399  1.5969  1.1163  0.6350
  693TIP3    H223571   2.418   1.052  12.498 -0.4226 -1.2855 -1.9619
  694TIP3   OH223572   3.702   6.739  10.016  0.3514 -0.0007 -0.5394
  694TIP3    H123573   3.690   6.823  10.061  0.8287  0.0268 -0.4621
  694TIP3    H223574   3.622   6.691  10.035 -0.3292  0.7914 -1.3480
  695TIP3   OH223575   2.617   2.684  11.650  0.2748  0.1317 -0.7283
  695TIP3    H123576   2.565   2.720  11.722 -1.9114 -1.3980 -1.4716
  695TIP3    H223577   2.637   2.595  11.678 -1.3758 -0.7865 -2.3584
  696TIP3   OH223578   4.356   1.328  10.291  0.0061  0.0633  0.1336
  696TIP3    H123579   4.407   1.406  10.270 -0.0120  0.0622  0.0866
  696TIP3    H223580   4.332   1.291  10.206 -2.2948  1.4851  0.1112
  697TIP3   OH223581   2.126   1.446  11.866 -0.4551  0.0373  0.0783
  697TIP3    H123582   2.045   1.493  11.887 -1.5290 -1.4588 -0.6458
  697TIP3    H223583   2.113   1.414  11.777  0.0238 -2.0780  0.7288
  698TIP3   OH223584   3.637   0.883   9.946  0.0527 -0.0203  0.3041
  698TIP3    H123585   3.605   0.797   9.975 -0.1044 -0.2477 -0.5094
  698TIP3    H223586   3.558   0.930   9.920  0.2335 -0.0573 -0.3427
  699TIP3   OH223587   3.726   6.985  10.638 -0.0910  0.2424 -0.1861
  699TIP3    H123588   3.780   6.982  10.717 -0.4713  1.3783  0.1238
  699TIP3    H223589   3.788   7.002  10.567  0.2071 -0.4340 -0.0919
  700TIP3   OH223590   2.266   7.152  13.402  0.1144  0.1741 -0.3086
  700TIP3    H123591   2.254   7.156  13.307  0.5709  0.3888 -0.3590
  700TIP3    H223592   2.201   7.088  13.432  0.1316 -0.0701 -0.7925
  701TIP3   OH223593   2.298   1.091  11.809 -0.0605 -0.5171  0.7382
  701TIP3    H123594   2.203   1.101  11.805 -0.0476 -0.4908  0.4490
  701TIP3    H223595   2.332   1.156  11.747  0.1304 -0.7165  0.6310
  702TIP3   OH223596   0.022   1.991  10.527  0.0271  0.1298  0.4876
  702TIP3    H123597   0.016   2.009  10.621  1.9755 -1.0295  0.8693
  702TIP3    H223598   0.034   1.896  10.522  0.8071  0.2919 -0.8900
  703TIP3   OH223599   3.575   1.813  10.744 -0.4695  0.1771  0.2453
  703TIP3    H123600   3.502   1.875  10.749 -1.2657 -0.7283 -0.1393
  703TIP3    H223601   3.615   1.831  10.658 -0.5290  0.3380  0.2507
  704TIP3   OH223602   2.691   3.608  12.585  0.1391 -0.5608  0.4772
  704TIP3    H123603   2.737   3.581  12.505 -0.2806  1.7851 -0.5821
  704TIP3    H223604   2.598   3.606  12.562  0.0777  1.3217  0.5099
  705TIP3   OH223605   2.874   0.527  11.106 -0.3757  0.1680 -0.2524
  705TIP3    H123606   2.801   0.466  11.108 -1.0281  0.9757  0.5245
  705TIP3    H223607   2.943   0.480  11.059 -0.2035 -1.9063  2.0077
  706TIP3   OH223608   1.562   1.823  12.622 -0.0486 -0.1765 -0.4818
  706TIP3    H123609   1.637   1.805  12.679 -0.0580  1.3977  0.0539
  706TIP3    H223610   1.597   1.817  12.533  0.9424  1.4207 -0.2176
  707TIP3   OH223611   3.292   2.130  10.332 -0.1907  0.1271  0.5041
  707TIP3    H123612   3.226   2.191  10.298 -0.4508 -0.7355 -0.5656
  707TIP3    H223613   3.262   2.109  10.420  0.6305  2.5879  1.3907
  708TIP3   OH223614   0.248   3.276  12.588  0.3316  0.3985  0.2141
  708TIP3    H123615   0.314   3.339  12.618  0.4589  1.3675 -1.9972
  708TIP3    H223616   0.280   3.247  12.503 -1.2417 -0.4150 -0.1093
  709TIP3   OH223617   1.438   2.578  15.071 -0.1611  0.4536  0.2933
  709TIP3    H123618   1.448   2.645  15.139  1.4727 -1.3800  1.9225
  709TIP3    H223619   1.376   2.515  15.108 -0.6122  0.3253 -0.6558
  710TIP3   OH223620   3.588   2.049   9.816 -0.1989 -0.3971  0.0787
  710TIP3    H123621   3.564   1.969   9.864 -1.6815 -0.6560 -1.0720
  710TIP3    H223622   3.505   2.089   9.793  0.5250  0.6318 -0.7976
  711TIP3   OH223623   2.822   6.417  10.364 -0.0819 -0.0629  0.3235
  711TIP3    H123624   2.820   6.361  10.286  1.4663 -0.4422  0.5300
  711TIP3    H223625   2.748   6.387  10.417 -2.1336  1.2976 -1.7283
  712TIP3   OH223626   2.483   1.311  12.373  0.0229 -0.4307 -0.1975
  712TIP3    H123627   2.450   1.398  12.351 -0.7040 -0.5456  0.4275
  712TIP3    H223628   2.477   1.307  12.469 -2.2272 -2.0735 -0.3674
  713TIP3   OH223629   3.009   1.522  11.243  0.1041  0.2968  0.7057
  713TIP3    H123630   2.949   1.491  11.175  1.3598 -0.3511 -0.1320
  713TIP3    H223631   3.054   1.597  11.204  0.6953  0.0407  0.8817
  714TIP3   OH223632   2.389   1.679  10.204 -0.2251 -0.1170  0.5340
  714TIP3    H123633   2.453   1.730  10.154  0.0822 -1.5950 -0.6189
  714TIP3    H223634   2.441   1.635  10.271 -0.3379  0.2990  0.8930
  715TIP3   OH223635   1.624   0.225  12.449 -0.1212  0.2047  0.2900
  715TIP3    H123636   1.595   0.207  12.360  0.2834 -0.7154  0.3407
  715TIP3    H223637   1.564   0.176  12.505 -0.0490  0.3558  0.5005
  716TIP3   OH223638   0.370   6.124  12.083  0.2165  0.2150 -0.3163
  716TIP3    H123639   0.308   6.087  12.020  0.1582 -0.8785  0.3829
  716TIP3    H223640   0.346   6.084  12.166  0.0644  1.9280  0.4888
  717TIP3   OH223641   3.200   1.766  10.612  0.0150  0.1788 -0.0984
  717TIP3    H123642   3.287   1.730  10.596  0.5575  1.1181  0.6746
  717TIP3    H223643   3.141   1.691  10.608  1.0717 -0.7226  0.9990
  718TIP3   OH223644   2.858   1.195  11.514  0.0133  0.5689 -0.3596
  718TIP3    H123645   2.929   1.260  11.514  0.4645  0.0978 -1.6176
  718TIP3    H223646   2.835   1.184  11.422 -0.8016 -0.2598 -0.0697
  719TIP3   OH223647   2.838   7.326  13.327 -0.0171  0.1136 -0.1457
  719TIP3    H123648   2.867   7.304  13.415  1.4282 -1.4005 -0.9719
  719TIP3    H223649   2.906   7.292  13.270 -0.5406  1.7704 -1.8180
  720TIP3   OH223650   3.103   0.999   9.891  0.2853 -0.2034  0.0550
  720TIP3    H123651   3.189   0.965   9.867  1.4274  2.8541 -0.5020
  720TIP3    H223652   3.122   1.076   9.945 -2.1556 -0.7959  1.8474
  721TIP3   OH223653   6.108   5.165  11.652 -0.1549 -0.9420 -0.2365
  721TIP3    H123654   6.050   5.231  11.689 -0.4125 -1.1383 -0.2889
  721TIP3    H223655   6.191   5.176  11.700  0.5594  0.9636 -1.7884
  722TIP3   OH223656   3.587   7.097  10.030 -0.4477  0.1798 -0.3828
  722TIP3    H123657   3.656   7.076   9.968  0.8771 -0.2932  1.2195
  722TIP3    H223658   3.511   7.046  10.000  0.0551  0.2616 -1.8133
  723TIP3   OH223659   4.185   3.761  11.578 -0.4720  0.1928  0.5014
  723TIP3    H123660   4.260   3.722  11.625 -0.3797  0.4130  0.5355
  723TIP3    H223661   4.134   3.685  11.549  0.3050  0.0148 -0.4204
  724TIP3   OH223662   1.841   0.932  13.444  0.0223 -0.3061  0.8367
  724TIP3    H123663   1.750   0.924  13.474 -0.3324 -0.2734 -0.2123
  724TIP3    H223664   1.846   0.874  13.368  1.1638 -1.0957  1.4960
  725TIP3   OH223665   0.289   1.696  11.519 -0.1184  0.2816 -0.0484
  725TIP3    H123666   0.345   1.651  11.457 -0.9061 -1.1625  0.2659
  725TIP3    H223667   0.285   1.786  11.487  1.5155  0.1578 -0.6441
  726TIP3   OH223668   3.312   0.184  11.359  0.2251  0.0427 -0.0770
  726TIP3    H123669   3.272   0.105  11.394  1.3949 -0.6467 -0.2825
  726TIP3    H223670   3.384   0.204  11.419  0.5587  0.3726 -0.5703
  727TIP3   OH223671   1.997   0.868  11.773 -0.0248  0.2338  0.0602
  727TIP3    H123672   2.090   0.852  11.757  0.1834  1.4612  0.0460
  727TIP3    H223673   1.991   0.962  11.790 -1.2715  0.1668  0.0195
  728TIP3   OH223674   4.441   0.072  13.433 -0.5601  0.1190  0.3116
  728TIP3    H123675   4.535   0.071  13.451 -0.5677  2.4951  0.6564
  728TIP3    H223676   4.418   0.165  13.431 -3.1959 -0.4573  1.6799
  729TIP3   OH223677   1.937   0.238  10.456  0.3454  0.0631  0.5795
  729TIP3    H123678   1.881   0.192  10.518 -0.9844 -0.9126 -1.3070
  729TIP3    H223679   1.900   0.326  10.451 -0.1159 -0.1396  0.4548
  730TIP3   OH223680   1.526   2.294  10.320 -0.3022 -0.2058  0.0455
  730TIP3    H123681   1.608   2.245  10.333 -0.2909  0.0386  0.9463
  730TIP3    H223682   1.539   2.375  10.370 -1.2399 -0.3359  0.5061
  731TIP3   OH223683   2.190   2.488  10.717 -0.5542  0.4605 -0.1481
  731TIP3    H123684   2.247   2.565  10.717 -0.1380  0.1606 -0.7721
  731TIP3    H223685   2.131   2.501  10.644  1.2971 -1.0835 -1.9912
  732TIP3   OH223686   3.118   0.630  12.431  0.5476 -0.6611 -0.0635
  732TIP3    H123687   3.073   0.611  12.514 -3.2736 -1.1553 -2.0955
  732TIP3    H223688   3.136   0.544  12.394 -1.1777 -0.4641 -1.4169
  733TIP3   OH223689   0.784   0.169  12.068 -0.0092 -0.1495 -0.3241
  733TIP3    H123690   0.792   0.204  12.157 -0.0737 -0.1201 -0.3300
  733TIP3    H223691   0.858   0.108  12.060  0.1976  0.1027 -0.3691
  734TIP3   OH223692   4.220   7.273  11.360 -0.0582  0.4252  0.4942
  734TIP3    H123693   4.231   7.273  11.455 -1.0776  1.2547  0.6306
  734TIP3    H223694   4.299   7.230  11.326 -0.8347 -2.2067  1.8371
  735TIP3   OH223695   3.985   1.970  13.690  0.2026 -0.0766  0.4493
  735TIP3    H123696   3.926   1.895  13.683  1.2269 -0.8135 -0.5325
  735TIP3    H223697   3.951   2.034  13.628  0.0701 -0.2518  0.3404
  736TIP3   OH223698   2.555   0.727  11.160 -0.4909  0.0360 -0.4345
  736TIP3    H123699   2.588   0.734  11.070 -0.4213  1.3020 -0.3160
  736TIP3    H223700   2.614   0.783  11.212  1.1476 -2.7635  0.8804
  737TIP3   OH223701   1.667   0.987  10.951 -0.3450  0.0607 -0.5023
  737TIP3    H123702   1.658   1.002  11.045 -0.0069  1.5444 -0.7049
  737TIP3    H223703   1.690   0.894  10.945  3.3702  0.7534  1.1519
  738TIP3   OH223704   4.581   2.825  11.438  0.5166 -0.0611  0.2756
  738TIP3    H123705   4.652   2.773  11.401  0.0574 -0.2359 -0.3857
  738TIP3    H223706   4.624   2.884  11.500  1.4066  0.7078 -1.0413
  739TIP3   OH223707   2.605   6.608  10.638 -0.3614  0.1559  0.3242
  739TIP3    H123708   2.573   6.532  10.590 -1.4443  0.1735  1.0009
  739TIP3    H223709   2.598   6.681  10.577  1.9165 -0.4932 -0.7808
  740TIP3   OH223710   2.364   6.567  11.120  0.4613  0.1415 -0.2205
  740TIP3    H123711   2.395   6.645  11.166  1.0289 -0.0645 -0.2552
  740TIP3    H223712   2.429   6.551  11.052 -1.6541  1.9373 -2.7994
  741TIP3   OH223713   4.503   7.026  12.197  0.8678 -0.1259  0.4635
  741TIP3    H123714   4.457   7.095  12.149  1.0030  0.2934  0.9282
  741TIP3    H223715   4.580   7.006  12.144  1.2661  0.6663  0.7379
  742TIP3   OH223716   3.904   0.210  10.191 -0.2614  0.1355  0.3475
  742TIP3    H123717   3.915   0.142  10.125  0.4649  0.3475  0.2369
  742TIP3    H223718   3.949   0.286  10.154 -0.9547  0.6314  0.5256
  743TIP3   OH223719   3.762   6.967  12.824 -0.1107  0.8167 -0.0999
  743TIP3    H123720   3.672   6.936  12.826  0.1320  0.1474  0.8097
  743TIP3    H223721   3.802   6.918  12.752 -0.4404  1.0295 -0.4312
  744TIP3   OH223722   3.134   6.908  12.556 -0.7917  0.2118 -0.3915
  744TIP3    H123723   3.072   6.971  12.590 -0.7523 -0.0324  0.1397
  744TIP3    H223724   3.080   6.833  12.530 -0.8388  0.4568 -1.0151
  745TIP3   OH223725   1.399   0.529  12.851 -0.1369  0.4228 -0.9199
  745TIP3    H123726   1.475   0.559  12.899 -0.8621 -0.1421  0.6214
  745TIP3    H223727   1.435   0.481  12.776  1.0348 -0.3042  0.0857
  746TIP3   OH223728   3.091   1.765  13.557  0.6064  0.1461  0.3555
  746TIP3    H123729   3.036   1.839  13.535  0.0368  0.1562  1.7770
  746TIP3    H223730   3.092   1.762  13.653 -1.5454 -3.2548  0.3579
  747TIP3   OH223731   3.006   6.067  12.567  0.1783  0.4539 -0.1658
  747TIP3    H123732   2.989   6.089  12.659 -1.4009 -0.3915 -0.2319
  747TIP3    H223733   2.962   5.982  12.555 -0.8154  1.2115 -2.0631
  748TIP3   OH223734   3.645   1.281  11.245  0.1641 -0.0396 -0.6451
  748TIP3    H123735   3.626   1.339  11.318 -0.3154 -1.7255  0.6107
  748TIP3    H223736   3.598   1.320  11.171 -0.3082  1.0441  0.2098
  749TIP3   OH223737   0.991   3.488  10.088  0.2932  0.6029  0.1052
  749TIP3    H123738   1.038   3.447  10.161  0.4307 -0.7887 -0.7336
  749TIP3    H223739   0.995   3.582  10.106  1.8366  0.3860  0.9747
  750TIP3   OH223740   1.443   7.112  10.692 -0.1334 -0.2466 -0.1409
  750TIP3    H123741   1.446   7.145  10.602 -1.2816  0.2590 -0.0111
  750TIP3    H223742   1.350   7.092  10.707 -0.5116  2.5726  1.9138
  751TIP3   OH223743   1.478   2.631  12.261 -0.1607  0.0313  0.1667
  751TIP3    H123744   1.438   2.630  12.348 -0.6582  1.4372 -0.0335
  751TIP3    H223745   1.431   2.563  12.212 -0.4088 -0.2336  0.7692
  752TIP3   OH223746   2.632   2.823  12.064 -0.2773 -0.6866 -0.3449
  752TIP3    H123747   2.633   2.730  12.039 -1.3411 -0.7877 -0.0453
  752TIP3    H223748   2.695   2.829  12.137 -1.5951 -1.5565  0.8972
  753TIP3   OH223749   4.758   1.551  10.368  0.2411  0.4527 -0.3850
  753TIP3    H123750   4.797   1.494  10.434  0.3645  2.8592  1.6597
  753TIP3    H223751   4.691   1.496  10.327 -1.1666 -0.5131  3.0442
  754TIP3   OH223752   3.877   0.536  10.780  0.0359  0.3849  0.7194
  754TIP3    H123753   3.848   0.608  10.836 -0.5474  1.0683 -0.4231
  754TIP3    H223754   3.947   0.573  10.727  1.1778 -0.5059  1.5998
  755TIP3   OH223755   5.737   2.180  10.808  0.3699 -0.7242 -0.5389
  755TIP3    H123756   5.669   2.113  10.823  0.4917 -0.4079  1.5489
  755TIP3    H223757   5.739   2.231  10.889  1.1748  1.0289 -1.6307
  756TIP3   OH223758   3.665   1.403  12.336  0.1988  0.0253 -0.1411
  756TIP3    H123759   3.608   1.423  12.411 -0.8503 -1.3592 -0.5450
  756TIP3    H223760   3.606   1.364  12.272  1.3612 -0.1365 -1.1231
  757TIP3   OH223761   3.007   0.106  11.140 -0.4656  0.6812 -0.2138
  757TIP3    H123762   2.949   0.059  11.080  0.8951  0.6680 -1.5423
  757TIP3    H223763   3.088   0.054  11.141 -1.7375 -1.5246  4.6866
  758TIP3   OH223764   3.416   0.802  10.777  0.1310 -0.5664  0.0021
  758TIP3    H123765   3.330   0.788  10.738  0.3615 -1.8650 -0.0496
  758TIP3    H223766   3.435   0.895  10.760  0.8912 -1.3969 -4.3692
  759TIP3   OH223767   3.997   6.676  13.538  0.0368  0.4734 -0.6587
  759TIP3    H123768   4.048   6.681  13.619  0.0809 -0.2249 -0.6413
  759TIP3    H223769   3.928   6.613  13.557 -0.8930  1.4760 -0.6545
  760TIP3   OH223770   6.084   1.997  14.594  0.4789  0.0079  0.2859
  760TIP3    H123771   6.083   2.081  14.639 -0.4626  0.0628  0.1627
  760TIP3    H223772   6.067   2.018  14.502 -1.1918 -0.4512  0.4796
  761TIP3   OH223773   3.635   0.647  10.112  0.6400 -0.6893  0.0036
  761TIP3    H123774   3.726   0.626  10.094  0.3305 -1.1818 -1.0167
  761TIP3    H223775   3.590   0.563  10.111 -0.1944 -0.2382 -1.6851
  762TIP3   OH223776   3.488   1.427  11.060 -0.0741 -0.0820  0.6956
  762TIP3    H123777   3.408   1.375  11.055 -0.3573  0.4591 -0.7729
  762TIP3    H223778   3.506   1.451  10.969  1.4316  0.2899  1.0883
  763TIP3   OH223779   6.545   7.188  10.461 -0.7848 -0.8695 -0.5461
  763TIP3    H123780   6.522   7.097  10.478 -1.0116 -0.6953  0.1382
  763TIP3    H223781   6.627   7.184  10.412  0.0264 -1.4173  0.8220
  764TIP3   OH223782   5.256   6.797  11.973  0.3889  0.2505 -0.3998
  764TIP3    H123783   5.340   6.795  12.019  0.9578  0.6061 -1.4002
  764TIP3    H223784   5.257   6.881  11.926 -0.1966 -0.0785 -1.0055
  765TIP3   OH223785   1.759   1.427  10.313 -0.0559  0.3770  0.4183
  765TIP3    H123786   1.692   1.480  10.270  0.6493  1.1099  0.1856
  765TIP3    H223787   1.743   1.438  10.406  0.3439  1.3681  0.3822
  766TIP3   OH223788   4.141   4.580  11.535  0.0567 -0.4055  0.3718
  766TIP3    H123789   4.136   4.502  11.589 -0.1333 -0.4982  0.2206
  766TIP3    H223790   4.050   4.600  11.512  0.0428  0.2754  0.9996
  767TIP3   OH223791   4.498   6.637  10.856  0.1022  0.3357 -0.3287
  767TIP3    H123792   4.551   6.652  10.934 -0.7188  0.3180  0.2486
  767TIP3    H223793   4.421   6.693  10.869 -2.0948 -2.8586  0.9457
  768TIP3   OH223794   1.677   2.073   9.934 -0.3207  0.3723  0.1981
  768TIP3    H123795   1.603   2.107   9.984  1.1664  1.4130  1.7389
  768TIP3    H223796   1.653   2.088   9.842 -2.1231  0.4590  0.6747
  769TIP3   OH223797   3.163   6.624  10.061 -0.0280 -0.6315  0.0126
  769TIP3    H123798   3.099   6.636   9.991 -0.3978 -0.9147  0.3013
  769TIP3    H223799   3.164   6.707  10.108 -0.5144 -0.7817  0.2869
  770TIP3   OH223800   1.499   6.566  11.210 -1.1451  0.4547  0.5571
  770TIP3    H123801   1.440   6.490  11.211 -0.6773  0.0902  0.4576
  770TIP3    H223802   1.524   6.579  11.301 -1.0396  0.3507  0.5410
  771TIP3   OH223803   4.289   1.925  11.404 -0.4158  0.1086 -0.0430
  771TIP3    H123804   4.297   1.952  11.495 -0.4707 -3.0810  0.9866
  771TIP3    H223805   4.209   1.967  11.373 -1.0841  0.2274  1.7793
  772TIP3   OH223806   3.700   3.694  10.319 -0.0402 -0.4066 -0.0583
  772TIP3    H123807   3.758   3.675  10.245  0.3263 -0.8319  0.3410
  772TIP3    H223808   3.619   3.725  10.278 -0.3219 -1.9395 -0.6907
  773TIP3   OH223809   3.099   6.312  14.267  0.6775  0.5797 -0.9063
  773TIP3    H123810   3.140   6.270  14.343  0.0545 -0.7337 -1.2766
  773TIP3    H223811   3.105   6.406  14.285  1.3278  0.3120  0.3461
  774TIP3   OH223812   3.725   1.214  10.723 -0.1592  0.5917 -1.0081
  774TIP3    H123813   3.651   1.154  10.717 -0.6625  1.0433  0.5561
  774TIP3    H223814   3.698   1.291  10.673 -0.3906  0.3998 -1.1799
  775TIP3   OH223815   2.682   2.602  12.834 -0.6763  0.2219  0.7895
  775TIP3    H123816   2.675   2.692  12.866 -1.4503  0.8754 -1.1456
  775TIP3    H223817   2.772   2.595  12.801 -1.1744  0.8791 -0.7428
  776TIP3   OH223818   4.174   3.742  12.235  0.5939 -0.0351 -0.1697
  776TIP3    H123819   4.234   3.743  12.309 -1.0356  0.8093  1.1818
  776TIP3    H223820   4.125   3.660  12.244 -0.1342  0.4279  0.1409
  777TIP3   OH223821   2.198   2.468  12.993  0.7634  0.5794 -0.0703
  777TIP3    H123822   2.194   2.416  13.074  1.9518  1.3799  0.5272
  777TIP3    H223823   2.292   2.483  12.979  0.4728  1.9548 -0.6130
  778TIP3   OH223824   2.122   0.607  12.484 -0.0915  0.0551 -0.3815
  778TIP3    H123825   2.166   0.525  12.504 -0.9303 -0.2858  0.1252
  778TIP3    H223826   2.060   0.584  12.415 -0.2256  0.2843 -0.3380
  779TIP3   OH223827   2.568   3.129  10.731 -0.1031  0.3616  0.3446
  779TIP3    H123828   2.662   3.128  10.713 -0.6030  0.8316 -2.4131
  779TIP3    H223829   2.528   3.168  10.653 -2.4159  2.2880  2.3729
  780TIP3   OH223830   1.493   3.661  11.199  0.4013 -0.1276  0.2722
  780TIP3    H123831   1.467   3.573  11.173  1.7803 -0.8645  1.2998
  780TIP3    H223832   1.496   3.711  11.118 -1.9218 -0.6054 -0.1379
  781TIP3   OH223833   2.522   2.878  10.815 -0.2078 -0.3606 -0.1111
  781TIP3    H123834   2.526   2.973  10.804 -0.8085 -0.4693 -1.4387
  781TIP3    H223835   2.498   2.845  10.728  1.9622 -1.8699 -0.1734
  782TIP3   OH223836   4.427   2.241  11.141 -0.0949  0.2837 -0.2115
  782TIP3    H123837   4.479   2.173  11.185  0.1109  0.0916 -0.7386
  782TIP3    H223838   4.425   2.314  11.203  1.1404  0.4405 -0.3292
  783TIP3   OH223839   3.693   6.414  11.388 -0.3767 -0.0584 -0.4533
  783TIP3    H123840   3.756   6.448  11.325 -0.4686 -0.1036 -0.5703
  783TIP3    H223841   3.734   6.334  11.421  0.3157  0.7211  0.6027
  784TIP3   OH223842   2.268   1.689  11.593 -0.2402  0.0839  0.1624
  784TIP3    H123843   2.231   1.604  11.618  0.5825  0.8457  4.3559
  784TIP3    H223844   2.358   1.669  11.567 -0.3190 -0.4323  0.2796
  785TIP3   OH223845   2.583   2.544  12.471  0.1014 -0.0815  0.1189
  785TIP3    H123846   2.542   2.553  12.557 -1.8999  2.4156 -1.0345
  785TIP3    H223847   2.516   2.575  12.409  2.0827 -0.2891 -2.1944
  786TIP3   OH223848   2.685   1.803  10.634 -0.0142  0.2377 -0.5385
  786TIP3    H123849   2.597   1.768  10.648 -0.6163  1.3482 -1.5242
  786TIP3    H223850   2.674   1.897  10.627  1.5475  0.6203  1.5232
  787TIP3   OH223851   3.944   1.569  10.588  0.1249  0.3282 -0.4256
  787TIP3    H123852   3.959   1.498  10.526 -0.7605 -0.9155  0.7387
  787TIP3    H223853   3.887   1.631  10.542  0.6114  0.0972 -1.3258
  788TIP3   OH223854   3.872   6.856  10.240  0.0453  0.4196  0.0494
  788TIP3    H123855   3.790   6.858  10.288 -2.5852 -0.4047 -4.1416
  788TIP3    H223856   3.888   6.947  10.215  0.2891  0.5395  0.6281
  789TIP3   OH223857   1.733   7.271  11.249 -0.2314  0.0930  0.1573
  789TIP3    H123858   1.742   7.181  11.279 -0.0708  0.0747  0.0562
  789TIP3    H223859   1.678   7.313  11.314 -1.3416 -0.3948 -0.4580
  790TIP3   OH223860   2.945   0.272  10.307 -0.0049  0.2036 -0.0615
  790TIP3    H123861   3.020   0.286  10.364  0.0525  1.6061 -0.4533
  790TIP3    H223862   2.943   0.349  10.251 -1.5865  0.0616 -0.2249
  791TIP3   OH223863   2.264   0.840  10.495  0.0747  0.1303  0.3402
  791TIP3    H123864   2.287   0.748  10.507  0.7307  0.6197  3.1048
  791TIP3    H223865   2.341   0.878  10.452  0.5795 -0.1950  0.9632
  792TIP3   OH223866   2.233   7.280   9.963  0.4017  0.3107 -0.1390
  792TIP3    H123867   2.254   7.194   9.928  0.6478 -0.0557  0.8973
  792TIP3    H223868   2.140   7.275   9.986  0.4462  0.2790  0.0369
  793TIP3   OH223869   3.082   6.286  11.586 -0.3999 -0.3692  0.1991
  793TIP3    H123870   2.999   6.333  11.576  0.5180  1.3626  0.5945
  793TIP3    H223871   3.059   6.207  11.636 -1.5875  0.7373  1.4283
  794TIP3   OH223872   4.514   3.025  10.577  0.0310 -0.3466  0.5671
  794TIP3    H123873   4.560   3.056  10.500  0.1029  3.8829  2.1561
  794TIP3    H223874   4.556   2.942  10.599  0.1231 -1.5413 -3.7421
  795TIP3   OH223875   1.891   7.309   9.768 -0.4684 -0.0489  0.3663
  795TIP3    H123876   1.900   7.307   9.863 -0.1073  0.4914  0.3412
  795TIP3    H223877   1.944   7.235   9.737 -0.7370 -0.3391  0.5934
  796TIP3   OH223878   2.657   0.473  10.019  0.5374 -0.0370  0.0363
  796TIP3    H123879   2.620   0.558   9.997  1.4533  0.9834  2.2535
  796TIP3    H223880   2.601   0.440  10.089  2.9592  0.9632  2.5381
  797TIP3   OH223881   4.749   7.112  12.430 -0.0117  0.1263 -0.6366
  797TIP3    H123882   4.744   7.121  12.335  0.9301  1.8307 -0.5524
  797TIP3    H223883   4.701   7.188  12.463 -0.7456 -0.7175  0.2616
  798TIP3   OH223884   2.070   6.829  13.516  0.6229  0.4350  0.0175
  798TIP3    H123885   2.085   6.746  13.469 -3.7456 -1.9976  2.5908
  798TIP3    H223886   2.112   6.816  13.601  0.2575  1.0316  0.2907
  799TIP3   OH223887   1.246   0.730  12.057  0.2653 -0.0532 -0.8180
  799TIP3    H123888   1.259   0.673  12.133 -1.8803  0.2319 -0.2169
  799TIP3    H223889   1.334   0.762  12.036  0.9178 -0.2605  1.4612
  800TIP3   OH223890   3.334   7.270  13.472 -0.4981 -0.1936 -0.3270
  800TIP3    H123891   3.393   7.238  13.541 -0.4444 -0.3776 -0.4559
  800TIP3    H223892   3.391   7.283  13.396 -0.7532 -1.1038 -0.6774
  801TIP3   OH223893   3.487   7.087  10.573  0.1728  0.4741 -0.6749
  801TIP3    H123894   3.449   7.125  10.653  0.1072  0.1694 -0.5596
  801TIP3    H223895   3.551   7.023  10.606 -0.1272  0.0718 -0.8606
  802TIP3   OH223896   3.524   0.235  11.023  0.2214 -0.0991  0.4538
  802TIP3    H123897   3.597   0.295  11.036  1.1946 -1.1471 -0.1065
  802TIP3    H223898   3.541   0.193  10.939 -0.6505 -0.8850  0.6584
  803TIP3   OH223899   4.071   1.873  11.626 -0.5995 -0.8550  0.6855
  803TIP3    H123900   4.081   1.862  11.531  0.6046 -0.5243  0.7672
  803TIP3    H223901   4.114   1.956  11.644 -0.5864 -1.0572  1.5733
  804TIP3   OH223902   5.159   6.618  14.795 -0.6497  0.5307  0.2989
  804TIP3    H123903   5.227   6.684  14.781 -1.3581  0.9025 -1.6404
  804TIP3    H223904   5.168   6.558  14.721 -1.9308  0.1617  0.4200
  805TIP3   OH223905   4.317   1.344   9.993 -0.1739  0.0768 -0.6410
  805TIP3    H123906   4.397   1.375   9.952 -0.5318 -0.8506 -2.0576
  805TIP3    H223907   4.304   1.257   9.958 -2.4592  0.6726 -1.3537
  806TIP3   OH223908   4.697   2.509  11.129 -0.1116  0.9829 -0.1014
  806TIP3    H123909   4.724   2.585  11.181  0.6540  0.6983 -0.0663
  806TIP3    H223910   4.760   2.506  11.057  0.8367 -0.5209  0.7506
  807TIP3   OH223911   2.566   2.294  11.913  0.3340 -0.1545  0.3032
  807TIP3    H123912   2.555   2.200  11.924  0.8834 -0.2644 -0.0977
  807TIP3    H223913   2.644   2.304  11.859 -1.3837  0.4411 -2.1410
  808TIP3   OH223914   3.695   1.963  12.231 -0.4596 -0.5500 -0.1343
  808TIP3    H123915   3.628   1.896  12.218 -0.1972 -0.7520 -0.4669
  808TIP3    H223916   3.689   2.017  12.152 -1.9531  0.9536  0.9709
  809TIP3   OH223917   5.270   1.757  12.303 -0.1798 -0.1496  0.1791
  809TIP3    H123918   5.290   1.668  12.332 -0.7927 -0.6801 -1.0091
  809TIP3    H223919   5.342   1.810  12.337  0.8127 -1.2823 -0.1384
  810TIP3   OH223920   5.081   1.090  11.008  0.0816  0.3811  0.1056
  810TIP3    H123921   5.063   1.038  10.930 -1.6424 -0.5554  1.0980
  810TIP3    H223922   5.075   1.181  10.978 -0.6379  0.0338 -0.8374
  811TIP3   OH223923   4.847   7.093  11.576  0.3966  0.2916  0.6462
  811TIP3    H123924   4.782   7.163  11.581 -0.3987 -0.4801  1.4878
  811TIP3    H223925   4.918   7.129  11.523 -1.0824  0.8626 -0.9851
  812TIP3   OH223926   6.320   6.561  11.772  0.4986  0.4918 -0.0366
  812TIP3    H123927   6.372   6.580  11.850  1.1811  0.9926 -0.5991
  812TIP3    H223928   6.354   6.478  11.739 -0.6763 -0.3770  0.9264
  813TIP3   OH223929   3.327   0.881  10.255 -0.4149  0.0035  0.2169
  813TIP3    H123930   3.304   0.844  10.170  2.2717  1.1365 -1.0474
  813TIP3    H223931   3.376   0.812  10.298 -0.0578  0.1521  0.0465
  814TIP3   OH223932   4.991   0.072  10.301  0.1559 -0.2633 -0.3656
  814TIP3    H123933   5.013   0.083  10.208 -0.4084 -0.1261 -0.4897
  814TIP3    H223934   4.918   0.009  10.300 -0.8426  0.8640 -0.1329
  815TIP3   OH223935   4.122   2.418  11.033 -0.2283  0.1370 -0.0319
  815TIP3    H123936   4.195   2.467  11.070 -1.1509  1.5657 -0.0569
  815TIP3    H223937   4.054   2.484  11.019 -1.5863 -1.2017  0.1670
  816TIP3   OH223938   4.820   7.114  10.334  0.1674 -0.4200  0.0694
  816TIP3    H123939   4.838   7.027  10.297  0.7952  0.5782 -2.0427
  816TIP3    H223940   4.755   7.152  10.275  1.7028  1.4629 -0.4642
  817TIP3   OH223941   4.906   0.615  12.282  0.5308 -0.1258 -0.7467
  817TIP3    H123942   4.820   0.630  12.243 -0.1326  0.5414  0.8980
  817TIP3    H223943   4.962   0.682  12.243 -0.0279  0.2988 -0.8349
  818TIP3   OH223944   3.703   6.213  11.742  0.7060  0.0240  0.2528
  818TIP3    H123945   3.621   6.166  11.722  1.4810 -1.3350  0.2368
  818TIP3    H223946   3.677   6.281  11.804 -0.1221 -1.5422  1.6387
  819TIP3   OH223947   5.414   0.060  10.666  0.1200 -0.0033 -0.1580
  819TIP3    H123948   5.396   0.150  10.636  0.3641  0.3324  0.6995
  819TIP3    H223949   5.507   0.047  10.646 -0.2030 -0.4838 -1.3555
  820TIP3   OH223950   0.857   0.589  13.263  0.1368  0.2982 -0.0291
  820TIP3    H123951   0.803   0.665  13.245  0.3086  0.4163 -0.0537
  820TIP3    H223952   0.808   0.539  13.329 -0.2729  0.1016 -0.4852
  821TIP3   OH223953   4.028   7.291  11.160 -0.2290 -0.5207  0.0509
  821TIP3    H123954   4.073   7.361  11.112  0.2707  0.3232  1.6954
  821TIP3    H223955   4.094   7.259  11.222 -1.5802  0.1292  1.8960
  822TIP3   OH223956   3.122   6.819  10.251 -0.7368  0.5049  0.1575
  822TIP3    H123957   3.067   6.753  10.293 -1.1496  1.3078  0.9213
  822TIP3    H223958   3.191   6.836  10.315 -0.6617  0.8443 -0.0118
  823TIP3   OH223959   5.024   1.645  11.337 -0.4313 -0.1605  0.1125
  823TIP3    H123960   4.945   1.698  11.343  0.4423  1.0111  1.7844
  823TIP3    H223961   5.006   1.582  11.267 -2.2647  1.0346 -0.5226
  824TIP3   OH223962   4.853   1.020  10.086  0.4357 -0.0096 -0.6800
  824TIP3    H123963   4.924   0.967  10.048  0.6277  0.7434 -1.3875
  824TIP3    H223964   4.863   1.106  10.045 -0.2319  0.4089  0.0295
  825TIP3   OH223965   4.555   1.360  10.640  0.3890 -0.4927  0.5610
  825TIP3    H123966   4.534   1.424  10.709 -0.0094  1.1301 -1.0390
  825TIP3    H223967   4.484   1.295  10.646 -1.0798  1.0220  0.0171
  826TIP3   OH223968   3.176   2.068  12.256  0.1711 -0.5759  0.5373
  826TIP3    H123969   3.136   2.155  12.251  0.2209 -0.6046 -0.5235
  826TIP3    H223970   3.270   2.085  12.265  0.2816 -0.5055 -0.6095
  827TIP3   OH223971   3.760   7.273   9.784  0.1131  0.2912 -0.1289
  827TIP3    H123972   3.839   7.225   9.810  1.4455  1.6611 -1.5593
  827TIP3    H223973   3.728   7.225   9.707  1.2975  1.5103 -1.4009
  828TIP3   OH223974   5.580   1.691  11.794 -0.1034 -0.0043  0.3113
  828TIP3    H123975   5.530   1.747  11.734  1.7948 -0.3247 -1.6407
  828TIP3    H223976   5.518   1.669  11.864 -2.0732  1.2434 -0.9866
  829TIP3   OH223977   5.591   0.857   9.980 -0.0534  0.0243  0.1073
  829TIP3    H123978   5.503   0.850  10.018  0.7780  0.0577  2.1140
  829TIP3    H223979   5.601   0.777   9.929 -1.2132 -0.0234 -0.0711
  830TIP3   OH223980   5.853   6.087  14.344  0.1492 -0.0836  0.2162
  830TIP3    H123981   5.912   6.159  14.320 -1.5850  1.4669  0.5505
  830TIP3    H223982   5.784   6.090  14.278 -1.0194 -0.1378  1.4271
  831TIP3   OH223983   4.197   1.594  10.723  0.0635  0.3201 -0.9477
  831TIP3    H123984   4.124   1.603  10.661 -0.6530  0.6918 -0.0623
  831TIP3    H223985   4.179   1.512  10.769  0.8072 -0.1584 -1.4981
  832TIP3   OH223986   6.043   0.935  10.827  0.3948 -0.2013 -0.2367
  832TIP3    H123987   5.981   0.861  10.824  0.6912 -0.5510  1.3899
  832TIP3    H223988   6.113   0.910  10.767 -0.5068 -0.3138 -1.2507
  833TIP3   OH223989   5.253   1.497  10.323  0.0314 -0.3600  0.4007
  833TIP3    H123990   5.175   1.541  10.288  0.7126 -0.0793 -0.8166
  833TIP3    H223991   5.311   1.569  10.348 -0.0699 -0.5667  1.2133
  834TIP3   OH223992   6.629   0.787  10.646 -0.2762  0.3737  0.1048
  834TIP3    H123993   6.603   0.780  10.554  0.3715  0.9998 -0.1317
  834TIP3    H223994   6.701   0.725  10.656  0.4077  1.1134 -0.1040
  835TIP3   OH223995   3.567   2.126  10.893  0.3682  0.1702 -0.0049
  835TIP3    H123996   3.635   2.116  10.960  0.4879 -0.7115 -0.2545
  835TIP3    H223997   3.528   2.039  10.886  0.3829  0.2525 -1.1068
  836TIP3   OH223998   4.776   1.542  11.670 -0.0048 -0.3944  0.5774
  836TIP3    H123999   4.716   1.568  11.740 -0.7198 -1.0208  0.2143
  836TIP3    H224000   4.847   1.605  11.674 -0.4762  0.0980  1.3067
  837TIP3   OH224001   3.291   7.071  11.010  0.5621  0.4486  0.2597
  837TIP3    H124002   3.283   6.982  11.044 -1.4252  1.0093  1.3237
  837TIP3    H224003   3.384   7.082  10.991  1.1814 -1.0190  2.4033
  838TIP3   OH224004   4.468   1.833   9.734  0.0795 -0.0785  0.4013
  838TIP3    H124005   4.542   1.789   9.776 -0.3737  1.2349  2.6350
  838TIP3    H224006   4.433   1.892   9.801 -1.1827  1.4784 -1.5598
  839TIP3   OH224007   4.058   2.059  11.326  0.3064 -0.1247 -0.3319
  839TIP3    H124008   4.088   2.064  11.235 -0.9393  1.4853 -0.6687
  839TIP3    H224009   4.053   2.150  11.355  0.8773 -0.6270  1.4301
  840TIP3   OH224010   5.656   1.159   9.722 -0.0344  0.4085  0.6883
  840TIP3    H124011   5.706   1.216   9.780  1.4718 -0.0847 -0.0915
  840TIP3    H224012   5.722   1.104   9.681 -1.0629  0.8765 -1.6385
  841TIP3   OH224013   3.964   0.971  11.088  0.1805 -0.9078  0.1386
  841TIP3    H124014   3.905   1.020  11.146  1.8091  0.0303  1.0607
  841TIP3    H224015   3.967   1.023  11.008  1.2612  0.0966  0.8126
  842TIP3   OH224016   5.622   6.941  10.385  0.1561 -0.1964  0.4575
  842TIP3    H124017   5.605   6.960  10.293  1.1491  0.4370  0.3914
  842TIP3    H224018   5.539   6.961  10.430 -0.2119 -0.1415 -0.2486
  843TIP3   OH224019   0.300   6.227  10.416  0.1872 -0.2621 -1.0660
  843TIP3    H124020   0.380   6.206  10.368  0.4531 -0.0001 -0.7444
  843TIP3    H224021   0.326   6.297  10.476 -0.1807 -0.4800 -0.6509
  844TIP3   OH224022   2.836   2.456  11.720 -0.0788 -0.3821 -0.1157
  844TIP3    H124023   2.825   2.362  11.712  1.2051 -0.5793  0.2731
  844TIP3    H224024   2.917   2.475  11.674  0.6783  0.2448  1.4332
  845TIP3   OH224025   5.140   1.828  10.702  0.2595 -1.1392  0.2009
  845TIP3    H124026   5.185   1.750  10.734  1.8438  0.0413  0.8915
  845TIP3    H224027   5.109   1.871  10.781 -0.6349 -1.0662 -0.1855
  846TIP3   OH224028   3.183   6.486  11.783  0.2323 -0.1692 -0.5057
  846TIP3    H124029   3.109   6.477  11.723 -0.4578  1.2578  0.0905
  846TIP3    H224030   3.213   6.397  11.798 -0.9655 -0.7178 -1.2708
  847TIP3   OH224031   5.358   0.212  12.950  0.2278  0.1299 -0.6875
  847TIP3    H124032   5.336   0.292  12.997 -0.0481 -0.6092  0.4574
  847TIP3    H224033   5.404   0.158  13.014  0.8416 -0.4335 -1.5910
  848TIP3   OH224034   4.266   1.854  10.666  0.4389 -0.4574 -0.5892
  848TIP3    H124035   4.220   1.792  10.723 -0.4870 -0.6549 -1.5336
  848TIP3    H224036   4.336   1.803  10.627 -1.1483 -1.2996 -2.4087
  849TIP3   OH224037   5.894   1.880  10.195  0.4015  0.3869  0.4574
  849TIP3    H124038   5.967   1.936  10.170  0.3842  0.8226  1.3557
  849TIP3    H224039   5.873   1.906  10.285 -0.0178 -0.6296  0.6646
  850TIP3   OH224040   2.925   1.644  11.503 -0.2058 -1.0574 -0.4814
  850TIP3    H124041   2.971   1.608  11.428 -1.2362 -1.3927 -0.9600
  850TIP3    H224042   2.890   1.727  11.473 -0.7373 -1.2550 -0.4257
  851TIP3   OH224043   6.946   6.780  11.125 -0.2253  0.3129 -0.0755
  851TIP3    H124044   6.952   6.719  11.199 -1.1533  1.8295  1.2853
  851TIP3    H224045   7.035   6.783  11.089 -0.2632 -2.2053 -0.5033
  852TIP3   OH224046   2.841   3.099  10.727 -0.0262  0.2449  0.1053
  852TIP3    H124047   2.879   3.135  10.807  0.3035  2.5087 -1.0169
  852TIP3    H224048   2.881   3.150  10.657 -0.8603 -1.2091 -1.4626
  853TIP3   OH224049   3.536   2.838  11.472  0.5888 -0.1756  0.4868
  853TIP3    H124050   3.479   2.902  11.513  0.3712  1.0190 -1.6017
  853TIP3    H224051   3.576   2.790  11.545 -2.8497 -0.8716  1.9744
  854TIP3   OH224052   3.457   6.607  10.037  0.0098 -0.5383 -0.6685
  854TIP3    H124053   3.474   6.520  10.001 -0.6360 -1.2015  0.5983
  854TIP3    H224054   3.363   6.609  10.052 -0.2428  1.0180 -2.2871
  855TIP3   OH224055   6.764   7.029  11.143 -0.1955 -0.2477  0.6438
  855TIP3    H124056   6.761   7.125  11.141  2.0183 -0.1015  2.2192
  855TIP3    H224057   6.856   7.008  11.130 -0.9251 -2.2505 -1.4746
  856TIP3   OH224058   5.100   6.578  10.127 -0.0919 -0.2194  0.3021
  856TIP3    H124059   5.107   6.673  10.131 -1.3604  0.0493 -2.8430
  856TIP3    H224060   5.173   6.551  10.072  2.4831 -1.4775  4.1302
  857TIP3   OH224061   4.834   0.228  12.234 -0.4304  0.0064 -0.8212
  857TIP3    H124062   4.842   0.303  12.293  0.4816  0.2451 -1.2364
  857TIP3    H224063   4.745   0.196  12.248 -1.3545  2.0894 -1.7269
  858TIP3   OH224064   6.674   0.523  11.757 -0.4526  0.6505 -0.0333
  858TIP3    H124065   6.632   0.568  11.684 -0.4060  1.5145  0.4725
  858TIP3    H224066   6.767   0.526  11.736 -0.6440 -1.5400 -1.3107
  859TIP3   OH224067   6.285   0.751  13.386  0.6272 -0.2722 -0.2119
  859TIP3    H124068   6.297   0.730  13.293 -1.2157 -1.2198 -0.2622
  859TIP3    H224069   6.347   0.693  13.431 -0.2080 -1.5960 -0.7257
  860TIP3   OH224070   4.909   7.231  10.898 -0.2735 -0.7556 -0.3243
  860TIP3    H124071   4.897   7.174  10.822  0.0239 -1.7217  0.3610
  860TIP3    H224072   5.003   7.228  10.915 -0.3139 -0.3724 -0.0322
  861TIP3   OH224073   3.887   1.663  11.010  0.0252 -0.4342  0.1035
  861TIP3    H124074   3.896   1.585  10.956 -0.9730 -0.2357 -0.3582
  861TIP3    H224075   3.933   1.642  11.091  1.2012 -0.8744 -0.6675
  862TIP3   OH224076   2.597   6.329  11.138  0.2280 -0.3656  0.1606
  862TIP3    H124077   2.681   6.289  11.163  0.3570 -0.7681 -0.8614
  862TIP3    H224078   2.553   6.347  11.220  1.8743  1.0444  0.7750
  863TIP3   OH224079   6.222   6.782  11.105  0.3115  0.0115  0.2380
  863TIP3    H124080   6.288   6.786  11.175  0.7333  1.6586 -0.2259
  863TIP3    H224081   6.269   6.750  11.029 -0.2051 -2.0255  0.7486
  864TIP3   OH224082   3.949   7.099  10.449  0.4115  0.2031  0.2889
  864TIP3    H124083   3.899   7.091  10.368  0.4812 -1.4681  0.3921
  864TIP3    H224084   4.006   7.175  10.435 -0.4240  0.6611 -0.7518
  865TIP3   OH224085   2.752   1.446  10.454 -0.5200 -0.5316  0.1015
  865TIP3    H124086   2.772   1.403  10.371  1.8670 -2.8497  1.8067
  865TIP3    H224087   2.715   1.376  10.509 -0.4973  0.5688  1.5411
  866TIP3   OH224088   2.934   0.773  10.727 -0.3080  0.3283  0.0201
  866TIP3    H124089   2.989   0.773  10.648 -0.3124 -3.7853 -0.0904
  866TIP3    H224090   2.993   0.746  10.797 -0.7105  2.3100  1.1531
  867TIP3   OH224091   5.765   1.970  11.745 -0.3954  0.7390 -0.1059
  867TIP3    H124092   5.683   1.959  11.697 -0.3484  2.9563 -0.7753
  867TIP3    H224093   5.769   1.895  11.804 -1.3998 -0.9948 -2.2041
  868TIP3   OH224094   5.347   0.975  10.625 -0.1058 -0.2477  0.8489
  868TIP3    H124095   5.387   0.893  10.655  1.8125  0.6381  0.7515
  868TIP3    H224096   5.417   1.040  10.630 -0.7628  0.7541 -1.9349
  869TIP3   OH224097   5.100   1.950  11.559 -0.3127  0.3200  0.2075
  869TIP3    H124098   5.070   2.009  11.491 -1.5179 -0.0194  0.4100
  869TIP3    H224099   5.184   1.917  11.528 -0.9020  0.0750 -1.1736
  870TIP3   OH224100   3.930   3.287  10.470  0.5952  0.1803  0.3429
  870TIP3    H124101   3.996   3.324  10.411  0.2248 -1.2757 -1.0229
  870TIP3    H224102   3.846   3.318  10.435  0.3890 -0.5048  0.2174
  871TIP3   OH224103   6.210   1.020  10.569  0.0570 -0.1926  0.0444
  871TIP3    H124104   6.272   1.022  10.496  0.8722  0.5496  0.7418
  871TIP3    H224105   6.145   0.955  10.544  0.7758 -0.5209 -0.9847
  872TIP3   OH224106   4.711   6.508  10.699 -0.1338  0.0335  0.0781
  872TIP3    H124107   4.630   6.529  10.745  1.7100  2.4516  2.3428
  872TIP3    H224108   4.753   6.592  10.684  2.2996 -1.2322 -0.4371
  873TIP3   OH224109   2.678   6.560  13.390 -0.2069 -0.4387 -0.0915
  873TIP3    H124110   2.769   6.585  13.376 -0.3747 -0.1566 -0.6930
  873TIP3    H224111   2.629   6.642  13.387 -0.6521 -0.7360 -1.1955
  874TIP3   OH224112   5.196   1.085   9.667  0.2053  0.0120  0.6559
  874TIP3    H124113   5.249   1.005   9.657 -0.9130 -0.4926 -1.6430
  874TIP3    H224114   5.258   1.156   9.651  0.8198 -0.4645  0.8665
  875TIP3   OH224115   0.769   0.963  12.320 -0.0535  0.0991  0.1619
  875TIP3    H124116   0.738   0.905  12.389  0.9317 -1.9122 -1.0624
  875TIP3    H224117   0.694   0.970  12.260 -0.2770  0.3610  0.4671
  876TIP3   OH224118   5.544   0.753  12.384 -0.0649 -0.2000  0.1743
  876TIP3    H124119   5.484   0.694  12.430  0.0054  0.6229  1.3387
  876TIP3    H224120   5.628   0.742  12.429  0.1291  0.2492 -0.0728
  877TIP3   OH224121   6.018   2.078  11.066  0.1255 -0.1034 -0.1631
  877TIP3    H124122   5.997   2.167  11.094  0.0458 -0.3614  0.6335
  877TIP3    H224123   6.096   2.054  11.118 -0.4631 -0.8617  0.3930
  878TIP3   OH224124   1.313   1.271  12.412  0.2981 -0.2994 -0.3106
  878TIP3    H124125   1.337   1.233  12.497 -0.2611 -2.3980 -1.0590
  878TIP3    H224126   1.393   1.313  12.381  0.3716  0.9311  1.4727
  879TIP3   OH224127   4.518   1.049  11.628  0.1004 -0.1397  0.0327
  879TIP3    H124128   4.558   1.128  11.665 -1.2108  1.2804 -1.5177
  879TIP3    H224129   4.589   0.984  11.629  1.2287  1.0631  1.2196
  880TIP3   OH224130   4.991   1.159  10.625  0.1349  0.1560 -0.3707
  880TIP3    H124131   4.947   1.238  10.593  0.6252 -0.0311 -1.5663
  880TIP3    H224132   4.996   1.103  10.548  0.5397 -0.6984  0.2752
  881TIP3   OH224133   4.659   5.769  11.046 -0.4495  0.3567 -0.0657
  881TIP3    H124134   4.717   5.802  10.977  0.2981  0.7021  0.7171
  881TIP3    H224135   4.609   5.699  11.004  1.3163 -0.6990 -0.4702
  882TIP3   OH224136   4.529   5.426  11.118 -0.2076 -0.2750 -0.2292
  882TIP3    H124137   4.526   5.508  11.167 -1.4774 -0.0776 -0.6159
  882TIP3    H224138   4.621   5.416  11.094  0.4570 -0.4381  2.2630
  883TIP3   OH224139   4.448   1.602  10.233  0.1731  0.3503  0.3601
  883TIP3    H124140   4.407   1.637  10.153 -0.0215 -0.0707  0.2730
  883TIP3    H224141   4.535   1.574  10.205  0.0212 -0.0105  0.2412
  884TIP3   OH224142   5.408   1.280   9.664 -0.0697  0.0370 -1.0092
  884TIP3    H124143   5.423   1.349   9.729  0.2964 -1.5876  0.6966
  884TIP3    H224144   5.485   1.223   9.672 -2.0323 -2.5486  0.2326
  885TIP3   OH224145   7.255   0.316  13.427 -0.2858 -0.2841 -0.2423
  885TIP3    H124146   7.335   0.353  13.389 -0.2115 -0.3303 -0.1309
  885TIP3    H224147   7.286   0.249  13.488 -0.4015 -0.1286 -0.0119
  886TIP3   OH224148   2.190   1.957  10.490 -0.5551 -0.1164 -0.3206
  886TIP3    H124149   2.245   1.926  10.419 -0.3646  2.0507 -1.1682
  886TIP3    H224150   2.101   1.940  10.461 -0.4838  0.8764 -1.1449
  887TIP3   OH224151   3.111   0.788  11.200 -0.4905  0.4661  0.4388
  887TIP3    H124152   3.019   0.774  11.221 -0.2777 -1.7485  0.0187
  887TIP3    H224153   3.127   0.733  11.123  1.2529  0.5747  0.7008
  888TIP3   OH224154   5.143   6.141  11.662  0.3553  0.2588 -0.2767
  888TIP3    H124155   5.214   6.077  11.651  1.2782  1.1260  0.4695
  888TIP3    H224156   5.186   6.225  11.650 -0.8635  0.7419 -1.2923
  889TIP3   OH224157   5.537   2.014  10.855  0.0473  0.4115  0.0225
  889TIP3    H124158   5.476   2.041  10.923 -0.2886  1.8840 -0.8356
  889TIP3    H224159   5.483   2.004  10.777  0.5654 -0.4188 -0.2345
  890TIP3   OH224160   5.037   1.183   9.867  0.2091  0.2189 -0.5391
  890TIP3    H124161   5.060   1.155   9.779  2.0760 -0.8849  0.2624
  890TIP3    H224162   5.097   1.135   9.924 -0.6439  1.2663  1.3050
  891TIP3   OH224163   4.639   1.399  10.197 -0.2785  0.2396 -0.6394
  891TIP3    H124164   4.703   1.328  10.204  1.1172  1.6446  1.0523
  891TIP3    H224165   4.648   1.431  10.108 -0.7175 -1.4825 -1.3406
  892TIP3   OH224166   0.062   2.226  11.763  0.4764 -0.2220  0.3913
  892TIP3    H124167   0.110   2.150  11.732  2.1535  0.8580  0.2680
  892TIP3    H224168  -0.023   2.221  11.718  0.7599 -1.7304  0.0167
  893TIP3   OH224169   5.443   3.687  11.410  0.4836  0.2435 -0.1916
  893TIP3    H124170   5.411   3.734  11.333  2.3555  2.9899  0.6312
  893TIP3    H224171   5.520   3.640  11.379 -0.2609 -0.7544 -0.5624
  894TIP3   OH224172   5.297   1.048  11.217 -0.3739 -0.4958  0.0396
  894TIP3    H124173   5.365   1.097  11.171 -0.3684  0.6184  1.2191
  894TIP3    H224174   5.221   1.052  11.159 -0.1350  0.2365 -0.2232
  895TIP3   OH224175   5.387   1.736  10.262 -0.5146 -0.1616  0.7296
  895TIP3    H124176   5.444   1.794  10.313 -1.9621 -1.1652  3.6193
  895TIP3    H224177   5.324   1.796  10.222  0.9938  0.7043 -0.4167
  896TIP3   OH224178   3.052   0.752  10.025 -0.1260  0.4156 -0.1881
  896TIP3    H124179   3.119   0.690   9.995  0.5206  1.3294 -0.6657
  896TIP3    H224180   3.068   0.831   9.973 -0.5883  1.1715  0.8115
  897TIP3   OH224181   4.239   1.594  10.399 -0.4870 -0.2012  0.3343
  897TIP3    H124182   4.226   1.502  10.420  0.1379 -0.4672 -0.4458
  897TIP3    H224183   4.311   1.595  10.335  0.3101  0.9051  1.2165
  898TIP3   OH224184   4.630   6.758  11.089  0.1319 -0.2245  0.1572
  898TIP3    H124185   4.556   6.807  11.124 -0.4512 -1.0454  0.0899
  898TIP3    H224186   4.705   6.816  11.100 -0.4853  0.5277  0.4216
  899TIP3   OH224187   3.821   0.265  10.950  0.4507 -0.3117 -0.4972
  899TIP3    H124188   3.796   0.328  10.882 -1.2680 -0.3269  0.1001
  899TIP3    H224189   3.878   0.202  10.905  0.2672  0.3300 -1.6437
  900TIP3   OH224190   4.871   0.771  10.275  0.1048  0.2453  0.1881
  900TIP3    H124191   4.900   0.838  10.212 -2.5408  2.2109  0.9420
  900TIP3    H224192   4.842   0.698  10.220  1.8192  0.2186 -0.7052
  901TIP3   OH224193   6.541   1.077  10.609 -0.1665  0.2958  0.4935
  901TIP3    H124194   6.470   1.073  10.545  0.9068 -0.6055 -0.6742
  901TIP3    H224195   6.559   0.985  10.630 -0.4190  0.5773  2.0027
  902TIP3   OH224196   5.684   0.052  10.670  0.7478 -0.4981  0.4451
  902TIP3    H124197   5.768   0.034  10.627  0.9107  0.5394  0.3361
  902TIP3    H224198   5.682  -0.010  10.744  0.2099 -2.7019 -1.3410
  903TIP3   OH224199   4.103   1.473  10.125 -0.1956  0.3397  0.2543
  903TIP3    H124200   4.172   1.415  10.096  0.9434  1.0292  1.5352
  903TIP3    H224201   4.038   1.416  10.166 -0.7165 -0.3752 -1.5224
  904TIP3   OH224202   6.127   6.944  10.650 -0.5832 -0.3792 -0.2081
  904TIP3    H124203   6.036   6.924  10.629 -0.2392 -1.5869 -0.6073
  904TIP3    H224204   6.178   6.889  10.590  0.4005  0.0736  0.2055
  905TIP3   OH224205   3.923   1.122  11.664  0.4578  0.2076 -0.4717
  905TIP3    H124206   3.864   1.058  11.705 -1.9695  2.0156 -1.0447
  905TIP3    H224207   3.954   1.176  11.737 -1.0341  1.1815 -0.5513
  906TIP3   OH224208   4.660   2.092   9.894  0.1846 -0.7906 -0.2413
  906TIP3    H124209   4.661   2.001   9.923 -0.9180 -0.6027  0.4157
  906TIP3    H224210   4.567   2.114   9.887  0.4015 -0.7163 -3.5417
  907TIP3   OH224211   6.717   1.916  11.884  0.3992 -0.4787 -0.6639
  907TIP3    H124212   6.781   1.984  11.865  2.1723 -1.5572  1.2530
  907TIP3    H224213   6.700   1.924  11.978 -0.9076 -1.4020 -0.7966
  908TIP3   OH224214   6.996   5.381  12.887  0.6189 -0.6568  0.0976
  908TIP3    H124215   6.956   5.337  12.812 -1.0994  0.3246  0.4101
  908TIP3    H224216   7.077   5.418  12.852 -0.7578  0.8432 -1.5977
  909TIP3   OH224217   4.711   1.122  10.283  0.2120  0.2909  0.0043
  909TIP3    H124218   4.750   1.085  10.204 -0.7475  0.7701 -0.7006
  909TIP3    H224219   4.687   1.046  10.336 -1.7463 -0.1025 -1.4309
  910TIP3   OH224220   5.017   2.602  11.261 -0.0731  0.2272  0.5268
  910TIP3    H124221   4.960   2.647  11.197  0.3212 -0.8048 -0.5588
  910TIP3    H224222   4.955   2.558  11.319 -0.4053 -0.4592 -0.3335
  911TIP3   OH224223   4.489   2.564  10.087 -0.0329  0.1207 -0.3590
  911TIP3    H124224   4.510   2.578   9.995  0.2923  0.5866 -0.2162
  911TIP3    H224225   4.393   2.558  10.089  0.0549 -1.9606 -1.0019
  912TIP3   OH224226   5.906   0.885   9.888  0.5980 -0.3973  0.5157
  912TIP3    H124227   5.927   0.957   9.828 -0.9150  0.7006  1.2478
  912TIP3    H224228   5.816   0.861   9.865  0.2560 -0.4325  1.8666
  913TIP3   OH224229   3.635   1.939  11.161  0.4814 -0.5559  0.2870
  913TIP3    H124230   3.681   1.928  11.078 -1.6005 -0.4558 -0.9113
  913TIP3    H224231   3.611   1.849  11.186  0.3486 -0.5047  0.3415
  914TIP3   OH224232   5.121   0.909  10.474 -0.7057  0.5808  0.4386
  914TIP3    H124233   5.157   0.903  10.385  0.5403 -2.4336  1.0912
  914TIP3    H224234   5.183   0.964  10.521  0.0341  0.0819  0.0693
  915TIP3   OH224235   4.185   1.141  10.624  0.4785  0.0519  0.1513
  915TIP3    H124236   4.146   1.072  10.677  0.3030 -1.4560 -1.8690
  915TIP3    H224237   4.265   1.102  10.589  0.7542  1.1223 -0.4294
  916TIP3   OH224238   6.358   0.521  10.334 -0.0574  0.0422  0.1512
  916TIP3    H124239   6.438   0.492  10.291 -0.6942  0.5506 -1.3938
  916TIP3    H224240   6.288   0.498  10.273 -1.0058  0.4209  1.0862
  917TIP3   OH224241   7.335   7.287  14.528 -0.2301  0.0693 -0.2460
  917TIP3    H124242   7.325   7.375  14.566 -1.4624 -0.5548  0.8914
  917TIP3    H224243   7.274   7.286  14.454 -0.7150 -0.0551  0.1523
  918TIP3   OH224244   4.125   1.173   9.778 -0.3394  0.0785  0.0618
  918TIP3    H124245   4.094   1.261   9.755  2.0678  1.0243  0.2770
  918TIP3    H224246   4.079   1.115   9.717 -0.1053  1.7458 -1.7677
  919TIP3   OH224247   3.582   0.673  12.320 -0.3652 -0.1461 -0.2658
  919TIP3    H124248   3.527   0.605  12.358 -0.8936  0.8279  0.7649
  919TIP3    H224249   3.576   0.746  12.382  0.9801  0.4764 -0.8489
  920TIP3   OH224250   4.451   1.157  10.484  0.4681 -0.3666  0.2769
  920TIP3    H124251   4.543   1.168  10.457  0.5702  1.9895  1.4667
  920TIP3    H224252   4.402   1.214  10.425 -0.1425 -1.0212  0.1549
  921TIP3   OH224253   3.268   0.909  12.804  0.1678 -0.2216  0.5663
  921TIP3    H124254   3.321   0.843  12.758  0.4841 -0.1749  0.8701
  921TIP3    H224255   3.207   0.940  12.737 -0.9789 -1.8888  0.8006
  922TIP3   OH224256   4.575   7.171  12.784  0.6707 -0.1232  0.2832
  922TIP3    H124257   4.533   7.162  12.870 -0.5488  0.4041 -0.2476
  922TIP3    H224258   4.669   7.167  12.803  0.4380  0.9016  1.7611
  923TIP3   OH224259   2.940   6.855  11.071  0.2863 -0.0851  0.0791
  923TIP3    H124260   2.886   6.776  11.066  0.4204 -0.2459  1.0847
  923TIP3    H224261   2.899   6.916  11.010 -0.1804 -0.7152 -0.2390
  924TIP3   OH224262   6.019   5.840  10.957  0.6119 -0.3235  0.3080
  924TIP3    H124263   6.090   5.869  11.014 -0.7006  0.6146  1.4990
  924TIP3    H224264   6.051   5.854  10.868  2.5145 -1.3829  0.7932
  925TIP3   OH224265   3.800   6.519  10.895 -0.4592  0.7030 -0.4449
  925TIP3    H124266   3.890   6.534  10.867  0.1871  2.6075  2.3414
  925TIP3    H224267   3.778   6.432  10.862  2.7123 -0.1533 -0.4580
  926TIP3   OH224268   4.576   6.707  11.698 -0.9290 -0.3060 -0.4288
  926TIP3    H124269   4.532   6.624  11.715  0.1993 -0.9185 -0.4367
  926TIP3    H224270   4.669   6.688  11.711 -0.3347  0.1549 -3.6209
  927TIP3   OH224271   4.620   2.302  10.597  0.2182  0.0066 -0.1451
  927TIP3    H124272   4.568   2.256  10.531  1.1105  0.4182 -1.1518
  927TIP3    H224273   4.566   2.299  10.676 -1.6468  1.0323 -1.3433
  928TIP3   OH224274   4.244   0.290  12.131  0.5356 -0.1310  0.2817
  928TIP3    H124275   4.282   0.331  12.053 -0.4163  0.9869  0.3896
  928TIP3    H224276   4.266   0.197  12.122 -0.3086 -0.1711 -1.7741
  929TIP3   OH224277   5.674   2.530  11.970  0.0587 -0.1138  0.2740
  929TIP3    H124278   5.629   2.556  11.890  0.5823  1.9023  0.5924
  929TIP3    H224279   5.660   2.603  12.030  3.4312  0.4470  0.4873
  930TIP3   OH224280   5.419   0.341  10.589 -0.2288  0.4525  0.1309
  930TIP3    H124281   5.387   0.385  10.510  0.1815  2.2148  0.9330
  930TIP3    H224282   5.490   0.396  10.620 -1.8845  1.0438  3.0199
  931TIP3   OH224283   4.797   1.184  13.193 -0.3354  0.3648  0.1532
  931TIP3    H124284   4.856   1.252  13.162  1.8989 -1.5188  0.0651
  931TIP3    H224285   4.787   1.125  13.118 -0.9128 -0.2642  0.7164
  932TIP3   OH224286   4.198   6.599  12.605 -0.3481  0.3642 -0.1693
  932TIP3    H124287   4.111   6.620  12.570  0.3428  0.9191 -1.5922
  932TIP3    H224288   4.180   6.541  12.679 -1.8594 -0.7484 -1.3715
  933TIP3   OH224289   3.671   5.908  12.070 -0.1086  0.4027  0.1037
  933TIP3    H124290   3.710   5.899  11.984  0.3766 -2.0097  0.5533
  933TIP3    H224291   3.594   5.851  12.069  0.7393 -0.8255  1.7243
  934TIP3   OH224292   2.679   7.099  12.472 -0.3241 -0.0331 -0.6517
  934TIP3    H124293   2.635   7.182  12.454 -3.7361 -1.5927  0.1339
  934TIP3    H224294   2.714   7.072  12.387 -3.1921  0.0103 -1.9178
  935TIP3   OH224295   4.670   3.103  12.480  0.4394  0.7131  0.2946
  935TIP3    H124296   4.683   3.009  12.468 -3.8268  0.3619 -2.5838
  935TIP3    H224297   4.631   3.111  12.567  1.8808 -0.0238  1.0336
  936TIP3   OH224298   4.799   0.305  11.556 -0.3396 -0.0355  0.3565
  936TIP3    H124299   4.894   0.302  11.545 -0.3794  0.2620 -0.0807
  936TIP3    H224300   4.774   0.391  11.522 -1.0490 -1.0710 -1.8686
  937TIP3   OH224301   4.599   1.864  11.643  0.0521  0.2047 -0.1976
  937TIP3    H124302   4.677   1.906  11.608 -0.0443  0.9096  0.4205
  937TIP3    H224303   4.553   1.934  11.689 -0.7009 -0.3162 -0.1496
  938TIP3   OH224304   6.507   0.763  10.380  0.6495  0.7347  0.2862
  938TIP3    H124305   6.501   0.773  10.285  0.8854  0.6283  0.2612
  938TIP3    H224306   6.469   0.677  10.398 -1.6248  1.7294  0.5273
  939TIP3   OH224307   3.394   2.164  13.772 -0.3612  0.5250  0.4093
  939TIP3    H124308   3.420   2.173  13.863  0.4293  2.6981  0.0179
  939TIP3    H224309   3.409   2.251  13.735 -0.2751 -0.4321 -1.8862
  940TIP3   OH224310   5.591   0.481  10.369  0.2854  0.7009  0.4190
  940TIP3    H124311   5.500   0.480  10.341  0.7277 -0.2963 -1.0441
  940TIP3    H224312   5.641   0.498  10.290  1.4343  0.0583  0.9790
  941TIP3   OH224313   4.877   0.629  10.990 -0.1296 -0.4591 -0.8544
  941TIP3    H124314   4.846   0.550  11.034 -0.9101  0.9758  1.2708
  941TIP3    H224315   4.950   0.660  11.045  0.9631 -0.3629 -2.3379
  942TIP3   OH224316   5.800   2.550  11.049 -0.2557 -0.5660 -0.8037
  942TIP3    H124317   5.800   2.615  11.119  0.5240 -0.2011 -1.1415
  942TIP3    H224318   5.800   2.602  10.968  0.3041 -0.9882 -1.0724
  943TIP3   OH224319   2.860   2.569  12.149  0.4556  0.2772 -0.0377
  943TIP3    H124320   2.912   2.550  12.227  1.2908  1.5605 -0.2681
  943TIP3    H224321   2.779   2.519  12.162  0.3142  0.9743  1.9592
  944TIP3   OH224322   5.720   6.053  11.482 -0.1172 -0.3464  0.3579
  944TIP3    H124323   5.635   6.027  11.446  0.7980 -0.5410 -1.6894
  944TIP3    H224324   5.770   5.972  11.487  0.4703 -0.0008  0.1360
  945TIP3   OH224325   3.501   2.089  11.347  0.6844  0.1997 -0.2865
  945TIP3    H124326   3.569   2.088  11.414  0.2560 -1.3858  0.1597
  945TIP3    H224327   3.535   2.033  11.277 -0.6521 -1.6210  0.4758
  946TIP3   OH224328   0.185   0.086  12.193  0.2470  0.3209  0.5542
  946TIP3    H124329   0.141   0.163  12.156 -1.2166 -0.1643  1.2506
  946TIP3    H224330   0.223   0.117  12.276  0.4775  0.5212  0.3751
  947TIP3   OH224331   6.847   6.506  10.299 -0.5069 -0.0460 -0.4005
  947TIP3    H124332   6.940   6.524  10.289 -0.4130 -0.5951 -0.5093
  947TIP3    H224333   6.842   6.411  10.311 -1.1858 -0.2195 -1.9991
  948TIP3   OH224334   4.896   2.253  10.635  0.2922 -0.4237 -0.3467
  948TIP3    H124335   4.805   2.227  10.618 -0.1968  1.4728 -0.7152
  948TIP3    H224336   4.931   2.275  10.549  0.4005  1.0234  0.0641
  949TIP3   OH224337   4.414   6.048  10.839 -0.1027 -0.2308 -0.4202
  949TIP3    H124338   4.507   6.067  10.833  0.2875 -1.9291 -0.1390
  949TIP3    H224339   4.381   6.108  10.905  0.8165  0.3088 -0.4512
  950TIP3   OH224340   5.592   1.138  10.553  0.4970 -0.5717  0.2324
  950TIP3    H124341   5.662   1.155  10.615  1.3160 -0.9674 -0.5835
  950TIP3    H224342   5.562   1.226  10.526  0.0047 -0.4004  1.3190
  951TIP3   OH224343   3.292   2.819  12.763  0.4357 -0.8027 -0.1287
  951TIP3    H124344   3.309   2.798  12.671 -1.5824 -0.0769 -0.6813
  951TIP3    H224345   3.248   2.904  12.761  1.7176 -0.0632  1.6168
  952TIP3   OH224346   5.910   0.125  10.225  0.6280  0.3107 -0.4255
  952TIP3    H124347   5.930   0.119  10.131  0.0011  1.2900 -0.6236
  952TIP3    H224348   5.932   0.215  10.249 -1.7843  0.8900 -0.2494
  953TIP3   OH224349   2.966   1.454  11.770 -0.1953 -0.9800 -0.1833
  953TIP3    H124350   2.906   1.521  11.738  0.0209 -0.2858  0.8418
  953TIP3    H224351   3.007   1.419  11.691  2.2733  2.5425 -0.5953
  954TIP3   OH224352   2.732   6.654  10.159 -0.2304  0.3763 -0.8022
  954TIP3    H124353   2.790   6.660  10.235 -1.4790 -1.6685  0.3838
  954TIP3    H224354   2.788   6.623  10.088  0.4365 -0.1487 -0.0541
  955TIP3   OH224355   2.486   6.318  11.387  0.3815 -0.3950  0.4065
  955TIP3    H124356   2.409   6.373  11.399 -0.8728 -2.1448  0.6222
  955TIP3    H224357   2.527   6.314  11.474  1.1596  1.1591  0.1184
  956TIP3   OH224358   6.302   7.087  10.827  0.3424  0.3037  0.0965
  956TIP3    H124359   6.271   7.029  10.758 -0.2040  1.1409 -0.3869
  956TIP3    H224360   6.391   7.109  10.803  0.6562 -0.5650  0.4423
  957TIP3   OH224361   3.431   6.118  12.341  0.5059  0.0070 -1.0260
  957TIP3    H124362   3.511   6.134  12.290  0.9521  0.1275 -0.2927
  957TIP3    H224363   3.370   6.079  12.278 -0.1955  3.4571 -2.6083
  958TIP3   OH224364   5.596   1.032  10.892 -0.9281  0.2504  0.1151
  958TIP3    H124365   5.669   1.084  10.859  1.1330 -1.7866  1.3544
  958TIP3    H224366   5.574   1.072  10.976  0.8754 -1.0727  1.2256
  959TIP3   OH224367   2.530   1.639  11.498  0.6304  0.0337  0.2991
  959TIP3    H124368   2.594   1.587  11.545 -0.0417 -0.6337  0.4772
  959TIP3    H224369   2.534   1.607  11.408 -0.6440 -1.1709  0.6600
  960TIP3   OH224370   3.799   2.150  10.476  0.3818  0.2983  0.0763
  960TIP3    H124371   3.719   2.188  10.439  0.3337  1.9580  1.8138
  960TIP3    H224372   3.789   2.161  10.570  2.5487  0.3128  0.3224
  961TIP3   OH224373   2.352   0.246  12.277  0.1967  0.6832  0.3190
  961TIP3    H124374   2.308   0.183  12.219 -0.1972  1.6134 -0.4169
  961TIP3    H224375   2.445   0.231  12.262  0.1010  0.4210 -0.0225
  962TIP3   OH224376   5.117   3.090  11.474 -0.2419 -0.4502  0.1610
  962TIP3    H124377   5.169   3.081  11.555 -1.2922  0.5864  0.9669
  962TIP3    H224378   5.077   3.177  11.481 -0.5225 -0.4407 -1.3806
  963TIP3   OH224379   0.027   7.158  11.646 -0.0033 -0.1919 -0.1964
  963TIP3    H124380  -0.013   7.149  11.560 -1.8275 -0.8333  0.6685
  963TIP3    H224381   0.108   7.206  11.631 -0.3435 -0.2162 -2.2400
  964TIP3   OH224382   3.876   6.853  11.528 -0.1468  0.1432 -0.0706
  964TIP3    H124383   3.795   6.837  11.480 -0.1110  1.9854 -0.7912
  964TIP3    H224384   3.933   6.898  11.465  0.9226  0.1029  0.8525
  965TIP3   OH224385   5.800   1.140  10.725  0.4836 -0.0568  0.1442
  965TIP3    H124386   5.853   1.216  10.751  1.6898 -2.3219  4.8433
  965TIP3    H224387   5.863   1.072  10.704 -0.6151 -0.5465 -1.7139
  966TIP3   OH224388   3.487   1.066  10.704  0.0235  0.3031  0.2886
  966TIP3    H124389   3.489   1.068  10.608  1.1759 -0.5410  0.2852
  966TIP3    H224390   3.437   1.144  10.728 -0.5372  0.3639 -1.0016
  967TIP3   OH224391   1.333   1.509  11.404  0.0208 -0.1363 -0.4620
  967TIP3    H124392   1.372   1.455  11.473 -0.8887 -0.2236 -0.0072
  967TIP3    H224393   1.341   1.455  11.325  2.7530  0.7206 -0.8298
  968TIP3   OH224394   5.032   4.763  14.348 -0.2259  0.7558  0.3577
  968TIP3    H124395   5.071   4.690  14.396  0.0830  0.6236 -0.0962
  968TIP3    H224396   4.948   4.778  14.391  0.3904  1.1387  1.4397
  969TIP3   OH224397   6.501   1.339  11.587 -0.2087 -0.4982 -0.3533
  969TIP3    H124398   6.513   1.251  11.622 -0.8807 -0.3877  0.1632
  969TIP3    H224399   6.417   1.334  11.540  0.0492 -0.2967 -0.8375
  970TIP3   OH224400   4.352   0.310  11.234  0.4340 -0.4155 -0.8611
  970TIP3    H124401   4.345   0.405  11.238  1.9267 -0.2184 -2.7259
  970TIP3    H224402   4.431   0.289  11.284  1.1124 -0.5332 -1.9852
  971TIP3   OH224403   2.685   1.057  10.973  0.1444  0.5836  0.2797
  971TIP3    H124404   2.721   1.021  10.892  0.3119  0.7228  0.2915
  971TIP3    H224405   2.759   1.101  11.015  0.4243 -0.8039  1.2721
  972TIP3   OH224406   5.042   6.719  11.097 -0.0794 -0.6186 -0.0346
  972TIP3    H124407   4.960   6.753  11.062 -0.2197 -1.6686 -0.7757
  972TIP3    H224408   5.110   6.761  11.044 -0.1227  0.3764  0.6876
  973TIP3   OH224409   5.220   1.377  10.984 -0.0376  0.2622  0.1339
  973TIP3    H124410   5.135   1.415  11.005 -1.0904 -2.1241  0.3502
  973TIP3    H224411   5.268   1.380  11.067 -0.7023 -0.3514  0.5502
  974TIP3   OH224412   3.183   0.175  12.128  0.2564 -0.2017 -0.2706
  974TIP3    H124413   3.121   0.157  12.057  0.2824 -0.1052 -0.3184
  974TIP3    H224414   3.202   0.088  12.165  0.9098 -0.3591 -0.9503
  975TIP3   OH224415   0.792   1.008  11.079  0.3403 -0.3385  0.2057
  975TIP3    H124416   0.787   0.923  11.123  2.5343  0.3747  1.9508
  975TIP3    H224417   0.844   0.990  11.001 -0.7443 -0.9443 -0.3934
  976TIP3   OH224418   3.249   0.303  10.944  0.3266 -0.0445  0.3418
  976TIP3    H124419   3.253   0.365  10.871  1.2741  2.1840  2.2122
  976TIP3    H224420   3.316   0.238  10.924  0.4629  0.4491 -0.8586
  977TIP3   OH224421   4.613   0.951  11.226  0.0025  0.7447  0.3131
  977TIP3    H124422   4.567   0.871  11.251  2.5029 -0.5404  0.9681
  977TIP3    H224423   4.659   0.928  11.146 -0.5310  2.0409 -0.3735
  978TIP3   OH224424   2.031   0.873  12.444 -0.2104  0.1418 -0.0375
  978TIP3    H124425   2.065   0.787  12.469 -0.7974 -0.3411 -0.8799
  978TIP3    H224426   1.950   0.882  12.494  0.0900  0.4201  0.4112
  979TIP3   OH224427   6.796   7.092  10.396 -0.2739  0.0063 -0.7823
  979TIP3    H124428   6.811   6.999  10.384  0.0496  0.3136 -2.8955
  979TIP3    H224429   6.883   7.132  10.389 -0.6491  0.6551 -1.7634
  980TIP3   OH224430   4.757   6.211  10.623  0.1144  0.5376 -0.1375
  980TIP3    H124431   4.755   6.306  10.631 -0.0184  0.3605  2.0655
  980TIP3    H224432   4.843   6.186  10.656  1.5423  0.1337 -3.9212
  981TIP3   OH224433   3.353   1.838  10.305  0.2812  0.0952  0.6855
  981TIP3    H124434   3.339   1.933  10.310 -0.6349 -0.0172  0.3064
  981TIP3    H224435   3.443   1.829  10.274  0.1194  0.8544 -0.0351
  982TIP3   OH224436   1.878   1.372  12.334 -0.1909  0.0643  0.0472
  982TIP3    H124437   1.966   1.334  12.331 -0.0113  0.4512  0.3508
  982TIP3    H224438   1.880   1.430  12.410 -0.7223  0.0420  0.0759
  983TIP3   OH224439   5.033   2.403  11.650 -0.0081  1.1133  0.1150
  983TIP3    H124440   5.114   2.354  11.661 -0.6683 -0.1384 -0.4956
  983TIP3    H224441   5.059   2.482  11.602  0.8528  0.7626  0.0020
  984TIP3   OH224442   2.957   6.629  10.340  0.1383 -0.5017  0.1483
  984TIP3    H124443   2.916   6.543  10.348 -0.8731 -0.1767 -1.2581
  984TIP3    H224444   2.938   6.672  10.424 -1.7422 -0.6653 -0.1592
  985TIP3   OH224445   5.187   0.427  11.218  1.0078  0.7706 -0.4249
  985TIP3    H124446   5.180   0.495  11.285 -1.6468 -0.1640  0.3272
  985TIP3    H224447   5.126   0.455  11.149  0.9836 -0.1006 -0.7615
  986TIP3   OH224448   4.780   6.727  13.878  0.3261 -0.2571 -0.2185
  986TIP3    H124449   4.775   6.632  13.888 -0.2934 -0.3562 -1.4066
  986TIP3    H224450   4.693   6.753  13.847  0.3637  0.7553  0.4820
  987TIP3   OH224451   1.398   0.852  10.606 -0.0112  0.6193 -0.0461
  987TIP3    H124452   1.464   0.834  10.540 -1.5457 -0.0584 -1.4172
  987TIP3    H224453   1.435   0.923  10.658  2.1273 -0.2760 -0.2957
  988TIP3   OH224454   0.627   0.899   9.671 -0.7745 -0.1427 -0.2358
  988TIP3    H124455   0.652   0.967   9.608 -0.7711  1.6294  1.6402
  988TIP3    H224456   0.531   0.904   9.676 -0.6337  1.1911  1.4799
  989TIP3   OH224457   0.450   6.860  11.312 -0.3198 -0.3876  0.1875
  989TIP3    H124458   0.485   6.866  11.223 -1.6223 -1.1706 -0.3979
  989TIP3    H224459   0.369   6.810  11.302 -1.5393  1.2786  1.5242
  990TIP3   OH224460   4.785   5.184  11.060  0.1906  0.6634  0.0088
  990TIP3    H124461   4.707   5.163  11.009 -1.2326  2.8945  1.2163
  990TIP3    H224462   4.830   5.251  11.009  0.9902 -0.1382 -0.3566
  991TIP3   OH224463   1.266   1.242  11.747 -0.4746 -0.1517  0.0949
  991TIP3    H124464   1.332   1.198  11.801 -2.4884 -2.6451  0.6000
  991TIP3    H224465   1.276   1.335  11.769  1.1545 -0.7426  2.0632
  992TIP3   OH224466   6.618   1.071  10.209  0.2927 -0.5143 -0.0510
  992TIP3    H124467   6.553   1.121  10.160 -0.8311 -1.6445  0.2577
  992TIP3    H224468   6.698   1.124  10.205  0.2549 -0.6240 -3.1377
  993TIP3   OH224469   3.791   2.044  11.371  0.2591  0.0166  0.1153
  993TIP3    H124470   3.740   2.014  11.295  2.6515 -2.1596 -0.7088
  993TIP3    H224471   3.881   2.047  11.339  1.0666  0.8771  2.3977
  994TIP3   OH224472   5.874   0.580  10.499  0.6254 -0.4777 -0.0572
  994TIP3    H124473   5.936   0.514  10.469  1.1989 -0.4034  0.9210
  994TIP3    H224474   5.788   0.545  10.476  1.0052 -0.8604 -0.8884
  995TIP3   OH224475   6.265   0.378  10.543 -0.3480  0.6483 -0.8356
  995TIP3    H124476   6.346   0.341  10.577 -0.8936  0.6955  0.5251
  995TIP3    H224477   6.293   0.439  10.475  0.8022  1.2634  0.1819
  996TIP3   OH224478   5.535   1.641  13.389  0.2870 -0.2184  0.2102
  996TIP3    H124479   5.557   1.712  13.330  0.0894  1.5005  2.1454
  996TIP3    H224480   5.579   1.663  13.471 -2.2721 -0.7275  1.7740
  997TIP3   OH224481   6.700   5.731  11.104 -1.0104 -0.1952  1.1082
  997TIP3    H124482   6.725   5.654  11.052 -1.7200  0.7806 -0.7251
  997TIP3    H224483   6.766   5.797  11.081 -0.9613  0.0444  1.9400
  998TIP3   OH224484   3.861   0.233  11.419 -0.3929 -0.8508 -0.2109
  998TIP3    H124485   3.806   0.168  11.375 -0.2827  1.0845 -3.3896
  998TIP3    H224486   3.941   0.236  11.366  0.6748  0.0429  1.4002
  999TIP3   OH224487   2.015   1.147  11.812 -0.4463 -0.2295  0.4440
  999TIP3    H124488   1.981   1.166  11.900  0.1566  2.6899  0.1075
  999TIP3    H224489   1.973   1.211  11.756  0.0751 -1.3180 -1.2212
 1000TIP3   OH224490   4.350   4.331  11.896  0.0760  0.2058  0.7876
 1000TIP3    H124491   4.429   4.280  11.913 -0.6405 -1.0451  0.4430
 1000TIP3    H224492   4.279   4.283  11.939 -0.7519  0.4167 -0.2910
 1001TIP3   OH224493   7.098   0.568  11.302  0.1947 -0.3351  0.6626
 1001TIP3    H124494   7.148   0.579  11.383 -0.3375  1.5377  0.7515
 1001TIP3    H224495   7.006   0.573  11.329 -0.0111 -1.0745  0.1255
 1002TIP3   OH224496   6.769   0.140  10.124  0.8409 -0.2686 -0.1003
 1002TIP3    H124497   6.731   0.205  10.065 -0.2734 -2.9136 -2.4612
 1002TIP3    H224498   6.701   0.125  10.190  1.1379  0.9578  0.5090
 1003TIP3   OH224499   0.067   1.604  10.781 -0.6738  0.2015  0.3052
 1003TIP3    H124500   0.155   1.572  10.761 -0.6464  0.0104  0.7307
 1003TIP3    H224501   0.072   1.635  10.871 -0.0901  3.6692 -0.8719
 1004TIP3   OH224502   0.869   7.010  13.049  0.0170 -0.8993 -0.4288
 1004TIP3    H124503   0.912   6.946  12.993  0.2249 -1.3353  0.2337
 1004TIP3    H224504   0.780   7.017  13.014  0.0489 -1.4123 -0.6069
 1005TIP3   OH224505   6.610   6.554  10.186 -0.0325 -0.5581 -0.3195
 1005TIP3    H124506   6.692   6.548  10.235 -1.5780  0.6868  2.5675
 1005TIP3    H224507   6.602   6.470  10.141  2.5777 -0.8492 -0.2775
 1006TIP3   OH224508   1.158   1.870  11.651  0.0999 -0.1344 -0.5409
 1006TIP3    H124509   1.086   1.862  11.713  1.1850 -0.9059  0.6280
 1006TIP3    H224510   1.146   1.958  11.613 -1.3531 -0.1881 -0.2630
 1007TIP3   OH224511   3.815   2.280  11.177 -0.1237 -0.0690 -0.2194
 1007TIP3    H124512   3.744   2.326  11.132  0.7541  1.7408  0.2376
 1007TIP3    H224513   3.852   2.222  11.110 -0.2869  0.9435 -1.1923
 1008TIP3   OH224514   5.579   0.540  10.713  0.9370  0.8104 -1.0188
 1008TIP3    H124515   5.525   0.571  10.785  1.5097 -0.1266 -0.1682
 1008TIP3    H224516   5.586   0.615  10.654  0.0955  1.4458 -0.3253
 1009TIP3   OH224517   0.889   4.478  11.691  0.0155  0.8869  0.4675
 1009TIP3    H124518   0.849   4.539  11.628 -0.1713 -1.4582 -1.7906
 1009TIP3    H224519   0.815   4.435  11.733  0.1491  0.9829  0.8006
 1010TIP3   OH224520   6.197   1.083  12.315  0.2776  1.1258 -0.6967
 1010TIP3    H124521   6.200   1.118  12.404  0.9721  0.4332 -0.4462
 1010TIP3    H224522   6.178   1.160  12.260 -1.0183  1.4026  0.1234
 1011TIP3   OH224523   5.829   0.736  10.791 -0.3405 -0.4768  0.0693
 1011TIP3    H124524   5.879   0.686  10.727  1.4523  1.3834 -0.0539
 1011TIP3    H224525   5.740   0.700  10.787 -0.6494  0.5313 -4.5297
 1012TIP3   OH224526   6.618   1.714  10.884  0.1460  0.2611  0.2504
 1012TIP3    H124527   6.524   1.702  10.869  0.3329  0.6528 -1.2955
 1012TIP3    H224528   6.624   1.753  10.971 -1.0674 -0.6498  0.7500
 1013TIP3   OH224529   1.853   1.966  10.885  0.3553 -0.3571 -0.2110
 1013TIP3    H124530   1.802   1.995  10.810  0.5883 -2.2831 -1.1559
 1013TIP3    H224531   1.789   1.957  10.956  0.0928  1.2101 -0.2364
 1014TIP3   OH224532   7.120   1.701  13.267 -0.3448 -0.0055  0.1384
 1014TIP3    H124533   7.090   1.612  13.283  0.4621 -0.2947  0.0613
 1014TIP3    H224534   7.151   1.732  13.352  0.2621 -0.1370 -0.0352
 1015TIP3   OH224535   7.013   1.107  10.117 -0.0572 -0.5962 -0.6816
 1015TIP3    H124536   6.933   1.159  10.122  1.2579  1.5174 -0.8136
 1015TIP3    H224537   6.992   1.037  10.055 -2.4619 -1.3324  0.9116
 1016TIP3   OH224538   6.877   1.430  10.453  0.3178  0.0542  0.4529
 1016TIP3    H124539   6.809   1.495  10.436 -1.1188 -2.2082 -3.1376
 1016TIP3    H224540   6.837   1.369  10.514  0.4588  0.6990  1.1974
 1017TIP3   OH224541   1.785   0.994  12.523 -0.1043  0.4371  0.1678
 1017TIP3    H124542   1.769   0.976  12.431 -0.2775  1.1813  0.0499
 1017TIP3    H224543   1.729   0.931  12.570  0.9319 -0.7938 -0.2135
 1018TIP3   OH224544   6.758   1.262  10.638 -0.0555  0.8741 -0.1343
 1018TIP3    H124545   6.734   1.306  10.720 -0.2951 -2.5076  1.7249
 1018TIP3    H224546   6.678   1.216  10.612  0.4802  0.6616 -1.4518
 1019TIP3   OH224547   0.594   1.895  11.302 -0.2582 -0.0386  0.2700
 1019TIP3    H124548   0.626   1.985  11.296  0.1759 -0.1507  0.9043
 1019TIP3    H224549   0.592   1.864  11.211  1.4345 -0.0253  0.2053
 1020TIP3   OH224550   1.453   7.219  13.523 -0.4239 -0.4013  0.1950
 1020TIP3    H124551   1.493   7.143  13.481 -0.0477 -0.5687  0.8471
 1020TIP3    H224552   1.499   7.294  13.487 -0.6682 -0.4963 -0.3114
 1021TIP3   OH224553   6.139   7.311  11.193 -0.1635  0.1850  0.1662
 1021TIP3    H124554   6.154   7.405  11.190 -0.8356  0.2592 -1.2765
 1021TIP3    H224555   6.082   7.298  11.268  0.1320  0.9030  0.5120
 1022TIP3   OH224556   6.200   0.663  11.015  0.8096 -0.5540 -0.3496
 1022TIP3    H124557   6.275   0.715  10.988  1.5732 -1.8414 -0.7262
 1022TIP3    H224558   6.215   0.646  11.108 -0.3972  1.4710  0.2608
 1023TIP3   OH224559   5.171   7.148  12.040 -0.1886  1.0472  0.6568
 1023TIP3    H124560   5.107   7.132  12.110 -1.1114  0.3625 -0.3241
 1023TIP3    H224561   5.168   7.243  12.026 -0.3417  1.1254  1.2324
 1024TIP3   OH224562   0.696   1.797  12.562 -0.4589 -0.2320  0.4263
 1024TIP3    H124563   0.611   1.781  12.521 -0.4495 -1.3277  0.8070
 1024TIP3    H224564   0.754   1.730  12.523  0.3131  0.7261 -0.0877
 1025TIP3   OH224565   0.685   3.586  11.359 -0.5291  0.4078  0.1001
 1025TIP3    H124566   0.724   3.498  11.356 -1.5149 -0.0100 -0.9377
 1025TIP3    H224567   0.709   3.620  11.445  0.6933 -0.4934  0.1293
 1026TIP3   OH224568   0.541   0.192  10.248 -0.2347  0.1336  0.5360
 1026TIP3    H124569   0.618   0.194  10.191 -0.4859 -1.1008  0.1457
 1026TIP3    H224570   0.558   0.260  10.313  1.6964 -0.8716  1.1097
 1027TIP3   OH224571   6.378   1.082  10.383  0.2762  0.1916 -0.1913
 1027TIP3    H124572   6.439   1.039  10.323 -1.4778  0.0887 -1.9390
 1027TIP3    H224573   6.374   1.173  10.352 -0.9476  0.0362 -0.5091
 1028TIP3   OH224574   4.124   0.498  10.936  0.4633 -0.1188  0.1793
 1028TIP3    H124575   4.169   0.423  10.897  0.9214  0.4451 -0.3772
 1028TIP3    H224576   4.065   0.529  10.867  2.0125  1.5107 -0.4374
 1029TIP3   OH224577   6.862   1.046  12.296  0.3474 -0.2255 -0.2596
 1029TIP3    H124578   6.883   1.129  12.253 -1.0392 -0.0301 -0.5966
 1029TIP3    H224579   6.766   1.042  12.294  0.3775 -1.4830  0.4218
 1030TIP3   OH224580   5.507   0.653  11.751  0.0430  0.1849 -0.3582
 1030TIP3    H124581   5.532   0.657  11.659  1.7551  2.1671  0.1529
 1030TIP3    H224582   5.559   0.581  11.787 -3.2435 -3.0072 -1.6209
 1031TIP3   OH224583   5.795   0.806  10.185 -0.4012  0.3074  0.3381
 1031TIP3    H124584   5.804   0.865  10.260  0.0968 -0.1445  0.6296
 1031TIP3    H224585   5.788   0.864  10.110  0.4922  0.7360  0.5816
 1032TIP3   OH224586   0.909   1.530  12.193 -0.5876  0.1027  0.0560
 1032TIP3    H124587   0.905   1.491  12.106 -0.9241 -1.8341  0.9111
 1032TIP3    H224588   1.000   1.519  12.220 -0.4539  0.8158 -0.0917
 1033TIP3   OH224589   2.469   0.862  10.758 -0.3160 -0.0065  0.5154
 1033TIP3    H124590   2.466   0.818  10.673 -0.4138  1.6831 -0.3807
 1033TIP3    H224591   2.551   0.832  10.798  1.1283  1.2899 -1.3633
 1034TIP3   OH224592   6.538   0.783  10.120 -0.2611  0.2794 -0.5230
 1034TIP3    H124593   6.591   0.856  10.152 -3.0741  2.6012 -0.9748
 1034TIP3    H224594   6.555   0.781  10.025  0.1052  0.0715 -0.4565
 1035TIP3   OH224595   5.827   6.238  13.010 -0.2607  0.2316  0.9977
 1035TIP3    H124596   5.816   6.189  12.928 -0.4265  0.1264  1.0816
 1035TIP3    H224597   5.758   6.304  13.007 -1.3285 -0.8147  1.8038
 1036TIP3   OH224598   4.960   7.068  10.635 -0.5723  0.0667 -0.2186
 1036TIP3    H124599   4.954   7.097  10.544 -0.1072  0.0750 -0.2480
 1036TIP3    H224600   5.050   7.087  10.661 -0.7465  0.2114  0.2966
 1037TIP3   OH224601   1.805   2.553  13.745 -0.0206 -0.4231  0.7678
 1037TIP3    H124602   1.805   2.478  13.685 -0.8844 -0.0580  0.2974
 1037TIP3    H224603   1.869   2.614  13.707 -2.0648  0.7112 -0.9689
 1038TIP3   OH224604   2.876   2.150  12.121 -0.2752 -0.0289  0.4416
 1038TIP3    H124605   2.901   2.211  12.190 -0.9494  1.9736 -1.0569
 1038TIP3    H224606   2.805   2.194  12.074  0.3629 -1.2361 -1.7069
 1039TIP3   OH224607   5.353   6.834  11.043  0.5079  0.0625 -0.4113
 1039TIP3    H124608   5.393   6.796  11.121 -0.1153 -1.8948 -1.0111
 1039TIP3    H224609   5.371   6.927  11.050  1.0550 -0.1693  1.7275
 1040TIP3   OH224610   6.768   0.538  11.354  0.6260  0.9497  0.4403
 1040TIP3    H124611   6.750   0.446  11.338 -2.1207  1.2478  1.6398
 1040TIP3    H224612   6.794   0.573  11.268 -0.7338 -0.4000 -0.5331
 1041TIP3   OH224613   7.088   7.040  13.814 -0.1019 -0.1951  0.4662
 1041TIP3    H124614   7.014   7.099  13.803 -0.1057 -0.0559  1.2271
 1041TIP3    H224615   7.085   7.015  13.906  1.5583  0.8363  0.8242
 1042TIP3   OH224616   6.147   6.587  11.513  0.2576 -0.2998 -0.1253
 1042TIP3    H124617   6.124   6.640  11.590 -0.0758  1.1257 -1.1853
 1042TIP3    H224618   6.096   6.626  11.442  1.1452 -1.1394 -1.2257
 1043TIP3   OH224619   6.326   7.072  11.181  0.1590 -0.2201 -0.7907
 1043TIP3    H124620   6.376   7.010  11.128 -1.4357 -0.7210 -1.7159
 1043TIP3    H224621   6.325   7.033  11.268  0.4172 -0.7599 -1.0254
 1044TIP3   OH224622   5.007   0.904  10.800  0.1647 -0.3950 -0.1607
 1044TIP3    H124623   4.994   0.971  10.732  1.6859 -0.6218 -0.7081
 1044TIP3    H224624   4.994   0.821  10.755  0.2641 -0.5201  0.0436
 1045TIP3   OH224625   5.078   6.838  10.039  0.3668  0.1346  0.1472
 1045TIP3    H124626   5.071   6.877   9.952 -0.7394 -0.5729 -0.0802
 1045TIP3    H224627   5.165   6.864  10.070  0.1785  1.6268 -0.5586
 1046TIP3   OH224628   1.172   0.814  11.585 -0.1622 -0.4508  0.2984
 1046TIP3    H124629   1.131   0.740  11.629 -1.0747  0.6334  1.3242
 1046TIP3    H224630   1.158   0.888  11.644 -2.6059  1.3509 -2.3412
 1047TIP3   OH224631   4.706   6.808  10.577 -0.0416 -0.7737 -0.1777
 1047TIP3    H124632   4.793   6.791  10.612  0.0283 -0.0352  0.0208
 1047TIP3    H224633   4.717   6.809  10.482  0.8468  2.6447 -0.1254
 1048TIP3   OH224634   6.566   1.367  11.174  0.0947  0.0917  0.8151
 1048TIP3    H124635   6.490   1.326  11.134 -0.2931 -0.2182  1.8506
 1048TIP3    H224636   6.613   1.295  11.217 -0.1613  0.5901  1.9524
 1049TIP3   OH224637   6.952   1.541  11.794  0.3615  0.3492  0.0269
 1049TIP3    H124638   6.917   1.621  11.757 -0.2547  0.8111  1.5524
 1049TIP3    H224639   6.999   1.499  11.722 -0.8431  1.1772 -1.2562
 1050TIP3   OH224640   0.973   0.597  11.616  0.7701  0.2446 -0.0110
 1050TIP3    H124641   1.018   0.550  11.546 -3.0289 -4.9923  0.6931
 1050TIP3    H224642   0.909   0.652  11.571  1.1416  0.0949 -0.7214
 1051TIP3   OH224643   6.381   0.715  12.041  0.1025 -0.3649  0.1000
 1051TIP3    H124644   6.307   0.694  12.099 -0.0214 -0.5673 -0.1326
 1051TIP3    H224645   6.352   0.688  11.954  0.9101 -1.5478  0.1937
 1052TIP3   OH224646   1.837   1.122  11.407 -0.2082 -0.3092 -0.2886
 1052TIP3    H124647   1.929   1.095  11.412  0.9996  3.4361 -0.7007
 1052TIP3    H224648   1.810   1.099  11.318  1.3650  1.4593 -1.2716
 1053TIP3   OH224649   6.019   6.996  12.954  0.4595  0.5565 -0.1199
 1053TIP3    H124650   6.093   7.012  12.895  0.5074 -0.0987 -0.2439
 1053TIP3    H224651   5.952   7.058  12.927  1.0463  1.2942  0.1222
 1054TIP3   OH224652   4.819   0.146   9.734 -0.1520 -0.0920  0.2682
 1054TIP3    H124653   4.740   0.108   9.774  0.9196 -2.4376  0.2524
 1054TIP3    H224654   4.862   0.072   9.691  2.4607  0.9731  0.9407
 1055TIP3   OH224655   5.662   6.102  14.148 -0.2591  0.0519 -0.0205
 1055TIP3    H124656   5.592   6.167  14.157 -1.6443 -1.3117 -0.6980
 1055TIP3    H224657   5.631   6.043  14.079  2.1388  0.1626 -1.2625
 1056TIP3   OH224658   1.062   0.601   9.931 -0.0896 -0.4000  0.2495
 1056TIP3    H124659   1.007   0.524   9.920  1.1433 -0.7855 -3.7452
 1056TIP3    H224660   1.034   0.662   9.863  1.5685  1.1321  0.8772
 1057TIP3   OH224661   0.309   0.127  13.086  0.1448  0.3664 -0.3476
 1057TIP3    H124662   0.393   0.081  13.079 -0.4808 -0.8870  0.3062
 1057TIP3    H224663   0.246   0.070  13.043 -0.8477  0.0505  1.4889
 1058TIP3   OH224664   6.370   5.752  10.830 -0.0416 -0.6294  0.4248
 1058TIP3    H124665   6.429   5.692  10.786  0.1091  0.2636 -0.5996
 1058TIP3    H224666   6.308   5.780  10.763 -1.2131 -1.0142  1.3189
 1059TIP3   OH224667   1.577   1.937  11.369 -0.2632 -0.4630 -0.2221
 1059TIP3    H124668   1.537   1.956  11.454  3.1046 -1.0872  1.5829
 1059TIP3    H224669   1.542   1.851  11.345 -2.6648  0.5212 -0.4183
 1060TIP3   OH224670   0.207   1.568  10.078 -0.2559  0.6722 -0.3584
 1060TIP3    H124671   0.230   1.495  10.019  0.7821  0.4169  0.3326
 1060TIP3    H224672   0.288   1.583  10.128 -0.8976  1.3895  0.4597
 1061TIP3   OH224673   7.023   0.092  10.255  0.2153  0.0749  0.4183
 1061TIP3    H124674   6.943   0.105  10.204  0.4982  2.1569  0.4238
 1061TIP3    H224675   7.082   0.161  10.223  1.2660 -0.1579  1.8245
 1062TIP3   OH224676   5.222   0.737  12.370 -0.2838 -0.0457  0.3154
 1062TIP3    H124677   5.276   0.693  12.436  0.8937  0.0706 -0.5410
 1062TIP3    H224678   5.193   0.666  12.313 -2.1506 -0.2839  1.5183
 1063TIP3   OH224679   4.863   1.338  10.027 -0.5566 -0.0584 -0.5284
 1063TIP3    H124680   4.827   1.418   9.989  0.1139 -0.4492 -2.0430
 1063TIP3    H224681   4.935   1.313   9.967  0.3572 -0.8397  0.8598
 1064TIP3   OH224682   0.450   0.727  11.067  0.2736 -0.2510 -0.0691
 1064TIP3    H124683   0.364   0.700  11.038 -0.5743  0.1356  1.9765
 1064TIP3    H224684   0.471   0.805  11.016 -1.4018  0.7313  0.7243
 1065TIP3   OH224685   2.281   0.409  13.233 -0.1097 -0.8619 -0.1281
 1065TIP3    H124686   2.241   0.323  13.217  1.1483 -1.7150  1.1665
 1065TIP3    H224687   2.320   0.434  13.150 -1.6475 -0.9003 -0.8845
 1066TIP3   OH224688   6.652   4.507  10.649 -0.2773 -0.4264 -0.2972
 1066TIP3    H124689   6.716   4.540  10.586 -0.4844 -0.1573 -0.3675
 1066TIP3    H224690   6.609   4.585  10.684  1.2692 -0.4377  1.7288
 1067TIP3   OH224691   6.166   6.438   9.850 -0.0103  0.0791 -0.3231
 1067TIP3    H124692   6.227   6.462   9.920 -2.5004  1.7634  1.3715
 1067TIP3    H224693   6.160   6.517   9.796 -3.8439  1.5006  1.9692
 1068TIP3   OH224694   0.789   1.945  12.033 -0.9429  0.6188 -0.2100
 1068TIP3    H124695   0.745   1.863  12.056  1.8560 -0.5370  1.2788
 1068TIP3    H224696   0.817   1.981  12.117  0.3096  1.6645 -1.0550
 1069TIP3   OH224697   4.813   2.492  12.302  0.7310 -0.0089  0.2537
 1069TIP3    H124698   4.776   2.489  12.391 -1.1063  0.3617 -0.4780
 1069TIP3    H224699   4.852   2.579  12.297  1.3671 -0.2503  0.9005
 1070TIP3   OH224700   1.412   5.811  12.257  0.3420 -0.3738 -0.4846
 1070TIP3    H124701   1.441   5.771  12.339 -1.8781 -0.8518  0.1133
 1070TIP3    H224702   1.380   5.898  12.283 -0.8840 -0.7447 -0.7380
 1071TIP3   OH224703   7.019   1.346   9.970 -0.6803  0.8958 -0.0816
 1071TIP3    H124704   7.069   1.334  10.051  0.7068  1.2484 -0.8619
 1071TIP3    H224705   6.985   1.435   9.976 -1.2072  0.6576  0.4558
 1072TIP3   OH224706   0.723   3.102  10.765  0.6459  0.0643  0.1018
 1072TIP3    H124707   0.735   3.185  10.811  1.1065 -0.1075  0.2900
 1072TIP3    H224708   0.746   3.122  10.674 -1.5393  0.7436 -0.3519
 1073TIP3   OH224709   1.115   6.833  10.423  0.0862 -0.0992  0.4920
 1073TIP3    H124710   1.118   6.797  10.511  1.8784 -0.7535  0.1876
 1073TIP3    H224711   1.188   6.895  10.419  0.3809 -0.4979 -0.6952
 1074TIP3   OH224712   7.164   1.167  12.555 -0.4211 -0.1292 -0.2880
 1074TIP3    H124713   7.079   1.210  12.545 -1.0800 -1.6975 -1.7274
 1074TIP3    H224714   7.195   1.152  12.466 -0.1702 -2.4893  0.1550
 1075TIP3   OH224715   0.479   1.298  10.870  0.3152  0.5375 -0.8274
 1075TIP3    H124716   0.567   1.284  10.834  1.1172  0.7473  0.9707
 1075TIP3    H224717   0.490   1.372  10.930 -0.8605 -0.1307  0.2211
 1076TIP3   OH224718   5.772   2.236  10.009  0.1249 -0.5391  0.2738
 1076TIP3    H124719   5.806   2.172   9.947  0.5848 -0.0290 -0.0099
 1076TIP3    H224720   5.780   2.320   9.963  0.7740 -0.1137  1.1392
 1077TIP3   OH224721   5.487   0.412  13.616  0.3275  0.0774  0.1437
 1077TIP3    H124722   5.504   0.335  13.670 -1.0241  0.5177  1.2191
 1077TIP3    H224723   5.569   0.461  13.617  1.9329 -2.4230 -2.3754
 1078TIP3   OH224724   6.587   0.568   9.821  0.0274 -0.0769  0.3113
 1078TIP3    H124725   6.642   0.638   9.856  0.8265 -0.1637 -0.7491
 1078TIP3    H224726   6.524   0.613   9.764  1.0934 -0.2816 -1.0620
 1079TIP3   OH224727   0.697   0.407  10.668  0.2779 -0.0490  0.2983
 1079TIP3    H124728   0.646   0.421  10.589 -0.3456 -3.2274  0.0576
 1079TIP3    H224729   0.768   0.348  10.641  0.5283 -0.5312  1.8900
 1080TIP3   OH224730   5.672   6.924  10.687  0.3698  0.4109 -0.4453
 1080TIP3    H124731   5.702   6.873  10.611  1.3576  0.6846 -0.2529
 1080TIP3    H224732   5.667   6.860  10.758  0.0252  0.2675 -0.5994
 1081TIP3   OH224733   6.376   6.819  10.563  0.7974  0.1548  0.3868
 1081TIP3    H124734   6.456   6.868  10.582  1.3692 -1.6387  2.7299
 1081TIP3    H224735   6.392   6.778  10.478  2.4874 -0.3959  0.9558
 1082TIP3   OH224736   6.405   1.652  10.314  0.7401  0.0288 -0.3686
 1082TIP3    H124737   6.496   1.642  10.286  0.4841  1.4723 -1.7725
 1082TIP3    H224738   6.373   1.728  10.265 -1.9821 -1.9825 -1.8996
 1083TIP3   OH224739   1.821   0.485  10.605 -0.5252 -0.3680 -0.4116
 1083TIP3    H124740   1.789   0.458  10.691 -0.2999  1.8825  0.4284
 1083TIP3    H224741   1.893   0.546  10.625 -0.6787  0.4251 -2.1904
 1084TIP3   OH224742   0.207   1.246  12.349  0.5856 -0.0623  0.0533
 1084TIP3    H124743   0.263   1.289  12.284  2.8820 -1.6643  0.8946
 1084TIP3    H224744   0.178   1.166  12.305  0.3905 -0.0853  0.2282
 1085TIP3   OH224745   6.751   2.832  10.839 -0.2852 -0.0518 -0.1520
 1085TIP3    H124746   6.708   2.891  10.901  1.5338  0.3570  0.7349
 1085TIP3    H224747   6.730   2.745  10.871  1.2709  0.1520  1.5180
 1086TIP3   OH224748   6.116   7.031  10.259 -0.0098  0.8009  0.3263
 1086TIP3    H124749   6.027   7.065  10.252  0.5854  2.2196 -0.7574
 1086TIP3    H224750   6.157   7.086  10.325 -0.1912 -0.4231  1.4586
 1087TIP3   OH224751   6.106   1.575  11.647 -0.5049 -0.0499  0.3490
 1087TIP3    H124752   6.162   1.653  11.640 -1.0874  0.1742 -2.5336
 1087TIP3    H224753   6.160   1.511  11.694  0.2656  1.8152  2.0573
 1088TIP3   OH224754   5.306   1.660  11.266 -0.1947 -0.0127 -0.0362
 1088TIP3    H124755   5.338   1.601  11.334 -1.6835  0.4972  1.1365
 1088TIP3    H224756   5.211   1.647  11.266 -0.2181 -0.0540 -2.0822
 1089TIP3   OH224757   6.689   0.282  12.500 -0.0391 -0.1856 -0.7253
 1089TIP3    H124758   6.605   0.319  12.529  0.6518 -0.1375  1.2760
 1089TIP3    H224759   6.703   0.321  12.413 -0.9500  1.6540 -0.0873
 1090TIP3   OH224760   5.834   0.212  12.014  0.4703  0.2781 -0.0085
 1090TIP3    H124761   5.874   0.124  12.009 -0.2645  0.0205 -1.5475
 1090TIP3    H224762   5.762   0.202  12.076 -1.4488 -0.9608 -2.3619
 1091TIP3   OH224763   5.850   2.032  12.510  0.0383  0.1409  0.6183
 1091TIP3    H124764   5.799   2.103  12.549 -1.0993  0.0177 -0.5930
 1091TIP3    H224765   5.921   2.076  12.464  0.7373  0.3442  1.8571
 1092TIP3   OH224766   6.741   7.292  11.055 -0.1437 -0.0254  0.6312
 1092TIP3    H124767   6.706   7.379  11.039  0.0830 -0.0163  0.1772
 1092TIP3    H224768   6.827   7.293  11.014 -0.4013 -0.6687  0.0610
 1093TIP3   OH224769   0.705   0.817  13.200  0.4556  0.0851 -0.3569
 1093TIP3    H124770   0.639   0.817  13.131  0.6983  0.2089 -0.5910
 1093TIP3    H224771   0.766   0.887  13.175  1.0022 -0.4207 -0.4638
 1094TIP3   OH224772   6.403   1.389  10.796  0.1619  0.3066  0.7402
 1094TIP3    H124773   6.353   1.357  10.721  0.8600  0.8945  0.0252
 1094TIP3    H224774   6.352   1.463  10.829 -0.8580 -0.7759  1.6999
 1095TIP3   OH224775   5.647   7.203  14.425 -0.4903 -0.7526 -0.0111
 1095TIP3    H124776   5.693   7.265  14.482 -0.6516 -0.9032  0.2821
 1095TIP3    H224777   5.653   7.119  14.472 -0.8795 -0.8143 -0.0770
 1096TIP3   OH224778   6.913   1.689  10.582 -0.1961 -0.0321  0.2078
 1096TIP3    H124779   6.985   1.717  10.525 -0.1675  0.0530  0.2861
 1096TIP3    H224780   6.954   1.630  10.645  0.0573  1.0506  1.0770
 1097TIP3   OH224781   0.056   6.626  12.147  0.1790 -0.4301  0.4283
 1097TIP3    H124782   0.068   6.531  12.150  0.5391 -0.3443  1.9348
 1097TIP3    H224783   0.131   6.661  12.196  0.6561  0.6847 -1.0524
 1098TIP3   OH224784   5.411   6.492  12.352  0.0579 -0.0571 -0.3386
 1098TIP3    H124785   5.400   6.585  12.371 -0.6336 -0.1455 -0.3028
 1098TIP3    H224786   5.363   6.478  12.270  0.4261 -0.3181 -0.5127
 1099TIP3   OH224787   0.643   7.150  13.323 -0.1378 -0.3948 -0.0854
 1099TIP3    H124788   0.619   7.074  13.269 -0.4428 -0.8419  0.6690
 1099TIP3    H224789   0.560   7.191  13.347 -0.0271 -0.4257  0.3624
 1100TIP3   OH224790   0.300   6.702  13.067  0.0919  0.2524 -0.3589
 1100TIP3    H124791   0.217   6.747  13.079 -0.3363 -0.6637  0.2181
 1100TIP3    H224792   0.353   6.728  13.143  0.3915  0.9508 -0.8018
 1101TIP3   OH224793   0.862   2.774  11.032  0.1720  0.0741 -0.3578
 1101TIP3    H124794   0.837   2.722  10.955 -0.0893  0.5365 -0.5892
 1101TIP3    H224795   0.897   2.855  10.995  0.6297  0.0443  0.0002
 1102TIP3   OH224796   5.990   6.194  10.951 -0.4580  0.7737 -0.1657
 1102TIP3    H124797   5.930   6.183  11.025 -1.0818  1.7793 -0.5207
 1102TIP3    H224798   6.077   6.193  10.991 -0.3854 -4.9130 -0.0781
 1103TIP3   OH224799   7.135   6.979  12.282  0.5529 -0.0375  0.7801
 1103TIP3    H124800   7.110   7.048  12.221  1.9610  0.8973  1.2372
 1103TIP3    H224801   7.060   6.972  12.341 -0.8163 -0.9426 -1.0064
 1104TIP3   OH224802   1.174   7.277  10.607  0.0539 -0.0109  0.1646
 1104TIP3    H124803   1.180   7.188  10.643 -2.2942  0.0387  0.7405
 1104TIP3    H224804   1.081   7.298  10.609  0.3754  1.7902 -1.6640
 1105TIP3   OH224805   0.262   5.704  12.747  0.1727  0.2699 -0.6317
 1105TIP3    H124806   0.274   5.681  12.654  1.7739 -0.4643 -0.2625
 1105TIP3    H224807   0.243   5.620  12.790  0.5233  0.4438 -0.1337
 1106TIP3   OH224808   6.179   6.834  12.491  0.6078  0.0468  0.0733
 1106TIP3    H124809   6.255   6.803  12.542 -0.5495 -2.2158  0.5104
 1106TIP3    H224810   6.138   6.899  12.547  0.2237 -1.3189  1.4234
 1107TIP3   OH224811   5.801   3.116  12.485 -0.3087 -0.2656 -0.1981
 1107TIP3    H124812   5.739   3.062  12.534  1.5675 -0.9731  1.4279
 1107TIP3    H224813   5.807   3.197  12.536  1.2537 -0.8023  0.4917
 1108TIP3   OH224814   0.183   6.112  11.165 -0.6692  0.9572  0.4541
 1108TIP3    H124815   0.209   6.192  11.210 -2.1389  0.9191  1.4144
 1108TIP3    H224816   0.097   6.091  11.202 -1.6914  0.6461 -2.0139
 1109TIP3   OH224817   5.958   7.164  11.817 -0.1710  0.6683  0.1173
 1109TIP3    H124818   6.037   7.208  11.786  1.0890 -1.1603  0.6368
 1109TIP3    H224819   5.929   7.217  11.892  1.0701  0.8706  0.4654
 1110TIP3   OH224820   4.995   1.445  10.574  0.0894 -0.1909  0.2272
 1110TIP3    H124821   4.977   1.477  10.663  1.0166  0.6157  0.1320
 1110TIP3    H224822   4.917   1.395  10.551 -1.9332  2.9898 -0.0885
 1111TIP3   OH224823   7.015   6.860  12.620  0.1695  0.0174 -0.0834
 1111TIP3    H124824   6.969   6.902  12.547 -0.4305 -0.4057  0.0469
 1111TIP3    H224825   6.990   6.911  12.697  0.9575  0.5829 -0.2069
 1112TIP3   OH224826   1.453   1.074  10.761  0.6031  0.2596  0.1914
 1112TIP3    H124827   1.425   1.165  10.773 -2.9464 -0.7391 -0.0744
 1112TIP3    H224828   1.418   1.027  10.836  1.0633 -1.1822 -0.4650
 1113TIP3   OH224829   1.457   1.361  12.096 -0.9026  0.0336  0.1098
 1113TIP3    H124830   1.463   1.279  12.145 -2.1765 -0.8300 -1.1399
 1113TIP3    H224831   1.533   1.412  12.124 -0.7964 -1.0551  1.8419
 1114TIP3   OH224832   6.739   1.674  10.216  0.2938 -0.5374  0.7780
 1114TIP3    H124833   6.829   1.667  10.183  0.8093  0.1991  1.9934
 1114TIP3    H224834   6.688   1.618  10.159  1.6921 -1.6963  0.6455
 1115TIP3   OH224835   5.671   1.796  10.376 -0.6423 -0.3565  0.0886
 1115TIP3    H124836   5.693   1.726  10.437  0.2560 -0.5108 -0.3975
 1115TIP3    H224837   5.664   1.874  10.430 -1.4446 -0.7821  0.6090
 1116TIP3   OH224838   3.043   1.060  10.808 -0.2347  0.0873 -0.3574
 1116TIP3    H124839   3.028   0.978  10.761  0.4115  0.1868 -0.7411
 1116TIP3    H224840   3.103   1.037  10.879  2.2715  0.7802 -2.2059
 1117TIP3   OH224841   5.995   0.305  10.910 -0.4604 -0.3803  0.3404
 1117TIP3    H124842   5.927   0.239  10.897 -0.9880  0.4536 -1.3108
 1117TIP3    H224843   6.036   0.315  10.825 -0.1299  1.1475  0.6562
 1118TIP3   OH224844   1.435   0.818  10.103 -0.3170  0.3869  0.0771
 1118TIP3    H124845   1.471   0.759  10.037 -2.4682  0.9476 -1.6666
 1118TIP3    H224846   1.344   0.789  10.113 -1.1945  2.9000 -0.2640
 1119TIP3   OH224847   5.912   0.718  11.043  0.2065  0.0642  0.5795
 1119TIP3    H124848   5.880   0.705  10.954  0.3681 -1.8679  0.7804
 1119TIP3    H224849   6.005   0.692  11.039  0.3227  0.3791  1.2196
 1120TIP3   OH224850   0.620   4.284  13.062  0.6689  0.4664  0.0746
 1120TIP3    H124851   0.556   4.221  13.094  0.5389 -0.3903 -1.7995
 1120TIP3    H224852   0.703   4.258  13.103  0.6853 -1.1586 -0.9664
 1121TIP3   OH224853   5.760   0.413  15.160  0.1932 -0.4508 -0.1292
 1121TIP3    H124854   5.666   0.429  15.150 -0.1160 -1.8116  0.5429
 1121TIP3    H224855   5.766   0.326  15.199  1.7694 -0.7174 -0.9340
 1122TIP3   OH224856   5.527   1.396  10.458  0.0852  0.2837  0.0943
 1122TIP3    H124857   5.540   1.442  10.375  0.5021 -0.8749 -0.4903
 1122TIP3    H224858   5.432   1.395  10.470 -0.0135  0.0218 -0.6352
 1123TIP3   OH224859   6.009   0.371  10.387  0.2721  0.1433 -1.2536
 1123TIP3    H124860   6.067   0.397  10.315  0.1186  0.4608 -1.2636
 1123TIP3    H224861   6.063   0.314  10.441  1.7269  3.1267  0.5822
 1124TIP3   OH224862   4.507   7.110   9.671 -0.1560  0.3171  0.6197
 1124TIP3    H124863   4.427   7.148   9.709  1.4829  2.2676  2.2679
 1124TIP3    H224864   4.497   7.122   9.577 -2.4147 -0.7363  0.6973
 1125TIP3   OH224865   7.065   2.024  11.264 -0.2207  0.3922  0.2376
 1125TIP3    H124866   7.073   1.940  11.218  0.9837  1.7666 -2.1736
 1125TIP3    H224867   7.046   2.000  11.355  0.6958 -2.4963 -0.2830
 1126TIP3   OH224868   3.511   0.379  11.744 -0.7448 -0.1794  0.8407
 1126TIP3    H124869   3.420   0.410  11.747 -0.3206  1.1015  0.5579
 1126TIP3    H224870   3.559   0.440  11.801 -0.3585 -1.8965  2.4189
 1127TIP3   OH224871   2.909   2.300  13.915 -0.5366 -0.2391  0.1758
 1127TIP3    H124872   2.923   2.206  13.924 -1.7817 -0.6017 -1.3841
 1127TIP3    H224873   2.972   2.340  13.975  1.3513 -2.0131 -0.5757
 1128TIP3   OH224874   5.509   0.799  10.778  0.3635  0.0488  0.0654
 1128TIP3    H124875   5.536   0.890  10.793  0.9687 -0.1159  0.0178
 1128TIP3    H224876   5.467   0.772  10.859 -0.5180  0.6161 -0.1936
 1129TIP3   OH224877   1.893   1.705  10.874  0.5855 -0.3716 -0.0457
 1129TIP3    H124878   1.891   1.678  10.782 -0.0183  1.5961 -0.6438
 1129TIP3    H224879   1.920   1.797  10.871 -0.9969  0.1813  1.6135
 1130TIP3   OH224880   7.006   7.061  10.952  0.4322  0.3248 -0.0747
 1130TIP3    H124881   7.004   6.999  10.880  1.4293 -0.6484  0.7311
 1130TIP3    H224882   7.098   7.083  10.963  0.0823  2.1078 -0.4752
 1131TIP3   OH224883   6.654   0.788  12.290 -0.5062  0.0749 -0.1541
 1131TIP3    H124884   6.723   0.748  12.236  0.7276  2.2762 -0.2658
 1131TIP3    H224885   6.617   0.857  12.235  0.1535  1.7615  1.4496
 1132TIP3   OH224886   5.079   3.788  11.112  0.3226  0.2988  0.6831
 1132TIP3    H124887   5.060   3.859  11.051  0.4332 -2.1346 -2.3107
 1132TIP3    H224888   5.175   3.786  11.118  0.2912  1.0526  1.6304
 1133TIP3   OH224889   1.742   0.485  11.176  0.4653 -0.2181 -0.4064
 1133TIP3    H124890   1.824   0.464  11.221  0.0581 -0.2219  0.3325
 1133TIP3    H224891   1.732   0.416  11.111  0.6462 -0.6613  0.0314
 1134TIP3   OH224892   5.081   0.081  12.100 -0.0291 -0.3100  0.7030
 1134TIP3    H124893   5.055   0.061  12.190  1.1695  2.4889  1.7351
 1134TIP3    H224894   5.023   0.152  12.073  0.6167 -0.1055 -0.1826
 1135TIP3   OH224895   1.977   1.875  10.344 -0.2710  0.7419  0.2911
 1135TIP3    H124896   1.885   1.894  10.329 -0.3519 -0.0543 -0.2305
 1135TIP3    H224897   2.002   1.818  10.271  0.3069 -0.0706  1.1160
 1136TIP3   OH224898   6.810   0.311  11.575 -0.4642 -0.2459 -0.2015
 1136TIP3    H124899   6.720   0.340  11.561 -0.9403 -1.2570  0.6578
 1136TIP3    H224900   6.860   0.392  11.584 -1.5405  0.3364  0.7879
 1137TIP3   OH224901   4.867   0.627  11.642 -0.3626  0.3448  0.5128
 1137TIP3    H124902   4.962   0.638  11.651 -0.3035  0.1592  0.1571
 1137TIP3    H224903   4.850   0.541  11.681 -0.3779  0.3640  0.5486
 1138TIP3   OH224904   0.180   1.333  10.926 -0.1509  0.0243  0.1121
 1138TIP3    H124905   0.147   1.422  10.939  0.5233  0.4313 -0.8700
 1138TIP3    H224906   0.253   1.344  10.866 -0.9821 -1.3748 -1.1778
 1139TIP3   OH224907   1.168   0.345  11.524 -0.3137  0.3454 -0.4133
 1139TIP3    H124908   1.261   0.352  11.504  0.0931  0.6983  1.5316
 1139TIP3    H224909   1.129   0.421  11.481  0.2886  0.1856 -1.2573
 1140TIP3   OH224910   6.717   5.099  12.005  0.0927  0.2574 -0.1777
 1140TIP3    H124911   6.769   5.019  12.002  0.6481  0.4940  2.3061
 1140TIP3    H224912   6.757   5.156  11.939  0.3472 -1.0996 -1.2158
 1141TIP3   OH224913   4.502   6.073  11.709 -0.1844 -0.0827 -0.2647
 1141TIP3    H124914   4.487   6.067  11.803 -3.2033  0.1808 -0.6622
 1141TIP3    H224915   4.432   6.021  11.670  1.0861 -0.2754 -2.3778
 1142TIP3   OH224916   0.636   7.077  13.626 -0.1785  0.0305  0.3249
 1142TIP3    H124917   0.570   7.098  13.560  0.8588  2.1541 -0.0851
 1142TIP3    H224918   0.600   7.109  13.708  0.2064  0.9260  0.1474
 1143TIP3   OH224919   5.957   6.359  11.972 -0.4568  0.3241 -0.4417
 1143TIP3    H124920   5.907   6.409  11.907 -2.6249 -1.4227 -0.1625
 1143TIP3    H224921   6.027   6.419  11.999 -2.0950  2.6551 -1.2080
 1144TIP3   OH224922   0.299   7.191  10.120  0.3261 -0.2095  0.0792
 1144TIP3    H124923   0.207   7.219  10.128  0.3895 -0.1131  0.5072
 1144TIP3    H224924   0.295   7.095  10.121  0.2861 -0.2080  0.8745
 1145TIP3   OH224925   4.389   1.726  11.758  0.2680  0.8603  0.4219
 1145TIP3    H124926   4.447   1.743  11.684 -1.3768 -2.6069 -1.7538
 1145TIP3    H224927   4.424   1.647  11.799 -2.3171 -0.7532 -0.3761
 1146TIP3   OH224928   3.517   6.116  10.661 -0.3167 -0.4113  0.5806
 1146TIP3    H124929   3.476   6.166  10.732 -0.9023  1.1046 -0.8208
 1146TIP3    H224930   3.445   6.089  10.606  0.3719  0.6938 -0.8915
 1147TIP3   OH224931   5.904   7.298  10.460  0.2315  0.0606 -0.1397
 1147TIP3    H124932   5.993   7.290  10.492  0.1296  1.2001  0.4355
 1147TIP3    H224933   5.913   7.317  10.367  0.5781 -0.0512 -0.1289
 1148TIP3   OH224934   1.399   6.931  11.756  0.2357 -0.5943 -0.5091
 1148TIP3    H124935   1.385   6.916  11.663 -0.1392 -2.2940 -0.1799
 1148TIP3    H224936   1.398   7.027  11.765 -0.2064 -0.4347 -2.1584
 1149TIP3   OH224937   5.707   1.126  10.048 -0.7132  0.1616 -0.1766
 1149TIP3    H124938   5.665   1.058   9.995  0.8996 -0.7367 -0.3484
 1149TIP3    H224939   5.714   1.201   9.990 -1.7795  0.2191 -0.2397
 1150TIP3   OH224940   6.413   6.268  10.420 -0.3385 -0.3449  0.2492
 1150TIP3    H124941   6.480   6.260  10.352  0.5153 -0.2832  1.0751
 1150TIP3    H224942   6.418   6.186  10.469 -2.8022 -1.5492 -1.4035
 1151TIP3   OH224943   6.801   7.283  11.740 -0.0188 -0.2420  0.0969
 1151TIP3    H124944   6.721   7.282  11.793 -1.0210 -2.9909 -1.3888
 1151TIP3    H224945   6.769   7.283  11.650  1.6793  1.5785 -0.5230
 1152TIP3   OH224946   3.244   2.141  11.698  0.1363 -0.0294  0.1112
 1152TIP3    H124947   3.191   2.195  11.640 -2.9761 -0.3512  2.4931
 1152TIP3    H224948   3.211   2.052  11.684  0.5174 -0.3402  1.1406
 1153TIP3   OH224949   0.968   2.680  11.877 -0.4162 -0.1024  0.3721
 1153TIP3    H124950   1.014   2.599  11.902 -0.6194 -0.2187  0.3641
 1153TIP3    H224951   0.875   2.659  11.885 -0.4942 -0.2120 -0.6597
 1154TIP3   OH224952   3.622   3.594  13.312  0.2491 -0.3312 -0.4561
 1154TIP3    H124953   3.686   3.636  13.370 -0.4801 -0.8319  0.7390
 1154TIP3    H224954   3.673   3.567  13.236  1.2989  0.0424  0.0967
 1155TIP3   OH224955   6.610   3.056  10.926 -0.6756 -0.4775  0.1767
 1155TIP3    H124956   6.569   3.081  11.009 -0.2322 -0.3948  0.3765
 1155TIP3    H224957   6.652   3.136  10.895 -5.3044  0.9716 -2.8704
 1156TIP3   OH224958   7.102   2.814  10.282 -1.0392 -0.5134  0.5055
 1156TIP3    H124959   7.054   2.868  10.219 -2.0528  0.1961  1.8759
 1156TIP3    H224960   7.133   2.875  10.348 -3.3329 -1.7225  2.7821
 1157TIP3   OH224961   1.027   3.536  11.830  0.3700  0.4876  0.4140
 1157TIP3    H124962   1.092   3.604  11.818  1.7690 -0.6604  1.3115
 1157TIP3    H224963   1.041   3.504  11.919  2.2454 -3.4762 -1.1545
 1158TIP3   OH224964   1.978   2.915  10.122 -0.1197  0.2255  0.6041
 1158TIP3    H124965   1.939   2.976  10.185 -1.2380  1.2449 -1.0393
 1158TIP3    H224966   2.069   2.943  10.115  0.1166 -0.1402  2.0481
 1159TIP3   OH224967   2.458   3.272  10.955  0.1844 -0.1409  0.2928
 1159TIP3    H124968   2.368   3.243  10.936  0.3067  0.0297 -0.5539
 1159TIP3    H224969   2.513   3.213  10.904  0.4425  1.5149 -1.4005
 1160TIP3   OH224970   1.529   0.773  11.962  0.3401  0.2050  0.3401
 1160TIP3    H124971   1.562   0.725  11.886 -0.0197  0.0443  0.2839
 1160TIP3    H224972   1.607   0.792  12.015  0.4181 -0.9615  0.6638
 1161TIP3   OH224973   0.073   3.897  11.734 -1.0832  0.0512 -0.2495
 1161TIP3    H124974   0.045   3.894  11.826 -0.8245  1.3879 -0.1293
 1161TIP3    H224975   0.046   3.812  11.699 -0.4471 -0.8001  1.2731
 1162TIP3   OH224976   0.706   0.756  11.211 -0.0044 -0.5339  0.2981
 1162TIP3    H124977   0.706   0.737  11.304 -0.3014 -3.6557 -0.2916
 1162TIP3    H224978   0.614   0.774  11.190  0.1057  0.4682  0.6342
 1163TIP3   OH224979   0.893   7.145  12.432 -0.5134  0.6434 -0.6191
 1163TIP3    H124980   0.964   7.086  12.408 -0.0113  1.0552 -0.1528
 1163TIP3    H224981   0.850   7.167  12.349 -2.1960 -2.2535 -0.5593
 1164TIP3   OH224982   0.634   0.524  11.762  0.1999 -0.1401  0.0445
 1164TIP3    H124983   0.671   0.438  11.780  1.4453  0.1700 -0.9295
 1164TIP3    H224984   0.688   0.585  11.812  1.2157  0.3397 -1.5811
 1165TIP3   OH224985   1.704   2.290  10.972  0.4061  0.0119 -0.0225
 1165TIP3    H124986   1.668   2.243  11.047 -0.0141 -0.5002 -0.5331
 1165TIP3    H224987   1.637   2.355  10.951  0.4131 -0.0023 -0.0910
 1166TIP3   OH224988   3.074   3.077  10.447  0.1370 -0.4783  0.3364
 1166TIP3    H124989   3.061   3.139  10.519 -0.5603  1.9812 -1.8291
 1166TIP3    H224990   2.999   3.091  10.390  0.7687 -2.2778 -0.9700
 1167TIP3   OH224991   1.097   2.001  10.623  0.3900  0.5401  0.3847
 1167TIP3    H124992   1.084   1.921  10.574 -0.1844  1.0430 -0.2995
 1167TIP3    H224993   1.147   2.058  10.564  0.0987  0.9768  0.5528
 1168TIP3   OH224994   6.702   3.562  12.852 -0.9094 -0.3385  0.9050
 1168TIP3    H124995   6.637   3.506  12.809  0.4865  0.2121 -2.0603
 1168TIP3    H224996   6.653   3.640  12.879 -1.6160 -0.1597 -0.8344
 1169TIP3   OH224997   2.131   2.050  11.549 -0.0397  1.1611  0.3070
 1169TIP3    H124998   2.165   2.102  11.622  0.0884  0.8071  0.5028
 1169TIP3    H224999   2.111   2.114  11.481  0.6688  1.4171  0.3315
 1170TIP3   OH225000   1.176   3.374  10.254 -0.1974  0.0447 -0.1669
 1170TIP3    H125001   1.233   3.315  10.206  0.7535  0.8646 -0.0712
 1170TIP3    H225002   1.228   3.453  10.266 -0.5494 -0.0145  1.9183
 1171TIP3   OH225003   6.662   2.126  11.065  0.2564  0.3322  0.2542
 1171TIP3    H125004   6.727   2.162  11.004  0.6371 -0.9160 -0.0935
 1171TIP3    H225005   6.673   2.031  11.058  0.9393  0.1573  2.9352
 1172TIP3   OH225006   1.105   4.043  10.731 -0.1599 -0.7272  0.5947
 1172TIP3    H125007   1.194   4.034  10.697  0.1047  3.0884  0.0201
 1172TIP3    H225008   1.116   4.087  10.815 -1.4759 -0.5948  0.7091
 1173TIP3   OH225009   1.081   3.249  10.490  0.0527 -0.4635  0.4539
 1173TIP3    H125010   1.100   3.306  10.416 -1.1422 -0.1934  0.3570
 1173TIP3    H225011   1.130   3.169  10.471  2.1199  0.6676  0.8225
 1174TIP3   OH225012   4.113   3.792  10.781 -0.0322  0.4119 -0.2291
 1174TIP3    H125013   4.177   3.721  10.789 -2.5460 -1.8801  0.1930
 1174TIP3    H225014   4.050   3.761  10.717 -2.0090  1.6201  1.0671
 1175TIP3   OH225015   1.550   0.166  10.834  0.2808  0.2032 -0.8725
 1175TIP3    H125016   1.461   0.165  10.799  0.1495 -0.9819 -0.5203
 1175TIP3    H225017   1.604   0.133  10.763  0.1474 -1.2044 -0.3260
 1176TIP3   OH225018   2.232   3.775  10.341 -0.9399  0.0655 -0.2829
 1176TIP3    H125019   2.229   3.680  10.335 -0.5253 -0.0709  1.4288
 1176TIP3    H225020   2.253   3.804  10.252 -1.6243 -1.4074 -0.9370
 1177TIP3   OH225021   7.057   3.033  11.080  0.2027 -0.6805  0.6171
 1177TIP3    H125022   7.146   3.005  11.057  1.1866  2.3026  0.6186
 1177TIP3    H225023   7.045   3.116  11.034 -3.2587 -1.8534 -0.7971
 1178TIP3   OH225024   0.714   3.904  10.134  0.8497 -0.1656 -0.7745
 1178TIP3    H125025   0.659   3.974  10.169  1.7326  0.2029 -0.1161
 1178TIP3    H225026   0.654   3.830  10.122  0.2738  0.1402  0.2038
 1179TIP3   OH225027   4.588   3.505  12.229  0.3683 -0.0061 -0.2344
 1179TIP3    H125028   4.622   3.415  12.233 -1.3331 -0.6021  1.4629
 1179TIP3    H225029   4.666   3.560  12.241  1.0397 -1.3274  1.7470
 1180TIP3   OH225030   0.994   3.400  10.717 -0.1523  0.1352 -0.0820
 1180TIP3    H125031   0.962   3.479  10.673 -0.0529 -0.2238 -0.7983
 1180TIP3    H225032   1.039   3.350  10.649 -0.4187 -0.6604  0.3164
 1181TIP3   OH225033   2.227   2.744  11.931  0.4965  0.7725  0.5539
 1181TIP3    H125034   2.217   2.672  11.869  0.9001  2.0941 -1.0780
 1181TIP3    H225035   2.155   2.733  11.993  0.1658 -0.6302 -0.0659
 1182TIP3   OH225036   6.626   3.934  10.915  0.6682  0.1580  0.1789
 1182TIP3    H125037   6.692   3.947  10.847  2.5635 -1.6189  1.6032
 1182TIP3    H225038   6.656   3.988  10.988 -0.0930  0.2519  0.4267
 1183TIP3   OH225039   7.207   3.262  11.375 -0.2921  0.3298  0.3921
 1183TIP3    H125040   7.183   3.288  11.464 -0.7003  0.1253  0.3468
 1183TIP3    H225041   7.125   3.231  11.337 -0.0199 -0.0382  0.1044
 1184TIP3   OH225042   0.854   2.357  10.064  0.9951 -0.1315  0.0089
 1184TIP3    H125043   0.839   2.383  10.155  2.2579  1.2647 -0.1609
 1184TIP3    H225044   0.949   2.364  10.052  0.7088  1.1910 -1.8175
 1185TIP3   OH225045   7.292   4.445  10.668  0.2117  0.1336  0.2541
 1185TIP3    H125046   7.237   4.425  10.743 -0.1217 -0.1254 -0.0594
 1185TIP3    H225047   7.237   4.427  10.592  1.0053 -0.9094 -0.0723
 1186TIP3   OH225048   7.065   4.403  10.872 -0.4322  0.5758 -0.4531
 1186TIP3    H125049   7.102   4.344  10.938 -0.9256  0.2793 -0.4324
 1186TIP3    H225050   7.124   4.478  10.870  0.2958  0.0011 -0.5942
 1187TIP3   OH225051   0.513   3.624  10.464  0.4357 -0.0341  0.1384
 1187TIP3    H125052   0.578   3.617  10.394  0.4130 -0.4663  0.1612
 1187TIP3    H225053   0.439   3.669  10.423 -0.2784 -1.8552 -0.6121
 1188TIP3   OH225054   1.512   2.764  10.707 -0.1250 -0.3114  0.2101
 1188TIP3    H125055   1.556   2.803  10.631  1.7395 -0.5065  1.1585
 1188TIP3    H225056   1.583   2.744  10.768 -1.3978 -1.9897  1.1882
 1189TIP3   OH225057   2.001   2.322  12.453 -0.4980 -0.1285 -0.6435
 1189TIP3    H125058   1.932   2.388  12.462  0.1958  0.3275  1.6310
 1189TIP3    H225059   2.080   2.371  12.432 -0.4015 -0.4338 -1.0058
 1190TIP3   OH225060   0.043   1.872  11.460 -0.0728  0.0797 -0.4614
 1190TIP3    H125061   0.018   1.890  11.369  2.4020  0.2622 -1.1332
 1190TIP3    H225062   0.006   1.785  11.478 -1.0173  0.2615 -1.4635
 1191TIP3   OH225063   7.216   3.289   9.968  0.0147  0.3654  0.4279
 1191TIP3    H125064   7.264   3.255   9.893 -1.7090  1.3821 -1.1940
 1191TIP3    H225065   7.222   3.384   9.959  1.4906  0.5169  2.7206
 1192TIP3   OH225066   6.797   3.655  10.642  0.0973  0.2535 -0.6146
 1192TIP3    H125067   6.746   3.689  10.568 -1.8832 -1.8339 -0.2891
 1192TIP3    H225068   6.888   3.674  10.619 -0.5904  1.1245 -2.7974
 1193TIP3   OH225069   1.579   3.202  13.006 -0.5952 -0.0956 -0.4934
 1193TIP3    H125070   1.600   3.295  13.016  0.0593 -0.4334  1.5242
 1193TIP3    H225071   1.485   3.197  13.025 -0.0466 -0.2343  2.3722
 1194TIP3   OH225072   6.857   1.573  10.947  0.4871 -0.0210  0.2959
 1194TIP3    H125073   6.781   1.613  10.905 -0.0039 -0.0187  1.1829
 1194TIP3    H225074   6.894   1.515  10.880 -1.1655 -1.1577  0.3570
 1195TIP3   OH225075   0.469   4.729  11.491 -0.1586 -0.1906  0.0762
 1195TIP3    H125076   0.461   4.662  11.559  1.0613 -0.4244 -0.0034
 1195TIP3    H225077   0.441   4.685  11.411  0.1917 -0.4689  0.1037
 1196TIP3   OH225078   0.954   2.221  11.302  0.4274 -0.5148 -0.3417
 1196TIP3    H125079   0.938   2.305  11.259  0.7260 -0.6407 -0.7002
 1196TIP3    H225080   0.949   2.157  11.231  0.8399 -0.7302 -0.1753
 1197TIP3   OH225081   0.013   2.770  11.506  0.1796  0.0780 -0.3353
 1197TIP3    H125082  -0.030   2.793  11.424 -1.0761 -0.7083  0.0845
 1197TIP3    H225083   0.086   2.713  11.480 -1.0150 -1.2631 -0.8169
 1198TIP3   OH225084   0.931   4.127  10.287 -0.0485 -0.2175  0.1356
 1198TIP3    H125085   0.862   4.111  10.222 -0.9201 -1.8746  1.4323
 1198TIP3    H225086   0.923   4.054  10.348  1.3674  0.8414  1.6047
 1199TIP3   OH225087   1.475   2.920  10.963 -0.4565 -0.4698  0.5308
 1199TIP3    H125088   1.468   2.865  10.885 -0.2395 -0.9733  0.8586
 1199TIP3    H225089   1.519   2.999  10.933 -3.5936  0.9021 -0.6180
 1200TIP3   OH225090   1.287   0.063  10.296  0.1875 -0.0201 -0.4074
 1200TIP3    H125091   1.195   0.053  10.322  0.6092  1.3996  1.7665
 1200TIP3    H225092   1.318   0.139  10.346  2.7124 -0.8415 -0.6436
 1201TIP3   OH225093   1.097   4.117   9.965 -0.4529 -0.2081  0.5291
 1201TIP3    H125094   1.076   4.207   9.991 -1.2362 -0.9052  2.3280
 1201TIP3    H225095   1.190   4.107   9.986 -0.1190  0.4743 -0.5656
 1202TIP3   OH225096   7.023   1.604  10.303 -0.0932  0.1473 -0.5704
 1202TIP3    H125097   7.005   1.534  10.365  2.6280  0.7091  0.9087
 1202TIP3    H225098   7.107   1.580  10.263  0.6617  2.3444 -0.3525
 1203TIP3   OH225099   6.922   0.632  12.975 -0.0376 -0.0465 -0.2003
 1203TIP3    H125100   6.945   0.577  12.900 -0.3575 -0.7208  0.1868
 1203TIP3    H225101   6.896   0.716  12.937 -2.7327 -1.2121 -1.0489
 1204TIP3   OH225102   1.928   0.537  11.959  0.1775 -0.2308  0.0172
 1204TIP3    H125103   1.902   0.478  11.888 -1.9001 -0.8143  1.1998
 1204TIP3    H225104   1.957   0.478  12.029 -1.8066  0.1110  1.1645
 1205TIP3   OH225105   7.316   1.008  10.255  0.4452 -0.8224  0.6432
 1205TIP3    H125106   7.243   0.979  10.309 -0.7348  0.0507 -0.4431
 1205TIP3    H225107   7.328   0.938  10.191 -0.6850 -0.1178 -0.3513
 1206TIP3   OH225108   6.210   6.122  12.376 -0.3840  0.0312  0.2601
 1206TIP3    H125109   6.139   6.172  12.335  1.2234  2.4006  0.2242
 1206TIP3    H225110   6.169   6.077  12.450 -2.1256  0.5056 -0.3974
 1207TIP3   OH225111   0.000   3.673  10.894  0.6027  0.3137  0.5073
 1207TIP3    H125112  -0.002   3.687  10.800  0.3462  0.6748  0.5672
 1207TIP3    H225113   0.054   3.745  10.928 -0.1479  0.7718  0.7449
 1208TIP3   OH225114   1.412   2.046  10.389  0.3429  0.0011  0.1512
 1208TIP3    H125115   1.420   1.974  10.326 -1.6759 -1.0628  1.0422
 1208TIP3    H225116   1.449   2.122  10.345  0.0712 -0.9980 -1.8495
 1209TIP3   OH225117   7.263   2.545  11.899 -0.3272 -0.1213 -0.3372
 1209TIP3    H125118   7.278   2.638  11.883  0.7753  0.0708  1.7445
 1209TIP3    H225119   7.307   2.501  11.827  1.2127  0.8767 -0.0143
 1210TIP3   OH225120   0.596   1.618  11.293 -0.5742 -0.0325  0.2557
 1210TIP3    H125121   0.691   1.629  11.289 -0.7541  1.3641 -0.3289
 1210TIP3    H225122   0.561   1.706  11.303 -1.8471 -0.4691 -0.1410
 1211TIP3   OH225123   1.123   1.561  11.062  0.0271 -0.1491 -0.0278
 1211TIP3    H125124   1.218   1.572  11.068  0.0629 -0.2276 -0.4697
 1211TIP3    H225125   1.111   1.472  11.029 -0.2285 -0.7555  1.6198
 1212TIP3   OH225126   6.314   3.546  11.294  0.2596  0.1292  0.1348
 1212TIP3    H125127   6.298   3.452  11.305 -1.4251  0.4681  0.6769
 1212TIP3    H225128   6.328   3.557  11.200  1.5653 -0.8154  0.2026
 1213TIP3   OH225129   1.717   3.509  10.797 -0.3510  0.4405 -0.3452
 1213TIP3    H125130   1.717   3.508  10.701  0.5972  1.5183 -0.3685
 1213TIP3    H225131   1.771   3.584  10.820 -1.0575  0.5411  1.0410
 1214TIP3   OH225132   0.287   2.052  11.146 -0.2698  0.1944  0.4133
 1214TIP3    H125133   0.271   2.119  11.079 -0.7422  0.3706  0.6918
 1214TIP3    H225134   0.380   2.031  11.138  0.5212  2.7751  2.0287
 1215TIP3   OH225135   7.227   2.239  10.425 -0.3417 -0.5292  0.4860
 1215TIP3    H125136   7.279   2.160  10.438 -1.1623 -0.8773  1.7602
 1215TIP3    H225137   7.249   2.268  10.336 -1.4461 -3.2660 -0.7487
 1216TIP3   OH225138   0.354   2.269  10.295  0.2989  0.2922 -0.5630
 1216TIP3    H125139   0.448   2.285  10.288  0.2949  1.2042  1.1436
 1216TIP3    H225140   0.320   2.287  10.207  1.8952 -1.4317 -1.5569
 1217TIP3   OH225141   0.827   0.747  10.031  0.3903 -0.1570  0.4040
 1217TIP3    H125142   0.877   0.678  10.074  0.8072 -0.3502 -0.3639
 1217TIP3    H225143   0.827   0.722   9.938  0.5954  0.8956  0.1110
 1218TIP3   OH225144   0.777   2.968  12.136  0.2037 -0.6273  0.1868
 1218TIP3    H125145   0.839   2.998  12.070  0.4635 -0.5883  0.4480
 1218TIP3    H225146   0.831   2.937  12.208 -0.0759 -0.8705  0.2949
 1219TIP3   OH225147   2.233   1.984  12.217  0.2796  0.6201 -0.0756
 1219TIP3    H125148   2.209   1.982  12.124  1.6717  0.2787 -0.4459
 1219TIP3    H225149   2.158   2.024  12.261 -1.0464 -0.6448 -1.1393
 1220TIP3   OH225150   3.298   3.123  12.041 -0.0960  0.0695 -0.2866
 1220TIP3    H125151   3.379   3.137  11.991 -0.1160  1.4246  0.0454
 1220TIP3    H225152   3.264   3.040  12.008  0.9568 -0.0562 -1.0851
 1221TIP3   OH225153   0.813   0.672  12.003  0.2732  0.1067 -0.1893
 1221TIP3    H125154   0.882   0.735  11.984 -0.9958  1.3443 -0.7877
 1221TIP3    H225155   0.831   0.643  12.093  0.3363  2.0350  0.4467
 1222TIP3   OH225156   0.611   2.862  11.695 -0.0042  0.0385 -0.2146
 1222TIP3    H125157   0.529   2.905  11.673  0.7805  1.3167 -0.6839
 1222TIP3    H225158   0.615   2.865  11.790 -1.4448 -1.8439 -0.0526
 1223TIP3   OH225159   1.687   3.528  10.505  0.1540  0.5630  0.4105
 1223TIP3    H125160   1.618   3.592  10.492  0.0661  0.3280 -0.3061
 1223TIP3    H225161   1.740   3.533  10.426 -1.3237 -2.0390 -0.8005
 1224TIP3   OH225162   1.063   2.136  11.559 -0.2349  0.8438  0.6696
 1224TIP3    H125163   0.969   2.124  11.573 -0.5304  0.5693 -1.2690
 1224TIP3    H225164   1.068   2.210  11.498  0.8548  1.4322  1.4695
 1225TIP3   OH225165   6.408   0.366  11.754  0.3872  0.2769  0.5067
 1225TIP3    H125166   6.355   0.432  11.798  0.8540 -0.0008  1.5113
 1225TIP3    H225167   6.493   0.369  11.799  0.4376 -0.9424  0.5323
 1226TIP3   OH225168   0.621   2.146  12.277 -0.5781 -0.1092 -0.0906
 1226TIP3    H125169   0.708   2.107  12.272 -0.9907 -0.8372 -2.0587
 1226TIP3    H225170   0.560   2.073  12.268 -1.3703  0.6785 -1.3508
 1227TIP3   OH225171   1.438   4.924  12.408  0.7541 -0.1186  0.4282
 1227TIP3    H125172   1.421   4.865  12.482  0.0887  0.2145  0.5424
 1227TIP3    H225173   1.399   4.881  12.333 -0.7708  0.7224  0.7192
 1228TIP3   OH225174   1.861   3.442  11.223 -0.0379 -0.6964  0.7387
 1228TIP3    H125175   1.852   3.537  11.224  1.2284 -0.4400 -3.1114
 1228TIP3    H225176   1.776   3.411  11.191 -0.4533 -0.9081  1.9995
 1229TIP3   OH225177   0.632   4.147  10.246 -0.0496  0.2430  0.2783
 1229TIP3    H125178   0.585   4.125  10.326 -2.6252 -0.2386 -1.3224
 1229TIP3    H225179   0.571   4.201  10.196  0.6273 -1.3359 -2.3550
 1230TIP3   OH225180   0.891   3.716  10.257 -0.2130  0.1220  0.0107
 1230TIP3    H125181   0.859   3.781  10.194 -3.2987  0.1852  1.5446
 1230TIP3    H225182   0.933   3.768  10.326 -0.7266  0.3440  0.1560
 1231TIP3   OH225183   6.779   5.362  10.140  0.6114 -0.4085  0.6073
 1231TIP3    H125184   6.736   5.421  10.079  0.1810  0.5690  1.8299
 1231TIP3    H225185   6.730   5.280  10.134  1.2002 -0.6514 -1.0850
 1232TIP3   OH225186   1.545   1.341  11.507 -0.1592 -0.0321 -0.1152
 1232TIP3    H125187   1.595   1.267  11.472 -2.5215 -1.5728 -0.3646
 1232TIP3    H225188   1.576   1.352  11.597  3.7945  1.9837 -1.5872
 1233TIP3   OH225189   3.021   0.737  11.932 -0.1251  0.5049 -0.0016
 1233TIP3    H125190   3.099   0.693  11.964  0.8020  1.7070 -0.5658
 1233TIP3    H225191   3.048   0.778  11.850 -1.1911  1.3599  0.0579
 1234TIP3   OH225192   2.849   1.719  11.764 -0.5517 -0.0260  0.3959
 1234TIP3    H125193   2.865   1.712  11.670  0.4587  0.4786  0.5263
 1234TIP3    H225194   2.861   1.812  11.784  0.1976 -0.2852  1.1856
 1235TIP3   OH225195   1.896   3.094  11.130  0.1118  0.1036  0.2263
 1235TIP3    H125196   1.853   3.179  11.138 -0.6267 -0.4022  1.9186
 1235TIP3    H225197   1.924   3.090  11.039 -0.0542  2.0546  0.0660
 1236TIP3   OH225198   0.622   2.250  10.328 -0.0089  0.3482  0.0669
 1236TIP3    H125199   0.708   2.292  10.331 -0.2972  1.0288 -1.1021
 1236TIP3    H225200   0.638   2.161  10.361  1.1697  0.4137 -0.3109
 1237TIP3   OH225201   2.100   2.594  11.381 -0.1789  0.4787 -0.2058
 1237TIP3    H125202   2.188   2.625  11.399 -0.3448  0.3651  0.7997
 1237TIP3    H225203   2.044   2.671  11.394 -0.3249  0.3418 -0.0305
 1238TIP3   OH225204   0.348   2.535   9.606 -0.3829 -0.5830 -0.0218
 1238TIP3    H125205   0.387   2.619   9.581 -0.4830 -0.4958  0.1132
 1238TIP3    H225206   0.258   2.541   9.574 -0.4820 -0.5113  0.2688
 1239TIP3   OH225207   1.252   0.702  11.156 -0.0076 -0.0410  0.2850
 1239TIP3    H125208   1.228   0.743  11.073  0.3671 -0.8766 -0.2543
 1239TIP3    H225209   1.258   0.774  11.218  0.6916  0.7279 -0.6480
 1240TIP3   OH225210   1.365   3.398  11.442  0.2458 -0.7025  0.9155
 1240TIP3    H125211   1.350   3.493  11.437 -0.6519 -0.8236  1.3164
 1240TIP3    H225212   1.286   3.363  11.481  0.3813 -1.6842  0.3181
 1241TIP3   OH225213   5.411   4.933  11.984  0.5210 -0.0606  0.1233
 1241TIP3    H125214   5.331   4.979  12.009 -1.1994 -2.4207 -0.8683
 1241TIP3    H225215   5.440   4.976  11.904 -0.7312 -0.3179 -0.4700
 1242TIP3   OH225216   1.891   2.172  11.983  0.6035  0.1511 -0.3318
 1242TIP3    H125217   1.905   2.150  12.075 -2.0147 -0.6340 -0.0670
 1242TIP3    H225218   1.929   2.259  11.972  0.4100  0.5088  1.6502
 1243TIP3   OH225219   7.189   3.570   9.961  0.4707  0.1836  0.0678
 1243TIP3    H125220   7.199   3.596  10.052 -0.9167  1.0767 -0.0232
 1243TIP3    H225221   7.273   3.592   9.920  1.4286 -1.0782  1.3124
 1244TIP3   OH225222   0.946   3.177   9.665  0.6644 -0.4178 -0.3462
 1244TIP3    H125223   0.955   3.180   9.760 -1.2661  0.4499 -0.1659
 1244TIP3    H225224   1.035   3.169   9.633  1.4414  0.5266  1.5030
 1245TIP3   OH225225   0.906   1.449  11.207 -0.4776  0.0193  0.7605
 1245TIP3    H125226   1.000   1.450  11.190 -0.5950 -0.1588  0.1117
 1245TIP3    H225227   0.892   1.526  11.263 -0.1175  0.6733 -0.0395
 1246TIP3   OH225228   2.231   1.887  10.917  0.5164 -0.5056 -0.3795
 1246TIP3    H125229   2.209   1.828  10.845  0.1125 -0.3022 -0.4252
 1246TIP3    H225230   2.211   1.975  10.883  0.8654 -0.3674 -0.2229
 1247TIP3   OH225231   2.739   3.594  10.791  0.4924  0.6792  0.2089
 1247TIP3    H125232   2.821   3.550  10.811  2.0060  3.0862 -0.5658
 1247TIP3    H225233   2.722   3.572  10.699  0.7971  1.0314  0.0711
 1248TIP3   OH225234   1.721   2.180  10.662  0.4169 -0.0573  0.5668
 1248TIP3    H125235   1.817   2.187  10.664  0.4895 -0.4559 -0.8706
 1248TIP3    H225236   1.690   2.269  10.676  0.9972  0.0943  0.9320
 1249TIP3   OH225237   2.034   1.908   9.923 -0.2476  0.1898  0.1007
 1249TIP3    H125238   2.073   1.826   9.955 -0.1827  0.2870  0.2728
 1249TIP3    H225239   2.063   1.915   9.832  0.8621  0.7034  0.4820
 1250TIP3   OH225240   1.617   2.065   9.670 -0.2553 -0.1160 -0.9737
 1250TIP3    H125241   1.543   2.122   9.650 -0.4022  0.6946  1.7346
 1250TIP3    H225242   1.577   1.981   9.691 -0.3111 -0.0444 -0.7951
 1251TIP3   OH225243   1.446   2.665  11.432 -0.0909  0.0561  0.0368
 1251TIP3    H125244   1.364   2.640  11.475  0.7277 -1.1653  0.9096
 1251TIP3    H225245   1.453   2.605  11.358  0.0897  0.0658  0.0460
 1252TIP3   OH225246   1.492   0.366  11.516  0.1537 -0.1883  0.0225
 1252TIP3    H125247   1.537   0.450  11.515 -0.2470  0.0522  1.1674
 1252TIP3    H225248   1.562   0.301  11.519  0.4675  0.2380  4.2330
 1253TIP3   OH225249   0.745   0.694  13.598  0.1871  0.2856  0.5078
 1253TIP3    H125250   0.742   0.622  13.536 -0.3044  0.5254  0.2472
 1253TIP3    H225251   0.666   0.684  13.651 -0.0447  0.8036  0.2689
 1254TIP3   OH225252   6.378   3.823  10.866  0.1474  0.7030 -0.0579
 1254TIP3    H125253   6.412   3.781  10.787 -0.4217 -0.9109  0.5424
 1254TIP3    H225254   6.452   3.873  10.900  1.4144 -1.3202  0.2472
 1255TIP3   OH225255   1.326   1.219  10.341  0.3343  0.1386  0.3319
 1255TIP3    H125256   1.415   1.212  10.376  0.4768 -0.1456 -0.0736
 1255TIP3    H225257   1.283   1.285  10.396  0.3160 -0.8380  1.4994
 1256TIP3   OH225258   6.658   1.612  12.222 -0.0625 -0.2241  0.2105
 1256TIP3    H125259   6.739   1.613  12.171 -0.4986 -2.2452 -0.5275
 1256TIP3    H225260   6.598   1.667  12.172  1.0606  2.0062  1.1901
 1257TIP3   OH225261   7.339   3.926  11.303  0.5944  0.2592  0.4246
 1257TIP3    H125262   7.312   3.965  11.386 -1.4666  0.2534 -0.2242
 1257TIP3    H225263   7.367   3.838  11.325 -0.5827  0.0340  1.0254
 1258TIP3   OH225264   1.304   2.030  12.250 -0.7162  0.2389 -0.4278
 1258TIP3    H125265   1.269   2.031  12.161  1.7166 -0.1846 -1.4214
 1258TIP3    H225266   1.334   2.119  12.265 -0.3453  0.1045 -0.3644
 1259TIP3   OH225267   0.444   1.109  10.487 -0.4531 -0.1617  0.2692
 1259TIP3    H125268   0.385   1.070  10.552 -0.7846 -0.0199  0.0574
 1259TIP3    H225269   0.386   1.158  10.429  0.0247  1.2031  0.9197
 1260TIP3   OH225270   0.603   1.403  11.813 -0.0665 -0.4887  0.0625
 1260TIP3    H125271   0.697   1.400  11.830 -0.0655  0.6465  0.2703
 1260TIP3    H225272   0.595   1.415  11.719 -0.0051 -0.4128  0.0680
 1261TIP3   OH225273   0.147   3.604  11.661 -0.0935 -0.2580 -0.3115
 1261TIP3    H125274   0.052   3.600  11.667 -0.3279 -0.0513 -3.0882
 1261TIP3    H225275   0.173   3.514  11.638  0.2448 -0.0279 -0.8468
 1262TIP3   OH225276   0.647   4.532   9.949 -0.3466 -0.4047  0.0947
 1262TIP3    H125277   0.665   4.438   9.949  0.0968 -0.3359 -1.5547
 1262TIP3    H225278   0.702   4.567   9.879 -2.6637  0.6560 -1.2521
 1263TIP3   OH225279   6.606   1.823  11.161 -0.1571 -0.3963  0.1320
 1263TIP3    H125280   6.538   1.787  11.218 -0.7814  1.9372  0.9343
 1263TIP3    H225281   6.689   1.797  11.202 -0.5665 -2.0690 -0.0854
 1264TIP3   OH225282   6.718   0.353  10.478  0.4203  0.2134  0.5817
 1264TIP3    H125283   6.769   0.275  10.501 -1.5050 -0.7397  1.7845
 1264TIP3    H225284   6.629   0.320  10.465 -0.3055  2.1357  0.5454
 1265TIP3   OH225285   0.397   2.325   9.772 -0.7731  0.0701  0.0233
 1265TIP3    H125286   0.319   2.284   9.809 -0.2398  0.1993  1.3472
 1265TIP3    H225287   0.364   2.399   9.721 -1.4426  1.4833  2.3943
 1266TIP3   OH225288   0.327   0.947  10.000  0.3159 -0.0848 -0.2306
 1266TIP3    H125289   0.410   0.901   9.992  0.8086  0.4999  1.2753
 1266TIP3    H225290   0.327   1.010   9.929  1.7212  0.7356  0.4735
 1267TIP3   OH225291   7.018   1.849  14.148 -0.0498  0.8111  0.3355
 1267TIP3    H125292   7.025   1.904  14.227 -1.9077 -1.5003  2.2149
 1267TIP3    H225293   7.092   1.789  14.154 -1.2200 -0.5761  1.3690
 1268TIP3   OH225294   5.906   0.236  11.720  0.3315 -0.5252 -0.4867
 1268TIP3    H125295   5.989   0.201  11.753  0.8738  0.7602 -0.4614
 1268TIP3    H225296   5.841   0.205  11.783  0.8332 -1.2364 -0.2996
 1269TIP3   OH225297   6.775   2.347  10.305  0.7287 -0.0277 -0.0093
 1269TIP3    H125298   6.807   2.401  10.376  0.3528 -0.4050  0.4518
 1269TIP3    H225299   6.820   2.380  10.227  1.4465  0.1162  0.4659
 1270TIP3   OH225300   2.570   3.252  13.140  0.4304  0.2077 -0.6976
 1270TIP3    H125301   2.541   3.268  13.230  1.3117  0.5234 -0.4585
 1270TIP3    H225302   2.550   3.334  13.094  0.7180  0.3423 -0.5867
 1271TIP3   OH225303   0.041   3.501  10.167 -0.3089  0.0861 -0.1062
 1271TIP3    H125304   0.128   3.489  10.129 -0.4037  1.0114 -0.6071
 1271TIP3    H225305   0.028   3.595  10.168 -1.6330 -0.0858 -0.7686
 1272TIP3   OH225306   1.101   6.602  13.425 -0.3058  0.5687  0.3253
 1272TIP3    H125307   1.154   6.671  13.385 -0.5878 -0.4943 -1.9564
 1272TIP3    H225308   1.147   6.521  13.404 -1.6838 -0.1967  0.2001
 1273TIP3   OH225309   1.363   0.660  12.309 -0.1314 -0.5096  0.0606
 1273TIP3    H125310   1.343   0.572  12.339 -0.4244 -0.3164  0.4453
 1273TIP3    H225311   1.287   0.712  12.336  0.4133  0.0236  0.5873
 1274TIP3   OH225312   1.722   1.862  10.261 -0.1088  0.3766 -0.2492
 1274TIP3    H125313   1.743   1.821  10.177 -0.4931  0.6492 -0.4803
 1274TIP3    H225314   1.649   1.811  10.295 -0.5245  0.7985 -0.4917
 1275TIP3   OH225315   0.841   0.292  12.345 -0.5999 -0.4441  0.4700
 1275TIP3    H125316   0.763   0.287  12.401 -0.3706 -1.4748  0.7118
 1275TIP3    H225317   0.902   0.228  12.383  0.5884  0.7636  0.6310
 1276TIP3   OH225318   1.627   2.581  14.649  0.2338  0.1290  1.3092
 1276TIP3    H125319   1.592   2.494  14.627  1.1942  0.3454 -1.2819
 1276TIP3    H225320   1.551   2.638  14.650  0.0544 -0.0387 -0.8651
 1277TIP3   OH225321   4.643   2.779  12.779  0.7758  0.1182  0.0396
 1277TIP3    H125322   4.674   2.829  12.854  0.9571  0.7265 -0.4384
 1277TIP3    H225323   4.681   2.692  12.790 -0.5353 -0.2911  1.5315
 1278TIP3   OH225324   6.928   0.789  10.886 -0.2322 -0.2276  0.3426
 1278TIP3    H125325   7.015   0.765  10.853 -0.5099 -0.5059 -0.1987
 1278TIP3    H225326   6.899   0.861  10.829 -1.9140 -2.5889 -1.9389
 1279TIP3   OH225327   1.627   0.453  10.832  0.3282 -0.4125  0.3127
 1279TIP3    H125328   1.599   0.362  10.839  0.3124 -0.2558  3.0920
 1279TIP3    H225329   1.553   0.497  10.789 -1.2682 -1.0661  2.2901
 1280TIP3   OH225330   2.824   1.625  10.776  0.2667  0.4309 -0.1804
 1280TIP3    H125331   2.920   1.618  10.772  0.1962 -0.5510 -0.3122
 1280TIP3    H225332   2.803   1.690  10.709  0.8534  0.7974 -0.0196
 1281TIP3   OH225333   1.059   3.250   9.921  0.4752 -0.3654  0.1593
 1281TIP3    H125334   1.013   3.319   9.967  0.5821  0.3800 -0.8398
 1281TIP3    H225335   1.136   3.232   9.975  0.5939  0.4806  0.2705
 1282TIP3   OH225336   0.396   2.808   9.533 -0.4255 -0.6423 -0.4792
 1282TIP3    H125337   0.313   2.839   9.570 -0.0517 -1.0958  0.7616
 1282TIP3    H225338   0.440   2.887   9.501 -0.9204 -0.2942 -0.3049
 1283TIP3   OH225339   2.793   4.469  10.003  0.7143  0.5032  0.4545
 1283TIP3    H125340   2.853   4.539  10.026  1.3606  0.0862  0.0615
 1283TIP3    H225341   2.847   4.406   9.955  0.1504 -0.2615  0.8030
 1284TIP3   OH225342   1.356   5.546  12.692 -0.6174 -0.0472 -0.1366
 1284TIP3    H125343   1.390   5.461  12.663  0.2266  1.2835 -3.3208
 1284TIP3    H225344   1.278   5.559  12.639 -0.4768  1.3714 -0.0126
 1285TIP3   OH225345   1.463   0.547  10.461 -0.1697  0.1174  0.3776
 1285TIP3    H125346   1.531   0.487  10.431 -1.1361 -0.6023 -0.4117
 1285TIP3    H225347   1.482   0.629  10.414  0.8339  0.2757  1.0515
 1286TIP3   OH225348   0.170   3.084  10.876  0.2598  0.0854 -0.0002
 1286TIP3    H125349   0.248   3.042  10.913 -0.4348 -2.8373 -1.6126
 1286TIP3    H225350   0.201   3.168  10.843  3.2027 -1.7807 -2.2651
 1287TIP3   OH225351   2.220   1.630  11.116  0.5042 -0.1742 -0.6396
 1287TIP3    H125352   2.287   1.674  11.063  1.1357  0.5983  0.7727
 1287TIP3    H225353   2.186   1.698  11.174  2.0992 -1.6889  2.1853
 1288TIP3   OH225354   2.727   2.533  11.269  0.3671 -0.0272 -0.0498
 1288TIP3    H125355   2.712   2.472  11.342 -2.0701  0.8864  0.2613
 1288TIP3    H225356   2.749   2.616  11.312 -0.6489  0.4041 -0.3479
 1289TIP3   OH225357   1.413   2.319  12.172 -0.0883  0.2369 -0.1381
 1289TIP3    H125358   1.480   2.338  12.106  0.8315  1.4782  1.1388
 1289TIP3    H225359   1.458   2.268  12.239 -0.5598  0.5908  0.4547
 1290TIP3   OH225360   4.350   1.840  15.398 -0.1716 -0.4769 -0.2411
 1290TIP3    H125361   4.438   1.806  15.415 -0.4669 -1.9414 -1.5576
 1290TIP3    H225362   4.364   1.926  15.359  0.6637 -0.5912 -0.1978
 1291TIP3   OH225363   2.242   2.379  11.488  0.1962  0.2838 -0.5669
 1291TIP3    H125364   2.307   2.439  11.449  1.8650 -1.1947 -0.1457
 1291TIP3    H225365   2.166   2.386  11.431  1.5518  0.3552 -2.4469
 1292TIP3   OH225366   1.863   3.127  10.266 -0.3302 -0.1261 -0.1948
 1292TIP3    H125367   1.784   3.163  10.307 -1.7209 -2.7155 -0.4777
 1292TIP3    H225368   1.864   3.165  10.178 -1.3073 -0.1281 -0.2160
 1293TIP3   OH225369   3.536   3.703  11.700 -0.8058 -0.6183  0.0624
 1293TIP3    H125370   3.480   3.774  11.667  0.4766  0.2737 -0.2230
 1293TIP3    H225371   3.613   3.747  11.736  0.7312 -1.9357 -1.5160
 1294TIP3   OH225372   3.278   2.733  10.821  0.1588 -0.6614 -0.2040
 1294TIP3    H125373   3.277   2.648  10.866  1.5053 -0.7831 -0.3981
 1294TIP3    H225374   3.276   2.711  10.728 -1.5486 -0.4229 -0.2549
 1295TIP3   OH225375   1.730   0.249  13.252  0.1589 -0.5684  0.6889
 1295TIP3    H125376   1.745   0.161  13.217  2.1789 -0.0732  0.2769
 1295TIP3    H225377   1.810   0.270  13.300 -0.1755  1.1838  0.5117
 1296TIP3   OH225378   0.396   2.134  10.805  0.1427  0.0891 -0.4285
 1296TIP3    H125379   0.348   2.056  10.832 -0.4242  0.1011 -1.4059
 1296TIP3    H225380   0.448   2.106  10.730  1.0593  0.2807  0.1273
 1297TIP3   OH225381   7.269   2.365  12.815 -0.2193 -0.1059 -0.3425
 1297TIP3    H125382   7.205   2.349  12.746 -2.0747 -1.4632  1.6158
 1297TIP3    H225383   7.217   2.393  12.890  1.8328  2.3375  0.2559
 1298TIP3   OH225384   2.817   3.734  13.873  0.4874 -0.5765 -0.3381
 1298TIP3    H125385   2.824   3.657  13.816  2.8058  0.1030 -1.0302
 1298TIP3    H225386   2.897   3.733  13.924 -0.3013  0.4051  0.9235
 1299TIP3   OH225387   2.338   2.697  11.448 -0.0509 -0.0214  0.3433
 1299TIP3    H125388   2.416   2.668  11.401 -0.7691 -0.3113 -0.6840
 1299TIP3    H225389   2.368   2.774  11.498  1.1661 -0.8212  0.8778
 1300TIP3   OH225390   5.614   0.552  12.124 -0.3369  0.6143  0.7144
 1300TIP3    H125391   5.598   0.641  12.156 -0.4633  0.0024  2.3824
 1300TIP3    H225392   5.656   0.507  12.197 -1.8054 -1.2014  0.4923
 1301TIP3   OH225393   6.720   0.413  12.231 -0.2133 -0.5602  0.1533
 1301TIP3    H125394   6.660   0.443  12.163 -1.8950 -2.0260  0.9726
 1301TIP3    H225395   6.807   0.434  12.196 -1.0847 -0.4106 -2.0120
 1302TIP3   OH225396   2.207   1.140  10.519 -0.4212  0.3503  0.0130
 1302TIP3    H125397   2.189   1.047  10.511 -0.5972  0.4918 -1.3355
 1302TIP3    H225398   2.188   1.160  10.610 -2.2496 -0.5431 -0.1433
 1303TIP3   OH225399   2.104   1.691  10.125 -0.4188  0.0632  0.0778
 1303TIP3    H125400   2.196   1.695  10.153 -1.0361 -1.4114  2.4152
 1303TIP3    H225401   2.084   1.597  10.125 -1.9485  0.3847 -0.4215
 1304TIP3   OH225402   0.636   2.087  10.632  0.1989 -0.5152 -0.1592
 1304TIP3    H125403   0.664   2.176  10.613  0.2445 -0.5511 -0.2593
 1304TIP3    H225404   0.624   2.046  10.546  0.4747 -0.7001 -0.1104
 1305TIP3   OH225405   0.820   2.434  10.317 -0.4830  0.2562 -1.1623
 1305TIP3    H125406   0.783   2.519  10.343 -4.5080 -2.0632  1.2083
 1305TIP3    H225407   0.823   2.383  10.397  1.6700 -1.9851 -2.5800
 1306TIP3   OH225408   7.268   7.214  13.518  0.0507 -0.5072  0.0879
 1306TIP3    H125409   7.245   7.121  13.514 -1.3932 -0.2293  1.5500
 1306TIP3    H225410   7.216   7.255  13.449 -0.1661 -0.6010  0.1976
 1307TIP3   OH225411   0.491   3.307  11.494 -0.0324  0.0177  0.2747
 1307TIP3    H125412   0.432   3.297  11.419  0.3454  1.1339 -0.1921
 1307TIP3    H225413   0.465   3.390  11.534  0.6391  0.0819  0.5911
 1308TIP3   OH225414   0.338   2.371  10.567 -0.4981  0.1012  0.1159
 1308TIP3    H125415   0.261   2.343  10.617 -0.0043 -1.6551 -0.0634
 1308TIP3    H225416   0.348   2.305  10.498  2.0388 -0.6038  1.0703
 1309TIP3   OH225417   0.597   3.891  10.560  0.2008  0.5365  0.1721
 1309TIP3    H125418   0.568   3.800  10.568 -0.0031  0.5438 -0.4647
 1309TIP3    H225419   0.565   3.919  10.474  2.0552  0.5768 -0.5107
 1310TIP3   OH225420   1.647   2.901  11.421  0.1304  0.0596 -0.5158
 1310TIP3    H125421   1.588   2.826  11.416  1.2948 -0.8460 -0.7930
 1310TIP3    H225422   1.734   2.863  11.432  0.4077  1.4129  2.6589
 1311TIP3   OH225423   6.619   7.314  12.618 -0.3133 -0.0604  0.2608
 1311TIP3    H125424   6.687   7.345  12.558  0.2019  0.2138  0.9707
 1311TIP3    H225425   6.576   7.393  12.649  0.3589 -0.0923  1.3287
 1312TIP3   OH225426   6.349   6.036  10.593  0.6333  0.1042  0.0019
 1312TIP3    H125427   6.270   6.090  10.595  1.8458  1.9523 -0.6338
 1312TIP3    H225428   6.322   5.957  10.546 -1.8337 -0.9973  3.0918
 1313TIP3   OH225429   1.699   2.444  10.651 -0.0799  0.2673 -0.7983
 1313TIP3    H125430   1.794   2.450  10.666 -0.0076 -0.8875 -0.7531
 1313TIP3    H225431   1.690   2.441  10.555  0.0361 -1.1836 -0.7688
 1314TIP3   OH225432   1.080   2.414  11.150  0.6370 -0.4871  0.0720
 1314TIP3    H125433   1.092   2.464  11.070 -0.9246  0.3650  0.3688
 1314TIP3    H225434   1.117   2.328  11.130 -0.4680 -0.5404 -1.8282
 1315TIP3   OH225435   0.973   3.381  11.494 -0.0685  0.2512  0.1112
 1315TIP3    H125436   0.911   3.344  11.430 -0.4499 -0.4703  0.8826
 1315TIP3    H225437   0.918   3.410  11.566  0.2916  1.8185 -0.2406
 1316TIP3   OH225438   6.524   2.209  11.418 -0.0769  0.1978 -0.0587
 1316TIP3    H125439   6.590   2.276  11.400  0.6907 -0.8837 -1.4151
 1316TIP3    H225440   6.461   2.252  11.476  2.2594  1.0012  2.0005
 1317TIP3   OH225441   6.899   2.411  10.050 -0.1378  0.0988  0.0896
 1317TIP3    H125442   6.850   2.370   9.979 -0.9035 -0.9726  1.2092
 1317TIP3    H225443   6.922   2.498  10.017  1.6994 -1.2854 -2.4008
 1318TIP3   OH225444   6.371   2.902  10.790  0.0722 -0.2452  0.2928
 1318TIP3    H125445   6.394   2.991  10.763 -0.2053 -0.1091  0.5009
 1318TIP3    H225446   6.354   2.909  10.884  0.6463 -0.6378  0.4257
 1319TIP3   OH225447   5.895   1.316  13.007 -0.0861 -0.1483  0.2417
 1319TIP3    H125448   5.862   1.406  13.015  0.5511  0.3717 -2.4692
 1319TIP3    H225449   5.988   1.323  13.030 -0.2101 -0.2674  0.7871
 1320TIP3   OH225450   0.516   1.026  12.191 -0.1168  0.2930  0.0574
 1320TIP3    H125451   0.507   0.962  12.121 -1.1544  0.5927 -0.0886
 1320TIP3    H225452   0.435   1.019  12.241  0.7533 -0.1657  1.4397
 1321TIP3   OH225453   1.738   1.432  10.572  0.4581  0.5257 -0.2822
 1321TIP3    H125454   1.751   1.340  10.595  0.2220  0.4333 -0.5153
 1321TIP3    H225455   1.698   1.471  10.650 -0.5582  0.1624 -0.6070
 1322TIP3   OH225456   1.297   1.675  10.625  0.2111 -0.5113  0.3500
 1322TIP3    H125457   1.236   1.700  10.556  1.9937 -2.1881 -1.9283
 1322TIP3    H225458   1.249   1.690  10.707 -2.0358  1.2781 -1.2409
 1323TIP3   OH225459   0.261   6.921  10.092  0.5302  0.1225  0.1826
 1323TIP3    H125460   0.173   6.884  10.092  0.2091  0.8055  2.1228
 1323TIP3    H225461   0.319   6.845  10.096 -0.0405 -0.2843  1.0355
 1324TIP3   OH225462   0.278   1.676   9.768  0.8164 -0.2015  0.3943
 1324TIP3    H125463   0.250   1.699   9.857  0.9851  0.1626  0.3540
 1324TIP3    H225464   0.371   1.654   9.777  1.3929  1.9589 -0.0513
 1325TIP3   OH225465   0.483   0.145  11.653 -0.1597  0.3301  0.0411
 1325TIP3    H125466   0.573   0.162  11.624 -0.8402  1.5338 -1.4266
 1325TIP3    H225467   0.431   0.216  11.615 -1.9303 -1.0155 -0.1327
 1326TIP3   OH225468   1.994   2.601  10.164  0.4487  0.2910 -0.3234
 1326TIP3    H125469   1.900   2.585  10.161  0.2073  1.6750 -0.8575
 1326TIP3    H225470   2.002   2.697  10.168  1.8342  0.2004 -0.4150
 1327TIP3   OH225471   1.130   1.758  10.828  0.2705  0.3723  0.1686
 1327TIP3    H125472   1.049   1.805  10.847 -1.3480 -2.0418 -0.5380
 1327TIP3    H225473   1.150   1.711  10.909  0.3506  0.0835 -0.0180
 1328TIP3   OH225474   0.327   3.672  11.015 -0.0587  0.2407  0.2656
 1328TIP3    H125475   0.267   3.733  10.971 -0.9785 -1.9315 -1.5983
 1328TIP3    H225476   0.272   3.629  11.080 -0.3168 -1.0316 -0.7655
 1329TIP3   OH225477   0.870   2.831  11.560 -0.0105  0.7591 -0.1526
 1329TIP3    H125478   0.910   2.746  11.577 -0.1572  0.8742  0.7975
 1329TIP3    H225479   0.784   2.825  11.600 -1.0525  0.4464 -2.3340
 1330TIP3   OH225480   2.946   3.951  12.095  0.0759  0.0415  0.3242
 1330TIP3    H125481   2.979   3.861  12.091 -0.4429 -0.1087 -0.5713
 1330TIP3    H225482   3.007   3.996  12.154  1.2960 -0.4773 -0.5280
 1331TIP3   OH225483   7.209   0.703  11.717  0.3789  0.3054  0.4982
 1331TIP3    H125484   7.210   0.612  11.685  1.2832 -1.0516  4.0576
 1331TIP3    H225485   7.299   0.719  11.744 -0.1158  1.7019  1.3558
 1332TIP3   OH225486   1.083   2.488  13.149 -0.3598 -0.1577 -0.1160
 1332TIP3    H125487   1.170   2.525  13.163  0.8021 -2.6793 -0.4502
 1332TIP3    H225488   1.056   2.521  13.064  1.1262 -0.9278 -0.9030
 1333TIP3   OH225489   0.346   2.720  10.621 -0.3864  0.3253  0.2156
 1333TIP3    H125490   0.409   2.650  10.636 -0.8157 -0.3774 -1.0996
 1333TIP3    H225491   0.265   2.690  10.663 -0.3687  0.3385  0.2585
 1334TIP3   OH225492   1.324   4.422  11.402  0.6290 -0.2375  0.1188
 1334TIP3    H125493   1.382   4.351  11.431  1.4049 -0.1768 -1.2315
 1334TIP3    H225494   1.260   4.378  11.345  1.9168  0.3326 -1.8008
 1335TIP3   OH225495   2.649   3.219  10.307 -0.6311 -0.0928  0.4170
 1335TIP3    H125496   2.611   3.269  10.234  1.3644 -0.3173 -0.8208
 1335TIP3    H225497   2.605   3.254  10.385 -2.2085  0.7382 -0.7987
 1336TIP3   OH225498   3.759   3.241  11.756  0.5723  0.3319 -0.4146
 1336TIP3    H125499   3.779   3.307  11.823  0.9908 -0.2432  0.0327
 1336TIP3    H225500   3.786   3.282  11.674 -2.6833  2.2231 -0.6343
 1337TIP3   OH225501   2.638   3.137  11.494  0.6455  0.0135 -0.0553
 1337TIP3    H125502   2.697   3.180  11.432  0.7801  0.7764  0.5849
 1337TIP3    H225503   2.586   3.209  11.530  1.4918 -0.2281  1.7032
 1338TIP3   OH225504   4.354   2.244  10.824  0.0427  0.1287 -0.1171
 1338TIP3    H125505   4.267   2.213  10.798  0.3696 -0.5705 -0.3987
 1338TIP3    H225506   4.337   2.319  10.881 -0.7381  0.1781 -0.4068
 1339TIP3   OH225507   1.520   4.001  12.340  0.1065 -0.7920  0.1563
 1339TIP3    H125508   1.457   3.930  12.322 -0.3955 -0.3128  0.0032
 1339TIP3    H225509   1.509   4.062  12.267  0.5973 -0.5965  0.2443
 1340TIP3   OH225510   3.942   3.144  12.084 -0.1889 -0.2816 -0.6337
 1340TIP3    H125511   3.864   3.094  12.106 -0.2392  0.7739  1.7098
 1340TIP3    H225512   3.909   3.223  12.041 -0.3840 -0.1016 -0.1550
 1341TIP3   OH225513   2.334   2.275  10.573  0.1700 -0.5095 -0.1438
 1341TIP3    H125514   2.297   2.359  10.547 -0.9897 -0.5456  1.3355
 1341TIP3    H225515   2.412   2.298  10.624 -1.6974 -0.1881  2.7027
 1342TIP3   OH225516   4.153   2.416  12.840  0.2293  0.0528  0.1785
 1342TIP3    H125517   4.058   2.412  12.832  0.3878 -1.8034 -0.8683
 1342TIP3    H225518   4.179   2.329  12.869  1.5894  0.6740  0.8788
 1343TIP3   OH225519   3.242   3.190  11.145  0.5605 -0.3003  0.5594
 1343TIP3    H125520   3.290   3.107  11.144 -1.0593 -1.2914  2.3365
 1343TIP3    H225521   3.186   3.186  11.067  1.8612 -0.0063 -0.4146
 1344TIP3   OH225522   1.990   2.224  10.635 -0.3090 -0.0684 -0.7240
 1344TIP3    H125523   2.058   2.180  10.686 -1.6553 -0.8022  0.4543
 1344TIP3    H225524   2.033   2.246  10.553  1.1518 -1.1647 -0.2741
 1345TIP3   OH225525   4.150   3.618  10.504  0.0125 -0.0615 -0.1831
 1345TIP3    H125526   4.223   3.557  10.499  0.7770  0.8827 -0.6850
 1345TIP3    H225527   4.130   3.639  10.412 -0.0783  0.6336 -0.0111
 1346TIP3   OH225528   3.395   1.321  11.572 -0.0316 -0.2483 -0.5805
 1346TIP3    H125529   3.461   1.362  11.516  0.2436 -1.5951 -1.2586
 1346TIP3    H225530   3.426   1.336  11.661  0.2802  0.6442 -0.8366
 1347TIP3   OH225531   3.798   2.504  10.637 -0.3222  0.3233 -0.7643
 1347TIP3    H125532   3.798   2.489  10.542 -0.7048 -1.1322 -0.5355
 1347TIP3    H225533   3.722   2.457  10.669 -1.7203  2.9721 -0.0395
 1348TIP3   OH225534   1.359   2.983  11.539  0.2088 -0.4676  0.0009
 1348TIP3    H125535   1.390   3.009  11.452  0.6256  0.1205  0.3193
 1348TIP3    H225536   1.323   2.896  11.526 -0.9173  0.1377 -1.0225
 1349TIP3   OH225537   2.975   2.591  10.128  0.0651  0.0458 -0.3407
 1349TIP3    H125538   3.039   2.608  10.059  1.1171  0.8187  0.8122
 1349TIP3    H225539   2.966   2.495  10.128  0.0475  0.0306 -1.5391
 1350TIP3   OH225540   2.821   3.792  11.295  0.1370  0.3040 -0.1186
 1350TIP3    H125541   2.904   3.824  11.258 -0.2644  0.8313 -0.5728
 1350TIP3    H225542   2.765   3.779  11.218 -0.0659 -0.4548  0.1528
 1351TIP3   OH225543   1.904   1.658  10.603 -0.2027 -0.1065 -0.0511
 1351TIP3    H125544   1.956   1.606  10.541  0.7114  0.7906 -0.0658
 1351TIP3    H225545   1.815   1.627  10.592 -0.3633  1.2782 -3.1573
 1352TIP3   OH225546   3.567   3.314  10.123  0.5936  0.0096  0.0124
 1352TIP3    H125547   3.620   3.312  10.043 -1.3884 -0.7402 -1.3200
 1352TIP3    H225548   3.500   3.380  10.106 -1.4117 -1.9744  0.0132
 1353TIP3   OH225549   2.827   4.457  11.417 -0.0647 -0.1272  0.6690
 1353TIP3    H125550   2.827   4.549  11.441 -0.3959 -0.6058  2.5724
 1353TIP3    H225551   2.775   4.414  11.484 -1.4465 -1.4685 -1.2099
 1354TIP3   OH225552   2.873   2.687  10.583 -0.2287  0.5430 -0.6273
 1354TIP3    H125553   2.938   2.630  10.542 -1.5589 -1.3026 -0.2124
 1354TIP3    H225554   2.881   2.669  10.677 -0.0569  1.6941 -0.4113
 1355TIP3   OH225555   1.220   3.856  10.154  0.4195 -0.4617 -0.0702
 1355TIP3    H125556   1.147   3.874  10.095 -0.5270 -1.6091  0.7249
 1355TIP3    H225557   1.276   3.933  10.147  0.0067 -0.3076 -1.9857
 1356TIP3   OH225558   1.888   3.152  11.464 -0.0552  0.1492 -0.2618
 1356TIP3    H125559   1.970   3.117  11.429  0.9884  2.8269 -0.6455
 1356TIP3    H225560   1.909   3.243  11.487 -2.7676  0.7109  0.1574
 1357TIP3   OH225561   4.310   2.748  10.390  0.1569  0.0696  0.1571
 1357TIP3    H125562   4.328   2.840  10.373 -0.5408  0.2883  0.6169
 1357TIP3    H225563   4.372   2.701  10.333 -0.7944  0.8109 -1.5115
 1358TIP3   OH225564   2.005   1.847  12.458 -0.2116 -0.5879  0.4611
 1358TIP3    H125565   2.073   1.784  12.436 -1.9608 -2.5328  0.4638
 1358TIP3    H225566   1.951   1.803  12.524 -1.2705  1.0356  0.7173
 1359TIP3   OH225567   3.591   2.319  10.667  0.2706 -0.0392 -0.0391
 1359TIP3    H125568   3.581   2.258  10.740 -0.8811 -0.8009 -0.8239
 1359TIP3    H225569   3.516   2.303  10.611  1.1608  0.5075 -1.4268
 1360TIP3   OH225570   3.572   2.395  12.916 -0.2637  0.4169  0.2333
 1360TIP3    H125571   3.519   2.475  12.925  0.7722  1.8044 -4.3450
 1360TIP3    H225572   3.656   2.418  12.954  0.1779  1.7234 -1.4664
 1361TIP3   OH225573   3.473   4.183  10.271 -0.0800  0.0319  0.4408
 1361TIP3    H125574   3.489   4.271  10.237 -1.3566 -0.4903 -1.5676
 1361TIP3    H225575   3.506   4.125  10.203 -1.1565 -1.0439  0.8217
 1362TIP3   OH225576   4.375   3.562  11.524  0.1109 -0.3096  0.0841
 1362TIP3    H125577   4.462   3.586  11.556 -0.4122  0.9788  0.5679
 1362TIP3    H225578   4.374   3.590  11.433  0.0123  0.1847  0.2357
 1363TIP3   OH225579   4.264   2.079  11.621  0.1909  0.0427 -0.3423
 1363TIP3    H125580   4.330   2.052  11.684 -0.9058 -0.9568  0.4138
 1363TIP3    H225581   4.243   2.169  11.644  1.3091  0.3865 -0.6267
 1364TIP3   OH225582   3.581   3.864  12.619 -0.1189 -0.3034 -0.1650
 1364TIP3    H125583   3.572   3.932  12.686  2.3734  0.1620 -0.2666
 1364TIP3    H225584   3.569   3.781  12.667  0.6027  0.0666  0.6617
 1365TIP3   OH225585   2.653   4.628  10.924 -0.1972 -0.5337  0.3784
 1365TIP3    H125586   2.647   4.578  11.005  0.7537 -1.7886 -0.3181
 1365TIP3    H225587   2.576   4.685  10.925 -0.9343 -1.5345  1.5001
 1366TIP3   OH225588   2.551   4.479  11.925 -0.4103  0.5620 -0.0920
 1366TIP3    H125589   2.466   4.438  11.911 -0.4588  0.0697  1.4681
 1366TIP3    H225590   2.535   4.545  11.992  0.3307  0.7946 -0.1378
 1367TIP3   OH225591   2.407   2.549  10.053 -0.0797  0.5418  0.3984
 1367TIP3    H125592   2.339   2.513  10.111 -1.9622 -0.7585 -2.5107
 1367TIP3    H225593   2.409   2.642  10.074 -0.0983 -0.0241  3.1498
 1368TIP3   OH225594   2.936   2.962  12.963 -0.9711  0.1021  0.4153
 1368TIP3    H125595   3.027   2.989  12.973 -0.9866 -0.3797  2.0047
 1368TIP3    H225596   2.891   3.004  13.037 -2.0039  0.1831 -0.2476
 1369TIP3   OH225597   1.161   2.584  11.439  1.2995 -0.4845  0.6567
 1369TIP3    H125598   1.222   2.543  11.500  2.2066 -0.8948 -0.5094
 1369TIP3    H225599   1.101   2.514  11.413 -0.5777  0.2267  2.8534
 1370TIP3   OH225600   0.534   2.529  10.700 -0.1944 -0.8934  0.0835
 1370TIP3    H125601   0.620   2.487  10.699  0.2896  0.0914 -0.2636
 1370TIP3    H225602   0.475   2.462  10.666  0.6706 -1.0779 -1.0975
 1371TIP3   OH225603   2.204   3.561  10.847  0.2051 -0.3630 -0.0578
 1371TIP3    H125604   2.179   3.577  10.938 -0.0056 -2.0023  0.1785
 1371TIP3    H225605   2.265   3.488  10.851  0.5978 -0.1098 -1.2011
 1372TIP3   OH225606   2.515   4.840  10.737  0.4254 -0.7035  0.0894
 1372TIP3    H125607   2.568   4.762  10.718 -0.4475 -1.2105 -0.2851
 1372TIP3    H225608   2.427   4.817  10.708  0.5048  1.0514 -1.6679
 1373TIP3   OH225609   2.635   2.631   9.693 -0.4463 -0.0759 -0.2584
 1373TIP3    H125610   2.542   2.641   9.671 -0.4151 -0.7079 -0.7119
 1373TIP3    H225611   2.637   2.554   9.750 -0.4947  1.4076  1.7681
 1374TIP3   OH225612   2.669   2.284  11.366  0.1189  0.0981 -0.0745
 1374TIP3    H125613   2.645   2.204  11.320  0.0158 -0.0234  0.1850
 1374TIP3    H225614   2.684   2.255  11.456 -0.5963  0.4809  0.1735
 1375TIP3   OH225615   2.359   3.607  11.328 -0.0068  0.2517  0.1900
 1375TIP3    H125616   2.351   3.516  11.299 -0.6469  0.9655 -1.9377
 1375TIP3    H225617   2.443   3.637  11.294  0.6903  0.1507  1.7898
 1376TIP3   OH225618   3.888   2.729  13.526  0.0682  0.0732 -0.1890
 1376TIP3    H125619   3.838   2.681  13.593 -1.0657 -1.4841 -2.1077
 1376TIP3    H225620   3.927   2.661  13.471  1.1473  1.3351 -1.0129
 1377TIP3   OH225621   0.898   4.932  12.433 -0.6233 -0.2933  0.4682
 1377TIP3    H125622   0.903   5.020  12.471 -1.5019  0.8886 -2.0277
 1377TIP3    H225623   0.986   4.916  12.399 -0.7898  0.1572 -0.1862
 1378TIP3   OH225624   4.513   4.922  11.827  0.3777  0.1591 -0.6231
 1378TIP3    H125625   4.429   4.880  11.845  0.5334 -0.7145 -1.8455
 1378TIP3    H225626   4.571   4.849  11.803  1.5417  0.7310  0.4135
 1379TIP3   OH225627   2.110   1.502  10.456 -0.2493  0.0816 -0.2192
 1379TIP3    H125628   2.187   1.465  10.499  0.1443  1.3791  0.2176
 1379TIP3    H225629   2.074   1.430  10.405  0.7850 -0.7600  0.2220
 1380TIP3   OH225630   2.986   3.248  10.033  0.0267 -0.4272  0.4451
 1380TIP3    H125631   3.044   3.324  10.028  0.7465 -0.9214  1.1037
 1380TIP3    H225632   2.935   3.250   9.952 -0.6915  1.3374  0.9170
 1381TIP3   OH225633   4.200   4.527  11.014  0.4920 -0.0037 -0.9861
 1381TIP3    H125634   4.141   4.555  10.944 -0.8854  0.5282  0.3695
 1381TIP3    H225635   4.184   4.433  11.022  1.8413 -0.3878 -2.4654
 1382TIP3   OH225636   3.315   2.494  11.638  0.2127 -0.3420 -0.0778
 1382TIP3    H125637   3.351   2.489  11.727  1.2212 -1.5384 -0.5411
 1382TIP3    H225638   3.377   2.446  11.584 -0.8348 -0.3513 -1.3021
 1383TIP3   OH225639   3.202   2.051  11.060  0.4802  0.0450  0.1297
 1383TIP3    H125640   3.162   2.133  11.031 -0.6416 -0.5222  0.0447
 1383TIP3    H225641   3.223   2.065  11.152  1.4482  0.8658 -0.2130
 1384TIP3   OH225642   2.120   3.200  12.408 -0.2462  0.0789 -0.5941
 1384TIP3    H125643   2.157   3.283  12.379 -0.3575 -0.0766 -1.1820
 1384TIP3    H225644   2.027   3.219  12.423 -0.4216 -0.1163 -1.4283
 1385TIP3   OH225645   4.259   1.870  11.962  0.7144  0.4668  0.1854
 1385TIP3    H125646   4.342   1.879  12.009  0.8653  1.8633 -0.3113
 1385TIP3    H225647   4.277   1.805  11.894  0.8247 -0.7052  1.3373
 1386TIP3   OH225648   3.211   4.591  10.342  0.4032 -0.1348 -0.2357
 1386TIP3    H125649   3.285   4.613  10.285  0.3713 -0.6671 -0.4786
 1386TIP3    H225650   3.153   4.667  10.334  1.0527  0.4233  0.1862
 1387TIP3   OH225651   1.967   2.216  11.009  0.2359 -0.0213 -0.2630
 1387TIP3    H125652   1.889   2.272  11.015 -0.6205 -0.6430 -4.0654
 1387TIP3    H225653   1.932   2.130  10.984  2.1778 -0.0093 -3.2352
 1388TIP3   OH225654   2.643   2.863  10.540  0.4142 -0.5610 -0.3606
 1388TIP3    H125655   2.683   2.950  10.532 -0.3505 -0.1118  0.5885
 1388TIP3    H225656   2.717   2.805  10.561  0.6807  0.1582  0.7480
 1389TIP3   OH225657   3.520   3.322  13.226  0.3918  0.0881  0.1719
 1389TIP3    H125658   3.523   3.365  13.312 -0.9184  1.0476 -0.2369
 1389TIP3    H225659   3.564   3.238  13.240 -0.7467 -0.2378  2.0647
 1390TIP3   OH225660   2.040   0.670  11.323  0.1146 -0.1343 -0.6332
 1390TIP3    H125661   2.107   0.739  11.316  0.6909 -0.7723 -1.4841
 1390TIP3    H225662   1.994   0.674  11.240 -1.6082  0.9960  0.3453
 1391TIP3   OH225663   1.077   2.502  10.538  0.3560 -0.2050  0.3471
 1391TIP3    H125664   1.145   2.463  10.593  0.8254  0.2491  0.0946
 1391TIP3    H225665   1.118   2.510  10.452  0.1570  0.5468  0.3181
 1392TIP3   OH225666   1.894   3.034  10.764  0.1805 -0.0639  0.1551
 1392TIP3    H125667   1.895   2.939  10.777  1.1185 -0.1465 -0.4767
 1392TIP3    H225668   1.935   3.047  10.679  0.9265  0.9753  0.6607
 1393TIP3   OH225669   3.704   2.749  10.742  0.4403 -0.2933  0.1810
 1393TIP3    H125670   3.734   2.795  10.664 -2.1438  0.5571 -0.3799
 1393TIP3    H225671   3.718   2.657  10.722  2.0130  0.0402 -0.3015
 1394TIP3   OH225672   1.405   1.709  12.248 -0.0137 -0.6562  0.3375
 1394TIP3    H125673   1.351   1.753  12.313 -0.7189  0.7536 -1.1583
 1394TIP3    H225674   1.495   1.731  12.273 -0.3630  2.2279 -0.7223
 1395TIP3   OH225675   1.578   2.172  11.193  0.0256  0.7180 -0.0528
 1395TIP3    H125676   1.483   2.182  11.198 -0.4314 -1.4576 -2.9235
 1395TIP3    H225677   1.600   2.114  11.266 -1.2783 -0.9949 -0.9705
 1396TIP3   OH225678   2.381   2.698  10.342  0.0242  0.1302  0.1579
 1396TIP3    H125679   2.386   2.753  10.264 -1.4841  0.8668  0.5518
 1396TIP3    H225680   2.349   2.614  10.310  1.5169 -0.2617 -0.3256
 1397TIP3   OH225681   2.756   0.559  12.536 -0.3777 -0.5557  0.3180
 1397TIP3    H125682   2.754   0.511  12.453  1.3504 -1.0305  0.5190
 1397TIP3    H225683   2.686   0.624  12.529 -0.0313 -0.3772 -1.6485
 1398TIP3   OH225684   3.115   3.596  12.684 -0.2913  0.0903 -0.1628
 1398TIP3    H125685   3.136   3.532  12.617 -0.8141 -0.3370  0.0753
 1398TIP3    H225686   3.171   3.572  12.758  0.0144  0.3326 -0.3158
 1399TIP3   OH225687   1.074   2.395  11.777 -0.4851  0.1598  0.6142
 1399TIP3    H125688   1.025   2.397  11.694  0.4368 -0.6276  0.0309
 1399TIP3    H225689   1.030   2.328  11.829 -0.1956 -0.3641  0.1916
 1400TIP3   OH225690   2.293   3.399  12.325  0.5898  0.2778  0.1111
 1400TIP3    H125691   2.328   3.488  12.326 -1.3764  1.0579  1.4178
 1400TIP3    H225692   2.314   3.366  12.237  2.4576  1.5511  0.0470
 1401TIP3   OH225693   1.911   2.135   9.779  0.1104  0.1085 -0.1998
 1401TIP3    H125694   1.818   2.115   9.770  0.3510 -1.1512 -0.0528
 1401TIP3    H225695   1.935   2.100   9.865  0.6997  0.5199 -0.1941
 1402TIP3   OH225696   3.302   2.472  10.156  0.5571 -0.1732  0.2113
 1402TIP3    H125697   3.252   2.390  10.162  0.2560  0.0574  0.8959
 1402TIP3    H225698   3.272   2.513  10.075  1.8820 -1.5133 -0.9935
 1403TIP3   OH225699   3.203   2.076  11.360 -0.7436  0.3192 -0.1140
 1403TIP3    H125700   3.172   2.019  11.430 -2.3736  0.6374 -0.5636
 1403TIP3    H225701   3.298   2.061  11.357 -1.1378 -2.3193 -0.2010
 1404TIP3   OH225702   3.800   4.826  10.841  0.0079  0.3210  0.0035
 1404TIP3    H125703   3.743   4.755  10.812 -0.1661  0.7274 -0.6406
 1404TIP3    H225704   3.828   4.799  10.929 -0.4233 -0.3225 -0.0521
 1405TIP3   OH225705   2.879   3.229   9.754 -0.0134 -0.1449 -0.4094
 1405TIP3    H125706   2.880   3.167   9.682 -0.5068  2.4969 -2.7505
 1405TIP3    H225707   2.786   3.238   9.777  0.0290  0.0467 -0.3154
 1406TIP3   OH225708   3.928   4.999  11.377  0.8657  0.7424  0.5298
 1406TIP3    H125709   3.997   5.067  11.377 -1.1347  2.9097 -2.6773
 1406TIP3    H225710   3.863   5.032  11.438  1.2091  0.2472  1.1707
 1407TIP3   OH225711   1.254   3.602  10.525 -0.0045 -0.3032 -0.3846
 1407TIP3    H125712   1.166   3.576  10.550  0.3010  0.2966  1.3487
 1407TIP3    H225713   1.248   3.697  10.511  0.6997 -0.0034  1.2568
 1408TIP3   OH225714   1.953   2.478  11.588 -0.5525 -0.0585  0.6456
 1408TIP3    H125715   2.012   2.506  11.517  2.8174 -1.2962  2.8281
 1408TIP3    H225716   1.891   2.419  11.545  0.4663  0.4289 -1.5739
 1409TIP3   OH225717   2.281   4.842  12.806 -0.2294  0.0938 -0.0484
 1409TIP3    H125718   2.230   4.833  12.726 -0.5942 -1.6669  0.3590
 1409TIP3    H225719   2.303   4.752  12.831 -1.0154  0.5274  2.3757
 1410TIP3   OH225720   3.508   2.842  11.799 -0.1085 -0.7566  0.1114
 1410TIP3    H125721   3.499   2.936  11.784  1.0363 -0.8389 -1.2346
 1410TIP3    H225722   3.423   2.806  11.776  0.4919 -0.4222 -2.8514
 1411TIP3   OH225723   5.436   2.838  11.658 -0.1139 -0.4476  0.2950
 1411TIP3    H125724   5.402   2.813  11.572 -0.1308  1.2505 -0.1930
 1411TIP3    H225725   5.359   2.842  11.714 -0.1470 -1.1828  0.3140
 1412TIP3   OH225726   3.708   2.894  11.223  0.0133  0.0742  0.1666
 1412TIP3    H125727   3.627   2.928  11.261 -0.5618  1.0387 -1.8571
 1412TIP3    H225728   3.695   2.799  11.219 -0.1446  0.0178  1.8002
 1413TIP3   OH225729   4.685   4.422  10.840 -0.6337 -0.0282  0.0739
 1413TIP3    H125730   4.708   4.506  10.880  0.9853 -1.8541  3.1760
 1413TIP3    H225731   4.769   4.384  10.814 -1.3113 -0.9273 -0.8435
 1414TIP3   OH225732   3.041   2.637  11.964  0.0834 -0.4578 -0.7231
 1414TIP3    H125733   2.957   2.620  12.007  0.1009  0.3691 -0.3486
 1414TIP3    H225734   3.021   2.635  11.871 -0.3772 -0.1653 -0.6309
 1415TIP3   OH225735   1.499   3.163  10.665 -0.0547  0.0053 -0.4737
 1415TIP3    H125736   1.446   3.110  10.606  1.6585 -0.4201 -1.6442
 1415TIP3    H225737   1.500   3.250  10.625  0.2045 -0.0070 -0.4936
 1416TIP3   OH225738   3.442   3.498  10.890 -0.1544 -0.9436 -0.0481
 1416TIP3    H125739   3.423   3.491  10.984 -1.3279  1.3575 -0.0799
 1416TIP3    H225740   3.531   3.461  10.881  0.3453 -0.3510  2.1007
 1417TIP3   OH225741   2.236   2.474  10.260  0.2288  0.2410  0.1970
 1417TIP3    H125742   2.230   2.379  10.274 -0.5789  0.6540  2.9878
 1417TIP3    H225743   2.145   2.504  10.261  0.3788  0.8850 -2.1972
 1418TIP3   OH225744   2.529   2.555  11.984 -0.4729 -0.2387  0.0276
 1418TIP3    H125745   2.547   2.461  11.988  0.3838 -0.1133 -0.7916
 1418TIP3    H225746   2.456   2.563  11.922 -0.4015 -0.3385 -0.0687
 1419TIP3   OH225747   2.729   5.642  13.787  0.2636  1.2075  0.0296
 1419TIP3    H125748   2.749   5.626  13.879  0.5295 -1.1531 -0.4066
 1419TIP3    H225749   2.802   5.694  13.755  1.8324 -0.7300  0.3726
 1420TIP3   OH225750   1.926   3.080  11.724  0.1372  0.1607  0.4189
 1420TIP3    H125751   1.879   3.091  11.642 -0.6777  0.8197  0.9586
 1420TIP3    H225752   1.993   3.148  11.723  0.5372 -0.2438  0.0139
 1421TIP3   OH225753   2.553   3.806  10.552  0.6590 -0.4694 -0.5043
 1421TIP3    H125754   2.521   3.732  10.500 -3.1824  0.3929  0.4538
 1421TIP3    H225755   2.590   3.866  10.488 -1.0496 -0.8808 -1.9293
 1422TIP3   OH225756   3.069   2.276  11.040 -0.0244 -0.4279 -0.1192
 1422TIP3    H125757   3.084   2.302  10.949  0.4498  0.8285  0.3149
 1422TIP3    H225758   2.997   2.332  11.070 -0.5591 -1.2232  0.1230
 1423TIP3   OH225759   0.958   2.327  13.357 -0.4298 -0.8394  0.0118
 1423TIP3    H125760   0.924   2.412  13.384 -0.0351 -0.7132  0.1125
 1423TIP3    H225761   1.008   2.345  13.277  0.7571 -0.7659  0.7597
 1424TIP3   OH225762   4.587   4.035  10.745 -0.6087 -0.1384  0.1905
 1424TIP3    H125763   4.498   4.062  10.720 -0.7775 -1.8281 -1.1984
 1424TIP3    H225764   4.573   3.956  10.798 -0.0172  0.8185  1.7927
 1425TIP3   OH225765   2.975   2.776  11.687  0.3940  0.2813 -0.6130
 1425TIP3    H125766   2.927   2.846  11.643  0.7940  0.7614 -0.2840
 1425TIP3    H225767   2.937   2.695  11.651 -0.7156  0.6548 -0.3043
 1426TIP3   OH225768   3.738   2.535  11.683  0.0609 -0.4608  0.4010
 1426TIP3    H125769   3.700   2.453  11.653 -2.0346  1.0667 -1.2317
 1426TIP3    H225770   3.801   2.559  11.615  0.0607 -0.3106  0.4543
 1427TIP3   OH225771   2.402   1.118  10.924  0.0936  0.1767 -0.2702
 1427TIP3    H125772   2.486   1.098  10.964  0.3550  1.1075 -0.3277
 1427TIP3    H225773   2.394   1.057  10.851  0.2739 -0.5628  0.3266
 1428TIP3   OH225774   2.170   1.773  10.678 -0.1276 -0.0402 -0.4471
 1428TIP3    H125775   2.103   1.719  10.637 -1.5714  1.2960  0.1221
 1428TIP3    H225776   2.189   1.840  10.612 -1.4419  1.2831  0.4993
 1429TIP3   OH225777   2.612   1.701  10.029  0.1911 -0.1394 -0.5576
 1429TIP3    H125778   2.585   1.690   9.938 -0.5056 -1.5785 -0.1870
 1429TIP3    H225779   2.658   1.620  10.051 -1.8722 -0.8949  1.1382
 1430TIP3   OH225780   2.992   2.597  10.899  0.0056 -0.3873  0.0020
 1430TIP3    H125781   2.927   2.575  10.966  1.1359 -1.0900  0.8759
 1430TIP3    H225782   3.020   2.686  10.921  2.3185 -1.5640  2.0928
 1431TIP3   OH225783   0.992   1.204  13.430 -0.2006 -0.0714 -0.1661
 1431TIP3    H125784   1.063   1.243  13.379 -0.5392 -0.1965 -0.7335
 1431TIP3    H225785   0.915   1.255  13.407 -0.3729 -0.1863  0.1563
 1432TIP3   OH225786   2.650   2.436   9.471 -0.2958 -0.4431  0.4980
 1432TIP3    H125787   2.630   2.347   9.502  1.5823 -1.0222  0.1295
 1432TIP3    H225788   2.663   2.487   9.551  1.7863 -1.2777  0.7254
 1433TIP3   OH225789   2.644   3.231  12.443 -0.1610 -0.0608 -0.0899
 1433TIP3    H125790   2.656   3.271  12.357  1.4915 -0.3686 -0.0229
 1433TIP3    H225791   2.569   3.277  12.481  0.5070  1.6252 -0.7913
 1434TIP3   OH225792   1.289   2.090  11.353 -0.1624  0.4217 -0.1873
 1434TIP3    H125793   1.303   2.097  11.448 -1.4945  1.1521 -0.0318
 1434TIP3    H225794   1.233   2.013  11.342 -0.6944  0.8260 -0.3099
 1435TIP3   OH225795   2.537   2.352  11.021  0.9874 -0.2600  0.2283
 1435TIP3    H125796   2.547   2.311  11.107  0.3513 -0.2580  0.3067
 1435TIP3    H225797   2.447   2.331  10.995  1.6751 -1.6401 -1.1475
 1436TIP3   OH225798   0.655   3.271  10.303 -0.0739  0.2424 -0.4140
 1436TIP3    H125799   0.671   3.366  10.303  1.5303  0.0124  1.9508
 1436TIP3    H225800   0.645   3.249  10.211  3.8206  2.0728 -1.3966
 1437TIP3   OH225801   2.454   3.042  11.243 -0.0999 -0.2490 -0.0850
 1437TIP3    H125802   2.533   3.004  11.205  0.1290 -1.0063  1.1240
 1437TIP3    H225803   2.487   3.108  11.304 -0.3277 -1.5825  1.5219
 1438TIP3   OH225804   2.397   5.287  12.388 -0.1846 -0.1917  0.1202
 1438TIP3    H125805   2.431   5.198  12.385  0.1391 -0.1066  1.1632
 1438TIP3    H225806   2.366   5.304  12.298 -0.1596 -1.3090 -0.1063
 1439TIP3   OH225807   1.746   1.569  11.544  0.1684 -0.2414  0.0098
 1439TIP3    H125808   1.830   1.608  11.565  0.1899 -0.4640  0.3409
 1439TIP3    H225809   1.747   1.559  11.448  0.1411  0.6044 -0.0747
 1440TIP3   OH225810   1.920   2.462  10.824 -0.1023  0.4642 -0.4995
 1440TIP3    H125811   1.996   2.509  10.790  1.1107 -0.8323  0.3379
 1440TIP3    H225812   1.941   2.369  10.809 -1.2741  0.0692  0.2577
 1441TIP3   OH225813   2.429   2.166  11.609  0.2457  0.2954  0.3380
 1441TIP3    H125814   2.398   2.241  11.558  1.7418  0.8743  0.2668
 1441TIP3    H225815   2.351   2.134  11.654 -0.3836  1.9705  0.4736
 1442TIP3   OH225816   2.647   3.959  12.105  0.3755  0.1624  0.0568
 1442TIP3    H125817   2.620   3.947  12.013  0.7263 -0.5713  0.0549
 1442TIP3    H225818   2.712   4.029  12.101 -0.1888  0.6927 -0.1525
 1443TIP3   OH225819   1.236   2.962   9.792 -0.3883  0.2048 -0.7406
 1443TIP3    H125820   1.155   2.987   9.837  1.2525  1.4375  1.6253
 1443TIP3    H225821   1.284   2.910   9.856  2.0567  2.0866 -0.9890
 1444TIP3   OH225822   3.415   1.424  10.245  0.7720 -0.0344 -0.2477
 1444TIP3    H125823   3.435   1.337  10.279 -3.3345 -1.4083 -1.0214
 1444TIP3    H225824   3.432   1.416  10.151 -1.9323 -0.8239 -0.7080
 1445TIP3   OH225825   3.425   5.177  11.674 -0.1257 -0.0283 -0.6881
 1445TIP3    H125826   3.399   5.163  11.765 -1.1850  1.9447 -0.6534
 1445TIP3    H225827   3.457   5.092  11.644  1.9465 -0.2892  2.0644
 1446TIP3   OH225828   2.429   2.949  11.548 -0.6619 -0.4658  0.0085
 1446TIP3    H125829   2.504   2.984  11.500 -0.7131  1.2013  1.0745
 1446TIP3    H225830   2.465   2.918  11.631 -1.0116 -0.4565  0.1684
 1447TIP3   OH225831   3.125   4.087  10.653 -0.4426  0.1767 -0.7814
 1447TIP3    H125832   3.119   4.176  10.687 -1.1047 -0.2718  0.3022
 1447TIP3    H225833   3.213   4.081  10.617  0.4221  0.5298  1.2359
 1448TIP3   OH225834   3.666   2.960  12.274 -0.0260  0.3673  0.4372
 1448TIP3    H125835   3.666   2.903  12.351  1.1318 -0.7467 -0.3669
 1448TIP3    H225836   3.587   2.934  12.225  0.7311 -0.9091 -0.1553
 1449TIP3   OH225837   4.717   3.273  10.949 -0.1241 -0.3473  0.0969
 1449TIP3    H125838   4.691   3.307  11.035  0.1629  0.0437  0.0333
 1449TIP3    H225839   4.651   3.207  10.928 -1.2906  0.8748 -0.2223
 1450TIP3   OH225840   1.673   3.333  11.800  0.1108  0.0076  0.3252
 1450TIP3    H125841   1.621   3.360  11.876 -0.0860  1.8563 -0.4497
 1450TIP3    H225842   1.711   3.414  11.766  0.5554 -0.8506 -1.2899
 1451TIP3   OH225843   3.431   6.882   9.933  0.3171 -0.5931 -0.6294
 1451TIP3    H125844   3.340   6.873   9.903 -1.1035 -0.8200  3.3757
 1451TIP3    H225845   3.453   6.794   9.966  1.9409 -0.4885 -1.4137
 1452TIP3   OH225846   3.211   3.362  10.510  0.1869 -0.0592  0.4386
 1452TIP3    H125847   3.292   3.313  10.521  0.1581 -0.1202  0.3753
 1452TIP3    H225848   3.230   3.426  10.442  1.0784  1.8333  2.4200
 1453TIP3   OH225849   1.022   2.240  13.030 -0.2262 -0.0450  0.1546
 1453TIP3    H125850   1.033   2.331  13.059 -0.8216  0.2678 -0.5762
 1453TIP3    H225851   0.940   2.240  12.982  0.3009 -0.7461 -0.7651
 1454TIP3   OH225852   4.560   0.159  12.189  0.0917 -0.2625 -0.1717
 1454TIP3    H125853   4.513   0.116  12.118  0.6962  0.0371 -0.7499
 1454TIP3    H225854   4.513   0.132  12.268 -1.5541  0.6551 -0.8066
 1455TIP3   OH225855   3.700   1.873  10.517  0.2017 -0.5463 -0.2551
 1455TIP3    H125856   3.735   1.961  10.502 -0.5235 -0.1234  0.5038
 1455TIP3    H225857   3.660   1.849  10.433  1.5346 -0.6941 -0.8722
 1456TIP3   OH225858   1.446   2.800  13.552 -0.2107  0.2391 -0.0609
 1456TIP3    H125859   1.404   2.861  13.613  2.3962  1.5362  0.5104
 1456TIP3    H225860   1.526   2.845  13.525  1.0033 -2.3021 -0.8485
 1457TIP3   OH225861   1.391   0.225  14.195  0.3671  0.2442  0.1080
 1457TIP3    H125862   1.402   0.296  14.132 -0.5972 -0.3210 -0.7073
 1457TIP3    H225863   1.473   0.176  14.190 -0.1656 -0.4983 -1.6019
 1458TIP3   OH225864   1.899   4.761  10.069 -0.0828 -0.2749  0.5690
 1458TIP3    H125865   1.985   4.724  10.054  0.7218  2.6013 -2.3571
 1458TIP3    H225866   1.911   4.855  10.063 -3.6291  0.1672 -1.1527
 1459TIP3   OH225867   1.352   3.601  10.204  0.0285 -0.0740  0.0444
 1459TIP3    H125868   1.406   3.587  10.127 -1.5634 -2.0541 -0.7595
 1459TIP3    H225869   1.308   3.684  10.188  1.8717  0.9652  0.1761
 1460TIP3   OH225870   2.857   2.357  10.577  0.5096  0.0744 -0.2422
 1460TIP3    H125871   2.785   2.404  10.534  0.0519  0.1633  0.6149
 1460TIP3    H225872   2.813   2.287  10.626  0.9475  0.5394  0.8264
 1461TIP3   OH225873   5.148   3.139  10.938 -0.2870 -0.6819  0.6478
 1461TIP3    H125874   5.206   3.181  10.874 -0.9424 -0.8200 -0.0386
 1461TIP3    H225875   5.134   3.051  10.903  0.3058 -1.1621  1.5882
 1462TIP3   OH225876   6.167   1.835  11.009 -0.2877  0.0477  0.1381
 1462TIP3    H125877   6.197   1.835  11.100  0.9518  2.1820 -0.2289
 1462TIP3    H225878   6.112   1.913  11.002  0.1608  0.2758 -1.0951
 1463TIP3   OH225879   2.784   2.874  10.872 -0.5965  0.8993  0.5274
 1463TIP3    H125880   2.688   2.868  10.878 -0.5689  1.0386  1.1463
 1463TIP3    H225881   2.800   2.934  10.799 -0.9814  0.8013  0.3618
 1464TIP3   OH225882   4.560   1.992  10.580 -0.5702 -0.0052  0.0636
 1464TIP3    H125883   4.511   2.062  10.536 -0.0753  0.2014 -0.1591
 1464TIP3    H225884   4.538   2.003  10.672  0.9611  1.6154  0.2577
 1465TIP3   OH225885   4.032   3.589  11.455  0.2371  0.4920 -0.0798
 1465TIP3    H125886   4.082   3.527  11.402  1.2151 -0.8663  2.3515
 1465TIP3    H225887   3.985   3.642  11.391 -2.6517 -4.3529 -2.2923
 1466TIP3   OH225888   3.080   4.712  11.597  0.5136  1.1138  0.4155
 1466TIP3    H125889   2.993   4.701  11.558  0.2786 -1.0229  1.4531
 1466TIP3    H225890   3.126   4.631  11.574  1.3845  1.1475  2.0101
 1467TIP3   OH225891   3.621   2.893   9.938 -0.2123  0.1825  0.0056
 1467TIP3    H125892   3.573   2.810   9.938 -0.9682  0.6108 -0.3421
 1467TIP3    H225893   3.591   2.939   9.859  1.2194  0.2104 -0.5490
 1468TIP3   OH225894   3.248   3.854  10.370 -0.3207  0.0791 -1.0737
 1468TIP3    H125895   3.270   3.876  10.461 -0.8795 -0.1447 -0.8792
 1468TIP3    H225896   3.331   3.830  10.330 -0.4786 -2.9447  0.2655
 1469TIP3   OH225897   1.263   2.601  10.732 -0.0385 -0.2793  0.0240
 1469TIP3    H125898   1.338   2.659  10.716  0.6981 -1.9385 -2.8779
 1469TIP3    H225899   1.192   2.640  10.681 -0.7571  0.4931  1.6130
 1470TIP3   OH225900   3.050   4.160  12.301  0.1185 -0.2754  0.0959
 1470TIP3    H125901   3.004   4.129  12.379  0.0274 -0.5528 -0.0683
 1470TIP3    H225902   3.092   4.241  12.329 -3.2103  1.7805 -0.6925
 1471TIP3   OH225903   3.559   2.282  12.652 -0.2355 -0.0390 -0.0700
 1471TIP3    H125904   3.537   2.189  12.653  0.6257 -0.2435  1.6015
 1471TIP3    H225905   3.589   2.300  12.741 -0.4261  1.8458 -0.3836
 1472TIP3   OH225906   3.185   1.746  11.188 -0.4640 -0.0160  0.3679
 1472TIP3    H125907   3.274   1.712  11.200 -0.0783  1.9427  3.6321
 1472TIP3    H225908   3.198   1.832  11.149 -1.2543 -1.7701 -4.0317
 1473TIP3   OH225909   1.837   2.770  10.450  0.2701  0.7694  0.1888
 1473TIP3    H125910   1.859   2.711  10.378 -1.5713  1.4567 -0.9580
 1473TIP3    H225911   1.748   2.801  10.430  0.0976  1.6868  2.2674
 1474TIP3   OH225912   4.862   1.259  12.911 -0.0945  0.0777  0.2938
 1474TIP3    H125913   4.803   1.301  12.848 -2.4322  0.7019  2.8450
 1474TIP3    H225914   4.914   1.331  12.947  0.7624 -0.1941 -0.3581
 1475TIP3   OH225915   6.617   3.655  10.847  0.1427  0.0753  0.1522
 1475TIP3    H125916   6.653   3.735  10.885 -0.3202 -0.0434  0.8670
 1475TIP3    H225917   6.675   3.634  10.774  0.3983  0.9328  0.1068
 1476TIP3   OH225918   3.955   4.955  11.771 -0.2907 -0.0049  0.0459
 1476TIP3    H125919   4.016   4.919  11.707  1.2886  0.5090  1.2146
 1476TIP3    H225920   3.970   5.050  11.767 -0.6900  0.0868  0.6557
 1477TIP3   OH225921   1.569   1.562  10.157  0.4822 -0.2667 -0.0493
 1477TIP3    H125922   1.497   1.500  10.142  0.7973 -1.0174  1.4076
 1477TIP3    H225923   1.533   1.647  10.131 -0.4105 -0.8616 -0.8040
 1478TIP3   OH225924   2.632   1.664   9.732  0.0711  0.0164  0.1487
 1478TIP3    H125925   2.582   1.741   9.704 -2.3708 -1.2452  0.8625
 1478TIP3    H225926   2.633   1.607   9.655  1.1138  0.3771 -0.1082
 1479TIP3   OH225927   2.970   1.067  11.747  0.1787  0.2149  0.0103
 1479TIP3    H125928   2.959   1.118  11.667 -0.3045 -0.7352 -0.5368
 1479TIP3    H225929   2.992   1.132  11.814  1.9874  0.8707 -1.1723
 1480TIP3   OH225930   5.075   3.066  10.414  0.0066  0.2707 -0.7828
 1480TIP3    H125931   5.108   3.138  10.360  3.1825 -0.8243 -0.4142
 1480TIP3    H225932   4.985   3.090  10.434  0.3964  3.1765 -2.3059
 1481TIP3   OH225933   1.459   1.836  10.898  0.2925  0.1233  0.7266
 1481TIP3    H125934   1.542   1.862  10.938 -0.1435  0.2079  1.5941
 1481TIP3    H225935   1.464   1.868  10.809  3.0720 -3.6711 -0.6461
 1482TIP3   OH225936   2.738   2.169  10.366  0.0608 -0.2325  0.0439
 1482TIP3    H125937   2.662   2.217  10.333  0.1172 -0.9379 -1.1364
 1482TIP3    H225938   2.782   2.137  10.287  2.4653  1.4892  0.6147
 1483TIP3   OH225939   3.516   4.149  12.755 -0.1057 -0.2446  0.1522
 1483TIP3    H125940   3.500   4.244  12.751  0.6779  0.0251  2.4839
 1483TIP3    H225941   3.602   4.138  12.715 -0.3674 -0.0114 -0.4749
 1484TIP3   OH225942   6.372   0.829  10.807 -0.2073 -1.0124 -0.2131
 1484TIP3    H125943   6.344   0.881  10.732 -1.0116 -1.1415 -0.0029
 1484TIP3    H225944   6.461   0.802  10.785 -0.6353 -1.4999 -1.3597
 1485TIP3   OH225945   3.072   3.619  10.212  0.1533 -0.4473  0.4480
 1485TIP3    H125946   3.103   3.555  10.148  1.1988  0.0046  0.4906
 1485TIP3    H225947   3.144   3.628  10.274  0.5282  1.7109 -0.2594
 1486TIP3   OH225948   3.263   3.087  12.621 -0.1307  0.2799  0.3725
 1486TIP3    H125949   3.233   3.174  12.648  1.8875  1.3933 -0.8890
 1486TIP3    H225950   3.351   3.080  12.657  0.0831 -0.8660 -0.3571
 1487TIP3   OH225951   3.165   2.584  12.565  0.3396 -0.4339  0.5506
 1487TIP3    H125952   3.189   2.570  12.473  0.8405  0.2707  0.5719
 1487TIP3    H225953   3.181   2.500  12.607  1.1969 -0.4408  0.2257
 1488TIP3   OH225954   2.114   6.294  11.197 -0.6177 -0.2993  0.1439
 1488TIP3    H125955   2.118   6.201  11.174  0.2424  0.0074 -1.0080
 1488TIP3    H225956   2.078   6.336  11.120  3.1122  0.8639 -1.0815
 1489TIP3   OH225957   1.435   2.806  14.621  0.0379  0.3910  0.7423
 1489TIP3    H125958   1.346   2.789  14.593 -0.4833  2.4862  1.0711
 1489TIP3    H225959   1.454   2.896  14.592  1.4939  0.5166  1.9768
 1490TIP3   OH225960   0.969   6.879  10.698 -0.4207 -0.1439 -1.1841
 1490TIP3    H125961   0.891   6.930  10.720 -0.8081 -0.3119 -2.1391
 1490TIP3    H225962   0.954   6.793  10.739  0.3344  0.5656  0.6171
 1491TIP3   OH225963   2.299   4.015   9.812  0.0721  0.0883  0.8628
 1491TIP3    H125964   2.372   4.077   9.811 -1.5200  2.0013 -1.7432
 1491TIP3    H225965   2.318   3.956   9.739  0.5594 -1.3297  2.1062
 1492TIP3   OH225966   2.982   5.792  12.975  0.3644 -0.1063 -0.2923
 1492TIP3    H125967   2.956   5.868  13.028 -0.4380 -1.8753  1.9043
 1492TIP3    H225968   2.922   5.794  12.900 -0.7400  0.5049  0.5868
 1493TIP3   OH225969   4.828   3.570  12.619  0.8154 -0.5062  0.0158
 1493TIP3    H125970   4.811   3.510  12.546 -4.5816  0.4962  0.2872
 1493TIP3    H225971   4.817   3.657  12.582 -1.8822  0.0195  1.9418
 1494TIP3   OH225972   4.750   3.275  12.288 -0.3489 -0.0772  0.1746
 1494TIP3    H125973   4.835   3.289  12.330 -0.6374  1.4453  0.2473
 1494TIP3    H225974   4.713   3.200  12.336  1.1771 -1.1366 -0.2370
 1495TIP3   OH225975   2.648   4.600  10.653  0.1456 -0.0662 -0.1072
 1495TIP3    H125976   2.730   4.611  10.604  0.4428  0.2051  0.4501
 1495TIP3    H225977   2.675   4.593  10.744 -0.5548  1.5115  0.2433
 1496TIP3   OH225978   3.640   6.753  10.900  0.1951  0.1798 -0.2248
 1496TIP3    H125979   3.586   6.739  10.822  2.8041  0.1721 -2.0601
 1496TIP3    H225980   3.685   6.670  10.913 -0.8260 -0.1036  1.8385
 1497TIP3   OH225981   3.061   2.514  11.571  0.1045  0.0591 -0.1402
 1497TIP3    H125982   3.039   2.425  11.543 -0.9640 -0.1827  1.3823
 1497TIP3    H225983   3.154   2.510  11.592 -0.0114 -0.8052  0.2527
 1498TIP3   OH225984   3.324   0.896  11.338 -0.6170  0.0068  0.1359
 1498TIP3    H125985   3.252   0.894  11.275 -0.7647 -0.7766  0.3218
 1498TIP3    H225986   3.323   0.809  11.378  0.3845  0.0196  0.1977
 1499TIP3   OH225987   3.234   2.926  13.319 -0.5572  0.5335  0.7003
 1499TIP3    H125988   3.271   2.877  13.392 -0.7232  1.4098  1.3832
 1499TIP3    H225989   3.150   2.958  13.352 -1.5878 -0.8000 -0.5721
 1500TIP3   OH225990   1.344   2.447   9.883  0.4655 -0.1503 -0.2496
 1500TIP3    H125991   1.421   2.411   9.927  0.8359  1.4872  0.4821
 1500TIP3    H225992   1.327   2.530   9.929 -2.0494 -0.7387 -0.0295
 1501TIP3   OH225993   1.138   2.696  11.195  0.1931 -0.5203  0.1590
 1501TIP3    H125994   1.049   2.693  11.159 -0.2285  0.9536  1.0211
 1501TIP3    H225995   1.135   2.635  11.269 -0.3495  0.1296  0.6835
 1502TIP3   OH225996   4.283   3.586  10.764 -0.5962 -0.1648 -0.1328
 1502TIP3    H125997   4.230   3.507  10.763 -2.1599  0.8820 -2.0994
 1502TIP3    H225998   4.370   3.557  10.735  0.0375 -1.9035  3.2170
 1503TIP3   OH225999   3.796   2.252   9.881 -0.5293  0.1226 -0.1997
 1503TIP3    H126000   3.724   2.316   9.885 -0.0394  0.7049 -0.5291
 1503TIP3    H226001   3.757   2.174   9.841 -0.9792  0.4344 -0.3720
 1504TIP3   OH226002   1.816   3.987   9.657 -0.8399  0.0046 -0.1252
 1504TIP3    H126003   1.765   3.984   9.576 -2.4789 -0.1105  0.8868
 1504TIP3    H226004   1.767   4.047   9.714  0.8327  0.8783  0.4261
 1505TIP3   OH226005   1.582   6.991  11.339 -0.1729 -0.0076  0.0276
 1505TIP3    H126006   1.562   6.977  11.246 -0.0052  0.0803 -0.0228
 1505TIP3    H226007   1.674   6.967  11.348  1.1080  4.1223 -0.7852
 1506TIP3   OH226008   3.468   2.701  10.177 -0.0615  0.0995 -0.2031
 1506TIP3    H126009   3.445   2.609  10.189  0.6816 -0.0467  0.1356
 1506TIP3    H226010   3.424   2.726  10.095 -1.5046 -0.1204  0.5005
 1507TIP3   OH226011   2.199   1.463  11.421 -0.2391  0.8185  0.6544
 1507TIP3    H126012   2.151   1.409  11.358  0.3550  0.5231  0.4552
 1507TIP3    H226013   2.270   1.502  11.370  0.4951  0.2395  1.2429
 1508TIP3   OH226014   2.536   1.882  12.143 -0.0536 -0.2863  0.5071
 1508TIP3    H126015   2.451   1.847  12.169  0.3469 -0.6934  1.2614
 1508TIP3    H226016   2.578   1.908  12.224  0.4726  0.0848  0.1199
 1509TIP3   OH226017   3.834   2.990  11.539 -0.1683 -0.1588  0.3897
 1509TIP3    H126018   3.740   3.005  11.529  0.0648  2.1771  1.5315
 1509TIP3    H226019   3.840   2.913  11.596 -1.3798  0.0256  0.7721
 1510TIP3   OH226020   3.944   3.061  11.278  0.1244 -0.2633  0.2964
 1510TIP3    H126021   3.926   3.068  11.372  0.6691 -0.1483  0.3931
 1510TIP3    H226022   3.878   2.998  11.246 -0.4421  0.1477  0.6420
 1511TIP3   OH226023   4.895   4.553  11.227 -0.2118  0.7850 -0.1588
 1511TIP3    H126024   4.801   4.570  11.220 -0.1697  1.1889  0.2290
 1511TIP3    H226025   4.915   4.566  11.320 -0.1208 -1.1232  0.1027
 1512TIP3   OH226026   1.769   3.988  12.095 -0.2643 -0.1347  0.1439
 1512TIP3    H126027   1.824   3.930  12.149 -1.6480 -1.3201  0.3287
 1512TIP3    H226028   1.765   3.944  12.010 -0.9772 -0.1127  0.1609
 1513TIP3   OH226029   5.621   3.375  10.557 -0.1231  0.1564 -0.2556
 1513TIP3    H126030   5.593   3.284  10.547  0.7536 -0.2603  0.9534
 1513TIP3    H226031   5.540   3.424  10.572 -0.6821 -0.2875 -1.7787
 1514TIP3   OH226032   6.607   3.124  12.020  0.1615 -0.2462 -0.1534
 1514TIP3    H126033   6.558   3.122  12.102  0.0750 -0.2182 -0.2049
 1514TIP3    H226034   6.699   3.125  12.048  0.1309 -0.0789 -0.0528
 1515TIP3   OH226035   6.310   5.577  10.616  0.2136  0.7393  0.2554
 1515TIP3    H126036   6.262   5.538  10.688  0.0909 -0.3394 -0.3953
 1515TIP3    H226037   6.325   5.505  10.555  2.9296  0.9667  0.5694
 1516TIP3   OH226038   6.034   2.580  10.501  0.2244  0.0135  0.2152
 1516TIP3    H126039   6.071   2.622  10.579  0.8458 -0.6424  0.2805
 1516TIP3    H226040   6.109   2.564  10.444 -0.2750  0.8166 -0.6855
 1517TIP3   OH226041   4.571   3.101  10.265 -0.0651 -0.2907 -0.1059
 1517TIP3    H126042   4.540   3.188  10.241  1.1186  0.6578  1.7146
 1517TIP3    H226043   4.491   3.051  10.282 -0.7253  0.7123 -0.1997
 1518TIP3   OH226044   4.164   4.690   9.878 -0.3594 -0.2819 -0.2880
 1518TIP3    H126045   4.199   4.766   9.831 -1.7566  0.9254  0.5530
 1518TIP3    H226046   4.069   4.695   9.864 -0.5010 -1.6078  0.1593
 1519TIP3   OH226047   3.942   3.043  13.741 -0.0300  0.1227  0.0509
 1519TIP3    H126048   3.872   3.020  13.680  0.5133  0.7454 -0.7997
 1519TIP3    H226049   3.915   3.127  13.777 -0.8394 -0.6978  1.4134
 1520TIP3   OH226050   1.138   1.710  11.432 -0.5520  0.1380 -0.0073
 1520TIP3    H126051   1.209   1.652  11.404 -0.0194  1.2302 -0.9192
 1520TIP3    H226052   1.167   1.746  11.515 -0.6757 -0.5128  0.3268
 1521TIP3   OH226053   4.555   1.817  12.408  0.1829  0.2478  0.1367
 1521TIP3    H126054   4.529   1.736  12.364 -0.9249  0.1470  0.9526
 1521TIP3    H226055   4.494   1.883  12.375  0.5907  0.5835  0.0570
 1522TIP3   OH226056   3.865   1.903  11.827  0.1205  0.4423 -0.1822
 1522TIP3    H126057   3.933   1.900  11.759  0.0394  0.6046 -0.2696
 1522TIP3    H226058   3.885   1.829  11.884  1.2399  1.3590  0.6285
 1523TIP3   OH226059   6.728   2.467  12.943  0.4367 -0.6252  0.6769
 1523TIP3    H126060   6.776   2.477  12.861 -0.8800  1.2668  0.1014
 1523TIP3    H226061   6.717   2.373  12.953  1.9513 -0.9540 -0.5252
 1524TIP3   OH226062   4.872   3.233  12.630  0.5569 -0.2287 -0.4006
 1524TIP3    H126063   4.808   3.279  12.685  0.9245  0.7594 -0.7909
 1524TIP3    H226064   4.820   3.167  12.585  0.8530 -3.6543  3.9259
 1525TIP3   OH226065   3.400   2.443  10.402  0.7291 -0.0083 -0.6439
 1525TIP3    H126066   3.376   2.481  10.318  1.2906  0.5691 -0.5445
 1525TIP3    H226067   3.420   2.518  10.458  1.2479 -0.4165 -0.2670
 1526TIP3   OH226068   1.734   0.469  14.977 -0.0444 -0.2252 -0.0015
 1526TIP3    H126069   1.826   0.464  15.000 -0.1310 -0.4012  0.3093
 1526TIP3    H226070   1.706   0.378  14.970 -0.8522 -0.2262  2.5683
 1527TIP3   OH226071   5.958   2.673  11.949  0.1435  0.0526  0.5674
 1527TIP3    H126072   5.920   2.742  11.895  2.4914 -0.4373 -1.7823
 1527TIP3    H226073   6.014   2.719  12.011 -1.3828  0.4999  1.6540
 1528TIP3   OH226074   7.333   3.141   9.778  0.2534 -0.4551 -0.1570
 1528TIP3    H126075   7.345   3.062   9.725  0.9615 -1.9763  2.1733
 1528TIP3    H226076   7.400   3.133   9.846  1.6535  3.1656 -1.0101
 1529TIP3   OH226077   3.051   2.738  13.556 -0.3963  0.5127 -0.0363
 1529TIP3    H126078   2.973   2.786  13.583 -0.8079 -0.8287  1.2981
 1529TIP3    H226079   3.034   2.711  13.466 -1.6364 -0.0670  0.3636
 1530TIP3   OH226080   4.919   1.801  10.541  0.3738 -0.3305  0.1307
 1530TIP3    H126081   4.934   1.708  10.525  1.1993  0.0136 -1.0944
 1530TIP3    H226082   4.991   1.828  10.597 -0.7709 -0.7946  1.8700
 1531TIP3   OH226083   4.821   0.995  11.416 -0.2766  0.3209  0.3941
 1531TIP3    H126084   4.797   0.934  11.487  0.0827  0.4965  0.6652
 1531TIP3    H226085   4.753   0.982  11.350  0.1487 -0.8380  0.1757
 1532TIP3   OH226086   6.229   1.813  10.150 -1.1001 -0.5471 -0.0604
 1532TIP3    H126087   6.185   1.897  10.137 -0.8989 -0.2500  1.1370
 1532TIP3    H226088   6.276   1.797  10.068  0.1032  1.2397  0.2595
 1533TIP3   OH226089   4.611   3.541  10.686  0.2597 -0.7058  0.3222
 1533TIP3    H126090   4.675   3.476  10.716  1.2273 -0.3916 -1.0217
 1533TIP3    H226091   4.653   3.582  10.610 -1.3368 -0.1611 -0.2736
 1534TIP3   OH226092   5.723   2.003  10.545  0.5591  0.2967  0.5498
 1534TIP3    H126093   5.784   2.074  10.524 -0.8054  2.2279  2.7694
 1534TIP3    H226094   5.686   2.028  10.630 -0.1644 -2.9776  1.2699
 1535TIP3   OH226095   4.468   2.023  11.813  0.6449  0.6003  0.4097
 1535TIP3    H126096   4.427   2.089  11.869  0.6838  1.5901 -0.7103
 1535TIP3    H226097   4.474   1.946  11.869 -1.1563  0.9534  1.1464
 1536TIP3   OH226098   4.800   2.966  10.468 -0.2056  0.9143 -0.6167
 1536TIP3    H126099   4.762   2.963  10.380 -0.7824  1.2242 -0.3832
 1536TIP3    H226100   4.804   3.059  10.489  1.8000  0.9649 -1.1011
 1537TIP3   OH226101   5.145   3.195   9.384 -0.6653 -0.0173  0.3199
 1537TIP3    H126102   5.168   3.174   9.293  0.6248 -1.1297  0.8845
 1537TIP3    H226103   5.221   3.243   9.417 -0.7721 -0.3577  1.0704
 1538TIP3   OH226104   5.556   3.717  11.689 -0.3522 -0.3754 -0.3188
 1538TIP3    H126105   5.504   3.710  11.609  0.9105  0.4724 -1.2431
 1538TIP3    H226106   5.492   3.720  11.760 -1.4423 -2.9653 -1.1492
 1539TIP3   OH226107   6.430   2.821  11.647 -0.5322  0.2834 -0.5089
 1539TIP3    H126108   6.380   2.878  11.589 -0.7053  1.1481  0.4770
 1539TIP3    H226109   6.467   2.880  11.713 -1.0441 -0.7865  0.7565
 1540TIP3   OH226110   6.128   2.579  10.160 -0.0929 -0.4043  0.2493
 1540TIP3    H126111   6.109   2.634  10.236  0.0782 -0.0411  0.0305
 1540TIP3    H226112   6.116   2.637  10.085  2.2205 -0.0578  0.1201
 1541TIP3   OH226113   4.098   2.829  10.849  0.2400 -0.2168 -0.0127
 1541TIP3    H126114   4.163   2.854  10.784 -0.9077 -2.9760 -2.3196
 1541TIP3    H226115   4.033   2.899  10.847  0.5710  0.0623 -1.3586
 1542TIP3   OH226116   5.089   2.235  10.869 -0.3989  0.2888 -0.1105
 1542TIP3    H126117   5.017   2.260  10.810 -0.4308  1.9188  0.5991
 1542TIP3    H226118   5.168   2.257  10.821 -0.4166  1.1772  0.2729
 1543TIP3   OH226119   5.051   2.684  11.559  0.0353  0.4733 -0.7562
 1543TIP3    H126120   5.086   2.734  11.486 -0.2206 -0.3328 -1.4334
 1543TIP3    H226121   4.958   2.705  11.560 -0.1366 -0.2594 -1.2598
 1544TIP3   OH226122   6.145   2.478  10.752  0.2970  0.3413 -0.4538
 1544TIP3    H126123   6.074   2.476  10.816 -0.0896  0.8870 -0.8681
 1544TIP3    H226124   6.220   2.438  10.798 -0.2346 -0.1190  0.0218
 1545TIP3   OH226125   3.524   3.681  12.992 -0.1776  0.9892  0.0799
 1545TIP3    H126126   3.612   3.717  12.999  0.1515  0.5281 -1.6629
 1545TIP3    H226127   3.476   3.722  13.064  1.4037  1.3685  0.9373
 1546TIP3   OH226128   4.016   0.878  11.512 -0.0659 -0.2030  0.1488
 1546TIP3    H126129   4.088   0.862  11.572  0.7838 -1.6792 -1.2218
 1546TIP3    H226130   3.995   0.792  11.476 -0.4498  0.6527 -1.7617
 1547TIP3   OH226131   4.966   2.940  11.291  0.4177 -0.7057 -1.0192
 1547TIP3    H126132   4.994   2.966  11.379 -0.6190 -1.9136 -0.3090
 1547TIP3    H226133   4.969   3.021  11.240 -1.6848  0.5935  0.8397
 1548TIP3   OH226134   5.131   3.051   9.644  0.1847  0.3397 -0.0876
 1548TIP3    H126135   5.164   3.120   9.702  0.4960 -0.5118  0.7647
 1548TIP3    H226136   5.110   3.096   9.562  1.0915  1.3180  0.2109
 1549TIP3   OH226137   3.469   1.363  12.129 -0.2581  0.1162  0.3570
 1549TIP3    H126138   3.423   1.431  12.079 -0.3630 -1.8507 -2.3229
 1549TIP3    H226139   3.419   1.283  12.114  2.1193 -1.3862  0.1607
 1550TIP3   OH226140   5.316   2.921   9.847 -0.1929 -0.2151  0.5938
 1550TIP3    H126141   5.290   2.893   9.759  0.4098  0.6105  0.1474
 1550TIP3    H226142   5.304   3.016   9.847 -0.0015 -0.1851  1.3394
 1551TIP3   OH226143   5.164   3.621  12.879  0.2500  0.2288 -0.4213
 1551TIP3    H126144   5.130   3.656  12.797  0.8316 -1.5227 -1.4541
 1551TIP3    H226145   5.161   3.526  12.867  1.1220 -0.0332  1.2623
 1552TIP3   OH226146   5.732   2.837   9.836 -0.3350 -0.5380  0.0194
 1552TIP3    H126147   5.638   2.822   9.832 -0.5988  0.6309  1.5501
 1552TIP3    H226148   5.744   2.924   9.800 -0.0507  0.0564  1.5202
 1553TIP3   OH226149   5.843   2.678  10.030  0.0729  0.1100  0.3104
 1553TIP3    H126150   5.781   2.724   9.973 -0.0917 -2.6804 -1.8542
 1553TIP3    H226151   5.929   2.713  10.004 -0.1676  0.2896 -0.2591
 1554TIP3   OH226152   3.074   3.822  10.668 -0.4471  0.4916 -0.0981
 1554TIP3    H126153   3.120   3.797  10.748 -0.7228 -0.7665 -0.3200
 1554TIP3    H226154   3.120   3.899  10.637  1.3740 -0.6071 -0.1830
 1555TIP3   OH226155   6.237   2.276   9.926  0.3059 -0.3341 -0.9376
 1555TIP3    H126156   6.254   2.203   9.866 -0.9875 -0.0007 -1.7150
 1555TIP3    H226157   6.196   2.343   9.872 -3.4329 -1.0691  0.7959
 1556TIP3   OH226158   7.241   3.586  12.447  0.1892 -0.2212  0.2889
 1556TIP3    H126159   7.169   3.529  12.419  0.5169  0.8232 -2.8268
 1556TIP3    H226160   7.208   3.675  12.432  1.6915  0.3029  0.0310
 1557TIP3   OH226161   4.171   3.133  13.643 -0.0789 -0.0659  0.3382
 1557TIP3    H126162   4.096   3.080  13.671  0.5611 -0.7783  0.7318
 1557TIP3    H226163   4.200   3.094  13.561  0.2622 -0.1950  0.5186
 1558TIP3   OH226164   5.957   4.586  10.404  0.0589 -0.2717 -0.0427
 1558TIP3    H126165   6.008   4.583  10.323  1.2412  0.4450  0.6659
 1558TIP3    H226166   5.906   4.504  10.403  2.7474 -2.0090  0.2072
 1559TIP3   OH226167   3.565   3.744  10.702  0.0872  0.0146 -0.9520
 1559TIP3    H126168   3.511   3.683  10.752  2.3884 -0.7401  0.7570
 1559TIP3    H226169   3.555   3.828  10.748  1.0655 -0.3419 -0.0661
 1560TIP3   OH226170   6.460   2.212  12.126 -0.6245 -0.6889 -0.3707
 1560TIP3    H126171   6.529   2.278  12.121 -1.6987  0.4296 -0.9897
 1560TIP3    H226172   6.484   2.147  12.060 -0.1864 -0.2758 -0.6225
 1561TIP3   OH226173   6.140   4.921  10.769 -0.1451 -0.2953 -0.2056
 1561TIP3    H126174   6.140   4.857  10.698  1.3240  0.6386 -1.0625
 1561TIP3    H226175   6.148   5.006  10.726 -2.2774  0.5392  0.9091
 1562TIP3   OH226176   3.860   3.345  12.630 -0.4693 -0.4145  0.6162
 1562TIP3    H126177   3.885   3.392  12.710  3.2278 -0.7507 -0.2170
 1562TIP3    H226178   3.842   3.256  12.660  1.7659 -0.7697  1.0186
 1563TIP3   OH226179   3.733   4.123  11.674  0.3010  0.3954  0.5979
 1563TIP3    H126180   3.693   4.067  11.607  2.7614  0.2184 -0.7773
 1563TIP3    H226181   3.757   4.063  11.744 -1.0766  0.3845  1.0653
 1564TIP3   OH226182   5.483   1.909  12.463  0.4225 -0.1282  0.1133
 1564TIP3    H126183   5.487   1.967  12.387  1.8671 -0.7755 -0.3138
 1564TIP3    H226184   5.564   1.858  12.460  0.9425  0.4652  2.6107
 1565TIP3   OH226185   5.819   2.927  11.848  0.0591  0.2243  0.4124
 1565TIP3    H126186   5.737   2.904  11.893 -0.2167  1.4790  0.5835
 1565TIP3    H226187   5.794   2.942  11.757  0.2518 -0.2329  0.2820
 1566TIP3   OH226188   5.693   0.877  11.156 -0.1965 -0.5055 -0.6146
 1566TIP3    H126189   5.731   0.843  11.075 -1.2792  0.2337 -1.4470
 1566TIP3    H226190   5.714   0.971  11.154  1.3337 -0.7873  0.8539
 1567TIP3   OH226191   5.435   2.024  10.395  0.7339  0.9357 -0.2317
 1567TIP3    H126192   5.380   2.100  10.413 -0.5314 -0.3269  1.3597
 1567TIP3    H226193   5.523   2.061  10.381  0.0405  2.7235 -0.0229
 1568TIP3   OH226194   3.269   2.754  11.772 -0.1296 -0.0588  0.6966
 1568TIP3    H126195   3.208   2.793  11.708 -0.0714  1.8531  1.7669
 1568TIP3    H226196   3.287   2.667  11.737 -1.6147  0.2286 -0.8917
 1569TIP3   OH226197   3.946   0.784  12.557  0.3427  0.0650  0.1335
 1569TIP3    H126198   4.028   0.734  12.558 -1.0568 -2.2855  1.5445
 1569TIP3    H226199   3.909   0.768  12.470 -0.7028 -2.4431  1.0067
 1570TIP3   OH226200   6.806   2.442  11.415 -0.5694 -0.3716  0.5189
 1570TIP3    H126201   6.846   2.529  11.420  0.7592 -0.8145 -1.8542
 1570TIP3    H226202   6.880   2.382  11.406 -1.5131 -1.7135  1.5823
 1571TIP3   OH226203   2.917   3.908  13.162  0.0012 -0.4104 -0.1242
 1571TIP3    H126204   2.922   3.922  13.256  0.3543 -0.7152 -0.0931
 1571TIP3    H226205   2.912   3.996  13.124  1.8777 -0.1818  0.0804
 1572TIP3   OH226206   2.839   2.771  12.498  0.2632 -0.3483 -0.1198
 1572TIP3    H126207   2.840   2.722  12.416  1.2092  0.5222 -0.6480
 1572TIP3    H226208   2.759   2.823  12.494 -0.6288 -1.6793  0.3432
 1573TIP3   OH226209   5.183   0.592  11.457  0.3446  0.0298 -0.0361
 1573TIP3    H126210   5.201   0.605  11.550 -0.8678  1.6681  0.0005
 1573TIP3    H226211   5.205   0.675  11.416 -1.5919  0.2030 -0.8060
 1574TIP3   OH226212   4.972   3.561  12.009 -0.5565 -0.1796 -0.7799
 1574TIP3    H126213   4.967   3.650  11.972  1.3333 -0.0929 -0.8498
 1574TIP3    H226214   4.898   3.515  11.969 -1.0819  1.1257 -1.3649
 1575TIP3   OH226215   6.309   1.652  10.831 -0.0266 -0.1359 -0.1576
 1575TIP3    H126216   6.273   1.723  10.884 -1.2755 -0.4215 -0.6026
 1575TIP3    H226217   6.297   1.681  10.741 -0.8958 -1.0783 -0.3504
 1576TIP3   OH226218   6.013   0.495  11.409  0.2175 -0.0551 -0.1847
 1576TIP3    H126219   6.018   0.457  11.321  1.2542  1.0878 -0.6273
 1576TIP3    H226220   5.930   0.462  11.444  0.0190 -0.9027 -1.4049
 1577TIP3   OH226221   2.898   3.142  10.257 -0.0410  0.8370  1.1215
 1577TIP3    H126222   2.812   3.181  10.275 -0.7509 -0.1502 -0.0086
 1577TIP3    H226223   2.934   3.196  10.186 -0.1090  0.7313  1.0046
 1578TIP3   OH226224   4.449   2.215  10.173 -0.3302  0.9612  0.2746
 1578TIP3    H126225   4.504   2.272  10.120  0.4780  1.3782  1.5540
 1578TIP3    H226226   4.372   2.198  10.118  0.0912  2.0961 -0.6765
 1579TIP3   OH226227   0.052   0.458  13.041 -0.3635  0.2041  0.5768
 1579TIP3    H126228  -0.022   0.426  13.094 -0.8454  0.9202  0.3430
 1579TIP3    H226229   0.048   0.407  12.961  0.0802 -0.5520  1.0285
 1580TIP3   OH226230   5.076   4.432  11.535  0.4213  0.9189 -0.0596
 1580TIP3    H126231   4.986   4.413  11.508  2.0258 -1.8316 -3.8719
 1580TIP3    H226232   5.073   4.433  11.631 -3.3042 -0.9333 -0.1001
 1581TIP3   OH226233   6.066   1.647  13.823  0.2160 -0.3409  0.2725
 1581TIP3    H126234   5.978   1.641  13.788 -0.2516 -2.5224  1.7469
 1581TIP3    H226235   6.120   1.601  13.758  0.2607  0.7269 -0.4730
 1582TIP3   OH226236   5.268   2.266  10.282 -0.2493  0.3555  0.6903
 1582TIP3    H126237   5.295   2.246  10.193 -0.3927  1.5864  0.3653
 1582TIP3    H226238   5.333   2.329  10.314 -1.0008  1.0195  0.9486
 1583TIP3   OH226239   5.785   1.715  12.807  0.2625  0.0547 -0.1645
 1583TIP3    H126240   5.752   1.643  12.859  2.5847  0.0281  1.3460
 1583TIP3    H226241   5.708   1.768  12.786 -1.2961 -2.2861 -0.4095
 1584TIP3   OH226242   2.061   2.116  12.894  0.4735 -0.6183  0.0710
 1584TIP3    H126243   2.081   2.174  12.821 -0.4065  1.2634  1.2674
 1584TIP3    H226244   1.966   2.126  12.906  0.5129 -1.3919  1.0446
 1585TIP3   OH226245   3.197   1.018  11.028  0.7944 -0.8298 -0.4812
 1585TIP3    H126246   3.259   0.946  11.019  0.7273 -1.1720  1.4853
 1585TIP3    H226247   3.148   0.998  11.108 -0.6661  0.3282 -1.0480
 1586TIP3   OH226248   5.379   3.739  11.149 -0.5117  0.0665 -0.2385
 1586TIP3    H126249   5.420   3.669  11.098  0.2721  0.8627 -0.7333
 1586TIP3    H226250   5.402   3.819  11.101 -0.7797  0.7156  0.7113
 1587TIP3   OH226251   3.244   1.903  12.475  0.5311 -0.2597  0.2596
 1587TIP3    H126252   3.288   1.819  12.461 -3.7685 -2.8145  1.2005
 1587TIP3    H226253   3.226   1.935  12.386  1.6478 -0.6362 -0.1113
 1588TIP3   OH226254   4.626   2.340  11.357  0.3243  0.3084  0.6089
 1588TIP3    H126255   4.628   2.252  11.321 -1.1804  0.4249  0.1820
 1588TIP3    H226256   4.633   2.398  11.281  1.5303  0.5668  0.9068
 1589TIP3   OH226257   2.233   3.314  10.652  0.3381 -0.1381 -0.3956
 1589TIP3    H126258   2.249   3.221  10.639 -0.0634 -0.6615  2.5180
 1589TIP3    H226259   2.145   3.329  10.615 -0.3182 -1.2815  0.7019
 1590TIP3   OH226260   3.111   3.437  12.403 -0.1661 -0.1320 -0.2356
 1590TIP3    H126261   3.059   3.357  12.411 -0.0893  0.0061  1.7818
 1590TIP3    H226262   3.190   3.409  12.357 -0.1912 -1.1854  0.3494
 1591TIP3   OH226263   4.472   1.851  13.751  0.2678 -0.3717 -0.2296
 1591TIP3    H126264   4.388   1.896  13.761 -0.5784 -2.0684  0.6286
 1591TIP3    H226265   4.532   1.897  13.810 -0.4919 -0.1562  0.3831
 1592TIP3   OH226266   3.526   1.554  10.815  0.1280  0.1117 -0.5410
 1592TIP3    H126267   3.563   1.636  10.782  1.1165  0.4134  1.2452
 1592TIP3    H226268   3.557   1.487  10.753  0.2586  0.9368 -1.3724
 1593TIP3   OH226269   4.179   1.353  10.818 -0.1054 -0.4235 -0.2241
 1593TIP3    H126270   4.249   1.297  10.852 -1.0818 -1.0947  0.7304
 1593TIP3    H226271   4.161   1.318  10.731  1.7081  0.6528 -1.0663
 1594TIP3   OH226272   0.368   4.792  11.029  0.1415 -0.2312 -0.2287
 1594TIP3    H126273   0.309   4.868  11.023  1.3307  0.8785  1.7547
 1594TIP3    H226274   0.356   4.747  10.945 -0.8141  1.9763 -1.3447
 1595TIP3   OH226275   5.994   4.606   9.888 -0.0717  0.3925  0.8068
 1595TIP3    H126276   5.974   4.529   9.940 -1.0453 -0.3535 -0.6299
 1595TIP3    H226277   5.946   4.593   9.806 -0.5596  2.7195  0.6949
 1596TIP3   OH226278   3.456   2.541  11.861  0.1722  0.0496  0.4234
 1596TIP3    H126279   3.508   2.483  11.917  0.0390 -1.2820 -0.7965
 1596TIP3    H226280   3.507   2.622  11.857  1.0598 -0.4706  1.0356
 1597TIP3   OH226281   4.346   2.709  11.795 -0.5566  0.0563  0.0395
 1597TIP3    H126282   4.259   2.749  11.793  0.3171  1.9941 -0.5191
 1597TIP3    H226283   4.406   2.783  11.804  0.9472 -1.3907  2.4026
 1598TIP3   OH226284   3.357   3.931  10.603 -0.6288  0.0885 -0.0574
 1598TIP3    H126285   3.364   3.851  10.654 -1.2108 -0.2705 -0.5342
 1598TIP3    H226286   3.447   3.952  10.580 -0.5942 -1.3779 -1.3622
 1599TIP3   OH226287   3.695   3.369  10.370 -0.0993  0.2919 -0.3317
 1599TIP3    H126288   3.720   3.460  10.359  0.0317  0.2514 -0.3806
 1599TIP3    H226289   3.661   3.343  10.284 -0.9572  0.5436 -0.0746
 1600TIP3   OH226290   6.297   3.030  11.026  0.2613  0.4140  0.5362
 1600TIP3    H126291   6.218   3.070  10.989 -0.1587 -0.3707  0.5560
 1600TIP3    H226292   6.274   3.013  11.118  0.9807  1.5370  0.9318
 1601TIP3   OH226293   4.777   3.223  10.537  0.0974 -0.5140  0.0561
 1601TIP3    H126294   4.804   3.268  10.618  1.6698 -0.9461 -0.2035
 1601TIP3    H226295   4.711   3.281  10.498  1.2629  1.0224  0.3123
 1602TIP3   OH226296   4.867   3.591  10.156  0.0082 -0.1601  0.6082
 1602TIP3    H126297   4.923   3.527  10.112 -0.9902 -0.0138 -0.9281
 1602TIP3    H226298   4.904   3.599  10.244  1.5879 -1.0439  0.0485
 1603TIP3   OH226299   4.720   1.658  12.581 -0.1174  0.1563 -0.7398
 1603TIP3    H126300   4.809   1.658  12.546 -0.1977 -0.9100 -0.9882
 1603TIP3    H226301   4.670   1.714  12.521  0.1983  0.0120 -1.1387
 1604TIP3   OH226302   3.322   0.994  11.891 -0.2538 -0.4196  0.1869
 1604TIP3    H126303   3.282   0.907  11.884 -0.0346 -0.5032 -0.0387
 1604TIP3    H226304   3.347   1.016  11.801  0.8617 -0.6833  0.4212
 1605TIP3   OH226305   4.279   1.651  11.173 -0.2876  0.3986  0.3961
 1605TIP3    H126306   4.308   1.570  11.216 -2.9022 -0.9515 -0.2697
 1605TIP3    H226307   4.193   1.669  11.210 -0.4210  1.9840 -0.6447
 1606TIP3   OH226308   5.349   2.294  10.707  0.4794 -0.3324 -0.2911
 1606TIP3    H126309   5.403   2.321  10.632 -1.1390  1.0415 -0.9882
 1606TIP3    H226310   5.333   2.201  10.692 -0.8939  0.1916 -2.3808
 1607TIP3   OH226311   4.710   2.630  10.254 -0.2329  0.0718  0.1789
 1607TIP3    H126312   4.626   2.594  10.225  0.0284  0.7184 -1.4264
 1607TIP3    H226313   4.754   2.656  10.174  1.7460 -0.7410  0.9558
 1608TIP3   OH226314   3.608   1.430  10.590 -0.0365 -0.7130 -0.0909
 1608TIP3    H126315   3.664   1.419  10.512 -0.5590 -1.8757 -0.3079
 1608TIP3    H226316   3.547   1.499  10.565 -0.0605 -0.9263 -0.6454
 1609TIP3   OH226317   6.701   3.849  10.448  0.4542 -0.4453 -0.0339
 1609TIP3    H126318   6.620   3.858  10.398  0.1097 -2.5425  0.1168
 1609TIP3    H226319   6.764   3.815  10.385  1.7412  2.8066 -0.6004
 1610TIP3   OH226320   3.265   1.810  11.950  0.4187 -0.2950  0.3023
 1610TIP3    H126321   3.224   1.892  11.975  0.8059 -0.8892  3.0449
 1610TIP3    H226322   3.218   1.783  11.871 -3.0132  0.1304  2.0977
 1611TIP3   OH226323   4.667   0.891  10.419  0.4726  0.4189  0.0196
 1611TIP3    H126324   4.717   0.829  10.364 -0.0106  0.5858 -0.6186
 1611TIP3    H226325   4.644   0.840  10.497 -0.7804 -0.5390 -0.9426
 1612TIP3   OH226326   4.793   2.763  11.213 -0.0129 -0.2572  0.4546
 1612TIP3    H126327   4.846   2.825  11.263  1.3524 -0.8097 -0.2946
 1612TIP3    H226328   4.805   2.790  11.121  0.5972 -1.6311  0.1250
 1613TIP3   OH226329   7.154   1.528  11.174  0.2131  0.8350  0.1040
 1613TIP3    H126330   7.146   1.464  11.103 -0.0934  1.2202 -0.2137
 1613TIP3    H226331   7.242   1.515  11.208 -0.3176 -0.6491  0.9219
 1614TIP3   OH226332   5.011   3.369  10.052 -0.3688  0.1984  0.1149
 1614TIP3    H126333   5.102   3.339  10.042 -0.0862  1.5490 -1.8123
 1614TIP3    H226334   4.963   3.320   9.985 -1.2839 -1.2427  1.7831
 1615TIP3   OH226335   6.605   6.997  11.753 -0.0437 -0.5572 -0.3473
 1615TIP3    H126336   6.560   6.913  11.741  1.7429 -1.4461 -1.1488
 1615TIP3    H226337   6.650   7.011  11.669 -0.0362  1.0131 -0.0820
 1616TIP3   OH226338   4.225   3.954  12.663 -0.3418  0.5387 -0.0582
 1616TIP3    H126339   4.315   3.976  12.640 -0.7478  3.1702  0.7169
 1616TIP3    H226340   4.228   3.937  12.757 -0.5546  0.0363 -0.1394
 1617TIP3   OH226341   6.825   4.192  10.424  0.1834  0.0844 -0.3790
 1617TIP3    H126342   6.838   4.239  10.507  0.4144  0.2590 -0.5140
 1617TIP3    H226343   6.878   4.112  10.433  0.6452  0.3663 -0.5733
 1618TIP3   OH226344   4.412   2.868  10.109 -0.3061 -0.6832 -0.5804
 1618TIP3    H126345   4.494   2.851  10.062 -0.2563  0.7736 -1.0400
 1618TIP3    H226346   4.345   2.827  10.054 -0.0893 -0.2325 -1.1870
 1619TIP3   OH226347   3.922   2.807  10.382 -0.5201  0.9584 -0.4004
 1619TIP3    H126348   3.990   2.872  10.399 -0.8410  1.3516 -0.5949
 1619TIP3    H226349   3.944   2.772  10.296  0.2277  0.0780  0.1437
 1620TIP3   OH226350   5.391   1.318  12.144 -0.0596  0.2627 -0.2154
 1620TIP3    H126351   5.447   1.243  12.162  3.5280  2.8719  0.1805
 1620TIP3    H226352   5.367   1.352  12.230 -0.3595  0.4839 -0.3826
 1621TIP3   OH226353   4.984   1.729  12.891  0.5647 -0.1739 -0.5434
 1621TIP3    H126354   4.977   1.800  12.826 -0.9212 -0.6821 -0.9444
 1621TIP3    H226355   5.008   1.652  12.839 -0.4559 -0.5431 -0.4694
 1622TIP3   OH226356   5.338   1.914  11.405  0.1704 -0.8483 -0.2167
 1622TIP3    H126357   5.319   1.973  11.332  0.5310 -1.6805 -0.9915
 1622TIP3    H226358   5.349   1.828  11.365  0.1871 -1.3561  0.8399
 1623TIP3   OH226359   2.322   5.373  11.692  0.1087 -0.2990 -0.0512
 1623TIP3    H126360   2.237   5.346  11.726 -0.0667  0.6081  0.2579
 1623TIP3    H226361   2.371   5.292  11.680 -0.8965 -0.8466 -0.4724
 1624TIP3   OH226362   3.800   3.759  12.057  0.1474  0.4625 -0.2727
 1624TIP3    H126363   3.859   3.712  12.116 -0.2108  0.1469 -0.1624
 1624TIP3    H226364   3.714   3.720  12.073  0.1194  0.0851 -1.3219
 1625TIP3   OH226365   5.946   0.438  11.132  0.4041 -0.0119  0.1367
 1625TIP3    H126366   5.877   0.505  11.124  0.6100  0.2992  0.8702
 1625TIP3    H226367   5.923   0.372  11.066 -1.4723 -0.6786  1.4017
 1626TIP3   OH226368   4.170   1.737  14.136  0.3331 -0.0233 -0.6492
 1626TIP3    H126369   4.223   1.802  14.089 -0.0565  0.4427 -0.4509
 1626TIP3    H226370   4.182   1.758  14.228 -0.8611  0.6267 -0.6286
 1627TIP3   OH226371   3.784   3.600  13.794 -0.3408  0.0967  0.4825
 1627TIP3    H126372   3.823   3.681  13.826 -0.9847  0.2389  0.9101
 1627TIP3    H226373   3.693   3.622  13.777 -0.5714 -0.5964  0.8180
 1628TIP3   OH226374   5.093   0.456  11.933  0.0116  0.0116  0.2275
 1628TIP3    H126375   5.018   0.411  11.970  0.1626  0.9827  1.7470
 1628TIP3    H226376   5.142   0.488  12.008  0.1701  2.2800 -0.7832
 1629TIP3   OH226377   4.984   1.371  12.119  0.2415 -0.0335  0.2064
 1629TIP3    H126378   4.963   1.288  12.076  0.2862  0.0251  0.0705
 1629TIP3    H226379   5.005   1.430  12.047  2.4368 -0.5160  0.3932
 1630TIP3   OH226380   0.542   1.580  10.913 -0.3760  0.8864 -0.2565
 1630TIP3    H126381   0.631   1.548  10.924 -1.4504 -1.9668  0.4854
 1630TIP3    H226382   0.532   1.647  10.982  1.3149  1.6084 -0.6847
 1631TIP3   OH226383   3.072   3.188  10.912  0.2659  0.0911 -0.4748
 1631TIP3    H126384   3.081   3.105  10.865  1.9726 -0.1486  0.2311
 1631TIP3    H226385   3.133   3.247  10.868 -1.4728  1.2206 -1.4424
 1632TIP3   OH226386   4.144   0.908  12.350 -0.3609 -0.4148 -0.2228
 1632TIP3    H126387   4.129   0.913  12.256 -2.1482  1.7377  0.1568
 1632TIP3    H226388   4.059   0.925  12.390  1.1235  2.7287  1.8281
 1633TIP3   OH226389   0.412   3.109  10.346 -0.6979 -0.5396  0.0818
 1633TIP3    H126390   0.503   3.136  10.332 -0.2319 -1.0483  1.9511
 1633TIP3    H226391   0.371   3.115  10.260  0.8087  0.8112 -0.5630
 1634TIP3   OH226392   4.739   3.342  15.432  0.7427 -0.4490 -0.3802
 1634TIP3    H126393   4.662   3.330  15.376  0.2395 -1.7141  0.5692
 1634TIP3    H226394   4.812   3.316  15.376  0.4805  0.6089 -1.2391
 1635TIP3   OH226395   4.998   0.553  10.073 -0.5049  0.3494  0.1440
 1635TIP3    H126396   4.908   0.582  10.086 -0.1005  2.2052 -0.9239
 1635TIP3    H226397   5.048   0.635  10.061  1.3561 -0.6234  0.9916
 1636TIP3   OH226398   0.478   1.417  11.467  0.4513 -0.7996  0.0098
 1636TIP3    H126399   0.461   1.339  11.414  2.2418 -0.4541 -1.1089
 1636TIP3    H226400   0.544   1.465  11.417 -1.8719  2.2940 -0.1717
 1637TIP3   OH226401   4.595   2.398  11.663 -0.0655  0.0371 -0.1776
 1637TIP3    H126402   4.596   2.364  11.574 -0.2345  0.8465 -0.4955
 1637TIP3    H226403   4.502   2.406  11.684 -0.0218 -0.8311  0.3335
 1638TIP3   OH226404   4.234   1.918  12.602 -0.1783 -0.2706  0.1482
 1638TIP3    H126405   4.320   1.892  12.634  0.5796  0.7609 -1.0336
 1638TIP3    H226406   4.216   1.858  12.530 -0.1141 -0.0078 -0.0892
 1639TIP3   OH226407   4.081   2.775  11.837 -0.0553 -0.0435 -0.5370
 1639TIP3    H126408   3.987   2.784  11.822  0.1056  0.1467 -1.4707
 1639TIP3    H226409   4.105   2.854  11.886 -0.4064 -0.1659 -0.1651
 1640TIP3   OH226410   4.389   1.729  10.935  0.5228 -0.0074 -0.1662
 1640TIP3    H126411   4.346   1.739  11.020 -1.7800 -0.1585 -1.2819
 1640TIP3    H226412   4.337   1.663  10.889  2.1965 -0.4953 -1.4267
 1641TIP3   OH226413   3.750   3.336  14.147 -0.0125  0.0123 -0.5382
 1641TIP3    H126414   3.773   3.244  14.131  1.1293 -0.1826  2.0008
 1641TIP3    H226415   3.689   3.333  14.221  2.2221  1.4830  1.4023
 1642TIP3   OH226416   2.389   5.135  10.957  0.2903  0.2124 -0.1480
 1642TIP3    H126417   2.306   5.089  10.951  0.1063 -0.0490  3.2760
 1642TIP3    H226418   2.365   5.225  10.979  0.9155  0.0048  1.4304
 1643TIP3   OH226419   4.494   2.221  12.293 -0.2282 -0.2926  0.4491
 1643TIP3    H126420   4.429   2.290  12.307  0.3525 -0.3974  3.9847
 1643TIP3    H226421   4.557   2.260  12.233 -2.8628  0.2311 -2.0859
 1644TIP3   OH226422   6.737   1.833  10.436  0.7059  0.1249 -0.7148
 1644TIP3    H126423   6.809   1.795  10.486  0.5515  0.7759  0.0101
 1644TIP3    H226424   6.719   1.769  10.367 -0.9477 -2.1316  1.7345
 1645TIP3   OH226425   4.425   3.639  13.911  0.2457 -0.0265  0.2587
 1645TIP3    H126426   4.330   3.644  13.904  0.1122 -0.0374  1.9019
 1645TIP3    H226427   4.456   3.722  13.874 -0.4648  0.4174  0.6417
 1646TIP3   OH226428   4.691   1.161  10.933  0.7097  0.1373  0.1934
 1646TIP3    H126429   4.721   1.210  11.009  0.4430  2.8759 -1.4090
 1646TIP3    H226430   4.735   1.076  10.941  1.3564  0.6786  2.9180
 1647TIP3   OH226431   5.469   2.654   9.862  0.2669  0.7082  0.4095
 1647TIP3    H126432   5.425   2.571   9.847  2.7853 -0.7560  0.7587
 1647TIP3    H226433   5.407   2.720   9.831 -0.5884 -1.4519 -2.7399
 1648TIP3   OH226434   5.596   3.469  11.288  0.3557 -0.4396 -0.1086
 1648TIP3    H126435   5.671   3.501  11.238 -0.1969  2.2152  0.6893
 1648TIP3    H226436   5.557   3.401  11.232  2.1817 -0.4583 -1.4011
 1649TIP3   OH226437   5.900   2.367  11.913  0.4320 -1.3556  0.2877
 1649TIP3    H126438   5.844   2.437  11.946  0.9798  0.2802 -2.1274
 1649TIP3    H226439   5.957   2.345  11.987 -0.3838  0.1021  1.3671
 1650TIP3   OH226440   5.843   2.847  10.549 -0.3226  0.1261  0.2829
 1650TIP3    H126441   5.852   2.804  10.464  1.7033  0.5105  0.2642
 1650TIP3    H226442   5.776   2.914  10.536  0.7409  0.9105 -1.3293
 1651TIP3   OH226443   5.609   2.212  10.289  0.0388  0.0876 -0.1232
 1651TIP3    H126444   5.615   2.250  10.201 -0.9268  0.2111 -0.1356
 1651TIP3    H226445   5.697   2.177  10.306  1.0626  2.6301  0.0309
 1652TIP3   OH226446   5.165   2.824  11.762 -0.0590  0.1238 -0.1757
 1652TIP3    H126447   5.102   2.887  11.798 -0.5232 -0.9685  0.9605
 1652TIP3    H226448   5.115   2.773  11.699  0.1240  0.4065 -0.5474
 1653TIP3   OH226449   5.773   1.092  10.346  0.0956  0.2772  0.0385
 1653TIP3    H126450   5.714   1.110  10.419  0.9642  1.4069  0.4733
 1653TIP3    H226451   5.733   1.137  10.272 -0.2359 -0.0069  0.0381
 1654TIP3   OH226452   5.024   2.141  11.383  0.6368  0.3233  0.3956
 1654TIP3    H126453   5.072   2.193  11.318  0.7229 -0.0892  0.1263
 1654TIP3    H226454   4.957   2.200  11.416 -0.0456  0.2336 -0.7901
 1655TIP3   OH226455   5.727   2.667  11.290  0.3954 -0.0507  0.4925
 1655TIP3    H126456   5.686   2.750  11.315 -0.4172 -0.4937  0.6423
 1655TIP3    H226457   5.734   2.618  11.372 -3.5192 -2.0573 -0.2698
 1656TIP3   OH226458   7.107   0.256  10.631 -0.1953  0.4655  0.3731
 1656TIP3    H126459   7.145   0.193  10.692 -0.6546  0.8460  1.0615
 1656TIP3    H226460   7.182   0.294  10.586  0.0353 -1.2179 -0.7037
 1657TIP3   OH226461   5.716   1.588  10.549  0.0676  0.5341  0.3999
 1657TIP3    H126462   5.662   1.511  10.528  1.7310 -0.3674 -0.6446
 1657TIP3    H226463   5.703   1.601  10.643  0.1912 -1.3622  0.6976
 1658TIP3   OH226464   4.923   0.991  12.316 -0.5031  0.2705 -1.1265
 1658TIP3    H126465   5.007   1.009  12.357 -0.0102  0.0777 -2.0437
 1658TIP3    H226466   4.944   0.937  12.240 -1.3995  0.6957 -1.6825
 1659TIP3   OH226467   5.010   1.619  10.237 -0.0485  0.3156  0.4208
 1659TIP3    H126468   4.983   1.663  10.156 -0.7175  1.6512  1.3622
 1659TIP3    H226469   4.930   1.610  10.288  0.3537 -0.6271  0.8969
 1660TIP3   OH226470   4.812   2.804  11.666 -0.4088 -0.0127  0.0033
 1660TIP3    H126471   4.823   2.884  11.718  0.2996 -0.7764  1.0354
 1660TIP3    H226472   4.785   2.738  11.729 -1.7855 -0.4117 -0.9859
 1661TIP3   OH226473   5.057   1.151  12.633 -0.6165 -0.4246  0.4245
 1661TIP3    H126474   5.096   1.088  12.574 -0.8900  0.3399 -0.5984
 1661TIP3    H226475   4.993   1.101  12.683  0.8072 -1.4295  1.2718
 1662TIP3   OH226476   4.264   0.584  13.252 -0.3967 -0.2120  0.2043
 1662TIP3    H126477   4.214   0.582  13.334 -0.5910 -1.4006  0.0724
 1662TIP3    H226478   4.201   0.612  13.186 -0.0617  1.4360  0.5707
 1663TIP3   OH226479   4.892   3.616  11.628 -0.4018 -0.3786  0.0444
 1663TIP3    H126480   4.976   3.597  11.585 -0.0106  0.1735  0.5466
 1663TIP3    H226481   4.900   3.707  11.656 -0.9275 -0.5129  0.6459
 1664TIP3   OH226482   2.567   2.364  10.199 -0.6418  0.2750  0.2783
 1664TIP3    H126483   2.654   2.358  10.158 -2.1575 -3.7046 -2.6979
 1664TIP3    H226484   2.516   2.418  10.139 -1.2669 -0.6615 -0.0386
 1665TIP3   OH226485   4.356   2.444  11.800  0.0511  0.1886  0.7802
 1665TIP3    H126486   4.378   2.534  11.824  2.7677 -0.3998  0.6321
 1665TIP3    H226487   4.331   2.449  11.708  2.0359  0.5341  0.2384
 1666TIP3   OH226488   6.287   3.774  12.133 -0.1005 -0.5423 -0.0030
 1666TIP3    H126489   6.271   3.715  12.206  2.3963  1.2596  2.1045
 1666TIP3    H226490   6.239   3.854  12.156 -0.1245 -0.3239 -0.8090
 1667TIP3   OH226491   3.747   1.172  12.012  0.2777  0.0886  0.0577
 1667TIP3    H126492   3.803   1.098  12.032 -0.0555  0.0154  0.7156
 1667TIP3    H226493   3.659   1.144  12.039 -0.4083 -0.5029 -2.6207
 1668TIP3   OH226494   3.228   1.207  12.070 -0.2213 -0.2954 -0.2689
 1668TIP3    H126495   3.142   1.225  12.033 -0.9653 -2.0320  0.5263
 1668TIP3    H226496   3.243   1.114  12.050  1.0990 -0.2152  0.3029
 1669TIP3   OH226497   2.292   1.444  10.687  0.4532  0.0636 -0.2783
 1669TIP3    H126498   2.229   1.377  10.712  0.2316 -0.0285 -1.0682
 1669TIP3    H226499   2.276   1.516  10.748  0.9857 -0.7655  0.8380
 1670TIP3   OH226500   3.657   2.880  10.219 -0.0402 -0.0953  0.8417
 1670TIP3    H126501   3.587   2.814  10.213 -0.0502 -0.2159  2.1143
 1670TIP3    H226502   3.662   2.917  10.131 -1.9361  0.1483  0.8062
 1671TIP3   OH226503   4.355   3.459  10.417 -0.0100 -0.6456 -0.2066
 1671TIP3    H126504   4.424   3.443  10.482  0.3443  0.5067 -0.2970
 1671TIP3    H226505   4.395   3.437  10.333  0.4307  0.5305 -0.3148
 1672TIP3   OH226506   3.859   2.137  10.960  0.8507  0.1536  0.2839
 1672TIP3    H126507   3.915   2.159  10.886  0.0353  3.3782  0.5502
 1672TIP3    H226508   3.835   2.045  10.945  2.1054  0.2253 -2.4933
 1673TIP3   OH226509   5.788   0.113  11.039  0.3372  0.4223  0.2982
 1673TIP3    H126510   5.733   0.178  10.996 -0.5856 -2.0166 -2.4091
 1673TIP3    H226511   5.735   0.083  11.113 -1.3433 -0.6871 -1.2949
 1674TIP3   OH226512   4.877   0.793  12.500  0.3839 -0.2772  0.0576
 1674TIP3    H126513   4.914   0.720  12.452 -1.5989 -0.4433 -1.3057
 1674TIP3    H226514   4.881   0.867  12.439 -0.9629 -0.1600  0.0992
 1675TIP3   OH226515   4.080   4.047  10.059 -0.4536 -0.4178  0.5942
 1675TIP3    H126516   4.026   3.975  10.028  0.5274  0.0534 -2.3752
 1675TIP3    H226517   4.017   4.113  10.089 -1.4803 -0.6950 -0.9084
 1676TIP3   OH226518   4.225   3.336  10.756 -0.3579 -0.4725  0.6970
 1676TIP3    H126519   4.153   3.275  10.739 -1.1760  0.8666 -0.7683
 1676TIP3    H226520   4.303   3.281  10.754 -1.1266 -1.5694 -0.0736
 1677TIP3   OH226521   3.438   2.124  12.341  0.2439  0.0752  0.3758
 1677TIP3    H126522   3.464   2.215  12.328 -0.7673  0.2790 -0.3109
 1677TIP3    H226523   3.514   2.082  12.382  0.6245  1.2754  0.9028
 1678TIP3   OH226524   2.846   0.968  12.229  0.1501 -0.3379  0.3922
 1678TIP3    H126525   2.848   1.046  12.285  2.2781 -0.1343  0.0748
 1678TIP3    H226526   2.882   0.997  12.145  2.0286 -1.8784  0.6172
 1679TIP3   OH226527   7.117   2.296  11.396 -0.1338 -0.4543  0.1288
 1679TIP3    H126528   7.106   2.274  11.488  0.3992  0.9684  0.5533
 1679TIP3    H226529   7.127   2.212  11.352  2.8127 -1.0470  1.8108
 1680TIP3   OH226530   5.677   2.515  10.185  0.0103 -1.1150  0.0971
 1680TIP3    H126531   5.736   2.546  10.117  0.1068 -0.2055  0.5899
 1680TIP3    H226532   5.729   2.520  10.266 -0.2997 -1.6067  0.3323
 1681TIP3   OH226533   4.665   0.215  10.524  0.1377  0.2131  0.2819
 1681TIP3    H126534   4.739   0.274  10.512  0.6519 -0.9469 -2.6503
 1681TIP3    H226535   4.597   0.250  10.466 -0.4289 -0.6578  0.4159
 1682TIP3   OH226536   5.511   2.391  10.489 -0.0279 -0.4261 -0.0212
 1682TIP3    H126537   5.558   2.325  10.437  0.5745  0.7212 -0.9918
 1682TIP3    H226538   5.496   2.462  10.427  2.7428  1.9807  1.9096
 1683TIP3   OH226539   6.735   2.147  10.574  0.0942 -0.1040 -0.2664
 1683TIP3    H126540   6.764   2.146  10.483  2.2896  0.8726  0.3764
 1683TIP3    H226541   6.771   2.067  10.611  0.8285  0.4243  0.1868
 1684TIP3   OH226542   5.005   2.056  10.264 -0.0733 -0.3334 -0.2524
 1684TIP3    H126543   4.977   2.033  10.353 -0.7354  0.0916 -0.3506
 1684TIP3    H226544   5.024   2.149  10.268  0.6478 -0.4708 -0.3707
 1685TIP3   OH226545   4.180   3.672  10.063 -0.6475 -0.1704 -0.5402
 1685TIP3    H126546   4.116   3.665   9.992 -1.4278 -2.0270  0.3141
 1685TIP3    H226547   4.245   3.604  10.043  0.1890  0.6126 -0.5251
 1686TIP3   OH226548   4.105   3.151   9.623  0.0130 -0.4473 -0.3631
 1686TIP3    H126549   4.158   3.073   9.608  0.6755 -0.0978  0.1429
 1686TIP3    H226550   4.160   3.224   9.595 -0.5828 -0.1483 -0.7833
 1687TIP3   OH226551   6.815   3.486  11.690  0.2382  0.0826  0.7973
 1687TIP3    H126552   6.754   3.462  11.760 -2.7602  1.3651 -1.2657
 1687TIP3    H226553   6.841   3.403  11.651 -1.3163 -0.4277  0.8218
 1688TIP3   OH226554   5.392   2.848  10.381  0.1307 -1.2469  0.1461
 1688TIP3    H126555   5.463   2.897  10.421  0.3893 -2.2879  0.9866
 1688TIP3    H226556   5.336   2.915  10.342 -0.0843 -0.1789  2.1766
 1689TIP3   OH226557   2.240   4.181  11.982  0.0180  0.4919  0.2964
 1689TIP3    H126558   2.213   4.183  12.074  1.9247 -0.0651  0.8741
 1689TIP3    H226559   2.167   4.138  11.937 -1.3950  1.7199  1.3713
 1690TIP3   OH226560   5.505   0.945  11.743 -0.4199 -0.1799  0.4289
 1690TIP3    H126561   5.581   0.989  11.704  0.5020 -1.1124  1.1399
 1690TIP3    H226562   5.518   0.852  11.722 -1.0203 -0.4286  1.1479
 1691TIP3   OH226563   6.533   7.271  11.797 -0.4445 -0.4151 -0.5958
 1691TIP3    H126564   6.510   7.178  11.797 -0.1059 -0.5117 -1.6972
 1691TIP3    H226565   6.498   7.304  11.714  2.1252 -0.2544 -1.6574
 1692TIP3   OH226566   5.566   2.608  11.716 -0.8065  0.6701 -0.6898
 1692TIP3    H126567   5.628   2.575  11.651  1.8972  0.6060  1.8485
 1692TIP3    H226568   5.547   2.697  11.686  2.1814  1.4575 -0.3877
 1693TIP3   OH226569   5.344   3.436  11.524  0.2578  0.1018 -0.4341
 1693TIP3    H126570   5.392   3.363  11.562 -0.1276 -0.6309 -1.3364
 1693TIP3    H226571   5.399   3.467  11.452 -0.5016 -0.6157 -1.3483
 1694TIP3   OH226572   0.057   1.166  10.684  0.2762 -0.1169  0.3646
 1694TIP3    H126573   0.067   1.132  10.595  0.0540 -0.9306  0.6445
 1694TIP3    H226574  -0.029   1.207  10.684  0.0288 -0.6279  0.3637
 1695TIP3   OH226575   4.572   2.266  12.555 -0.1696  0.2227 -0.2379
 1695TIP3    H126576   4.491   2.302  12.591 -0.1553 -0.9900  1.0942
 1695TIP3    H226577   4.552   2.249  12.463 -1.9251 -1.4048  0.4009
 1696TIP3   OH226578   1.342   2.658  11.777 -0.2958 -0.4459  0.0840
 1696TIP3    H126579   1.401   2.597  11.820  1.5454  0.2560 -1.3605
 1696TIP3    H226580   1.283   2.603  11.726 -0.4621 -1.1331  1.0116
 1697TIP3   OH226581   3.808   3.068  12.902 -0.6050  0.6781 -0.0727
 1697TIP3    H126582   3.880   3.087  12.841 -0.2337 -1.1375 -0.2225
 1697TIP3    H226583   3.754   3.005  12.856 -0.7961 -0.0462  1.1314
 1698TIP3   OH226584   6.476   2.327  10.057 -0.2465  0.3907 -0.5261
 1698TIP3    H126585   6.393   2.342  10.013  0.1695  1.5904 -0.9145
 1698TIP3    H226586   6.537   2.305   9.987 -0.0563  0.3071 -0.3341
 1699TIP3   OH226587   5.517   3.213  11.431  1.2314 -0.0617  0.3388
 1699TIP3    H126588   5.566   3.137  11.398  2.4552  0.1219  1.6815
 1699TIP3    H226589   5.563   3.288  11.394 -0.6575  0.0336 -1.9144
 1700TIP3   OH226590   7.060   2.350  11.947 -0.1366 -0.1343  0.4170
 1700TIP3    H126591   7.006   2.416  11.991 -1.7016 -0.1165 -1.4427
 1700TIP3    H226592   7.126   2.401  11.900  0.1587 -0.0228  0.9563
 1701TIP3   OH226593   6.857   1.624  12.418 -0.3407  0.3009 -0.2425
 1701TIP3    H126594   6.931   1.573  12.386 -0.3093  1.2604 -1.7845
 1701TIP3    H226595   6.787   1.606  12.355 -0.4405  1.8307 -0.5961
 1702TIP3   OH226596   3.782   2.536  10.256 -0.6505  0.7595 -0.4102
 1702TIP3    H126597   3.859   2.590  10.233  0.1109 -0.4890 -0.8478
 1702TIP3    H226598   3.729   2.593  10.312  1.3442  1.1400  1.1755
 1703TIP3   OH226599   6.712   2.250   9.871  0.0711 -0.1771 -0.3561
 1703TIP3    H126600   6.792   2.199   9.881  0.9341  1.2648  0.2921
 1703TIP3    H226601   6.694   2.249   9.777  0.9258 -0.3886 -0.5179
 1704TIP3   OH226602   6.653   1.346  10.893 -0.1111  0.0612 -1.1064
 1704TIP3    H126603   6.631   1.376  10.981  1.1938  2.5735 -1.5900
 1704TIP3    H226604   6.579   1.374  10.839 -0.4601 -0.6221 -0.9897
 1705TIP3   OH226605   6.173   4.646  11.492 -0.1771  0.1270 -0.1082
 1705TIP3    H126606   6.207   4.605  11.572 -0.3011 -0.0203 -0.1313
 1705TIP3    H226607   6.168   4.739  11.514 -2.2153 -0.1516  0.8104
 1706TIP3   OH226608   0.706   2.576  11.932 -0.0100 -0.4970 -0.5966
 1706TIP3    H126609   0.663   2.661  11.943  0.3286 -0.3751 -0.2132
 1706TIP3    H226610   0.765   2.569  12.007 -1.1648 -1.7536  0.2059
 1707TIP3   OH226611   6.320   3.864  11.443  0.1003 -0.0520  0.2619
 1707TIP3    H126612   6.244   3.900  11.489  1.1253  1.9696  0.4248
 1707TIP3    H226613   6.329   3.919  11.365  1.6294 -0.0007  0.4550
 1708TIP3   OH226614   6.743   4.348  11.875 -0.3370 -0.5919 -0.2347
 1708TIP3    H126615   6.757   4.415  11.943 -0.0146 -0.6393 -0.2528
 1708TIP3    H226616   6.822   4.352  11.821 -0.7855 -0.2573 -0.8679
 1709TIP3   OH226617   0.952   3.047  10.916  0.7933 -0.1990 -0.7650
 1709TIP3    H126618   1.027   3.056  10.857  1.0086 -1.1978 -0.6617
 1709TIP3    H226619   0.876   3.070  10.863  1.1087  0.1234 -1.0739
 1710TIP3   OH226620   0.321   1.545  10.728 -0.4789  0.1453  0.0911
 1710TIP3    H126621   0.387   1.519  10.792 -0.6270 -0.0320  0.1741
 1710TIP3    H226622   0.369   1.592  10.660 -0.3301  0.4086  0.3759
 1711TIP3   OH226623   5.717   2.449  10.710 -0.1081  0.2330  0.2579
 1711TIP3    H126624   5.755   2.376  10.758 -0.5251  0.0514  0.3193
 1711TIP3    H226625   5.625   2.425  10.699 -0.3955  1.0491  0.8441
 1712TIP3   OH226626   5.286   3.383  10.914 -0.3323 -0.2940 -0.2042
 1712TIP3    H126627   5.250   3.392  10.826 -1.7229 -0.7933  0.3008
 1712TIP3    H226628   5.212   3.397  10.972  1.1606  3.1759  1.0104
 1713TIP3   OH226629   5.091   2.590  10.301  0.1405  0.2574  0.0423
 1713TIP3    H126630   5.186   2.582  10.292 -0.0205 -1.2705 -0.4655
 1713TIP3    H226631   5.079   2.632  10.386  1.2501 -0.5413  0.6153
 1714TIP3   OH226632   0.634   3.822  11.724  0.2657 -0.3488  0.2435
 1714TIP3    H126633   0.566   3.761  11.699 -0.8305  0.3395  1.5068
 1714TIP3    H226634   0.713   3.769  11.731 -0.7102 -1.6427  1.5207
 1715TIP3   OH226635   1.161   2.429  10.114 -0.5397 -0.3004 -0.0084
 1715TIP3    H126636   1.198   2.460  10.031 -1.0654  1.9140  0.5647
 1715TIP3    H226637   1.182   2.497  10.177  0.2511 -2.1712  1.8160
 1716TIP3   OH226638   0.189   4.554  10.698  0.4278 -0.1577  0.2234
 1716TIP3    H126639   0.103   4.516  10.681  1.3426 -2.3502  0.4148
 1716TIP3    H226640   0.216   4.517  10.782  0.7749  1.9641  1.0862
 1717TIP3   OH226641   6.290   3.178  10.776 -0.1778 -0.4827 -0.1615
 1717TIP3    H126642   6.356   3.168  10.845  1.0610 -0.0473 -1.2599
 1717TIP3    H226643   6.279   3.273  10.767  0.3048 -0.5094 -1.1381
 1718TIP3   OH226644   6.295   4.160  10.300  0.0198  0.3529  0.4201
 1718TIP3    H126645   6.379   4.204  10.298  0.2518 -0.1677 -2.3504
 1718TIP3    H226646   6.235   4.219  10.254 -0.2425 -1.0361 -1.0470
 1719TIP3   OH226647   5.877   3.230  10.359 -0.1244  0.3620  0.4839
 1719TIP3    H126648   5.927   3.298  10.314  2.1978 -1.5323  0.0919
 1719TIP3    H226649   5.874   3.259  10.450  0.7113  1.0706  0.2966
 1720TIP3   OH226650   4.927   2.152  12.417  0.0763 -0.1333 -0.0754
 1720TIP3    H126651   4.996   2.089  12.438  0.2940  1.0450  3.0840
 1720TIP3    H226652   4.972   2.236  12.409 -0.7385  0.3156 -0.0306
 1721TIP3   OH226653   5.792   2.739  10.816 -0.8606  0.1157 -0.4256
 1721TIP3    H126654   5.717   2.687  10.790 -0.4289 -0.8177  0.1441
 1721TIP3    H226655   5.841   2.753  10.735 -0.6918 -0.8543 -0.5018
 1722TIP3   OH226656   0.498   0.498  10.842  0.8415  0.0785 -0.0951
 1722TIP3    H126657   0.514   0.583  10.883 -0.7364  1.4337 -2.2015
 1722TIP3    H226658   0.576   0.482  10.789  1.4849 -0.1862  0.9104
 1723TIP3   OH226659   6.428   2.426  13.773  0.2171 -0.2283 -0.6243
 1723TIP3    H126660   6.453   2.382  13.691  3.0267  2.5158 -1.3405
 1723TIP3    H226661   6.493   2.396  13.836 -1.5051 -1.7574  0.4611
 1724TIP3   OH226662   5.797   4.644  11.024 -0.0828  0.3774  0.4024
 1724TIP3    H126663   5.838   4.563  10.994  0.1877  0.7181 -0.1452
 1724TIP3    H226664   5.867   4.693  11.067  0.0577  0.8926 -0.3998
 1725TIP3   OH226665   7.262   3.483  13.202 -0.2115 -0.1741 -0.2996
 1725TIP3    H126666   7.324   3.473  13.130 -1.3072 -0.9086 -1.1627
 1725TIP3    H226667   7.177   3.463  13.163 -0.7497 -1.1663  1.3409
 1726TIP3   OH226668   6.022   3.033  12.026  0.0935 -0.8468 -0.5500
 1726TIP3    H126669   6.024   3.017  12.121  0.6712  0.7442 -0.2727
 1726TIP3    H226670   5.950   2.979  11.994 -0.4276 -1.0231  0.8694
 1727TIP3   OH226671   1.091   4.595  12.047  0.7480 -0.3697  0.0696
 1727TIP3    H126672   1.081   4.503  12.021  0.7935 -0.4116  0.1983
 1727TIP3    H226673   1.013   4.639  12.012  0.6966 -0.4690  0.0587
 1728TIP3   OH226674   6.069   0.613  12.582  0.4898  0.1562  0.5041
 1728TIP3    H126675   5.988   0.595  12.630  1.5133 -0.6725  1.9612
 1728TIP3    H226676   6.105   0.691  12.624  0.6307  0.3067  0.1050
 1729TIP3   OH226677   0.215   4.770  11.337  0.3617  0.2480  0.3120
 1729TIP3    H126678   0.230   4.815  11.253 -1.3878  1.4706  0.6324
 1729TIP3    H226679   0.288   4.799  11.392  1.9138 -1.0972 -0.9580
 1730TIP3   OH226680   6.180   3.045  12.656  0.1712  0.1919  0.0344
 1730TIP3    H126681   6.134   3.125  12.630  1.9813  1.4498  0.5760
 1730TIP3    H226682   6.127   3.008  12.726 -0.8840  0.7050 -0.4716
 1731TIP3   OH226683   5.744   2.249  12.248  0.6803  0.1946  0.4882
 1731TIP3    H126684   5.715   2.330  12.291 -0.9456  1.0694 -2.0994
 1731TIP3    H226685   5.831   2.269  12.214  0.2985  0.8671 -0.1061
 1732TIP3   OH226686   3.803   2.622  11.161  0.7220  0.1790 -0.1035
 1732TIP3    H126687   3.848   2.577  11.232  0.9351 -1.6483 -1.3407
 1732TIP3    H226688   3.866   2.621  11.089  1.0793  3.3083  0.0786
 1733TIP3   OH226689   5.212   1.928  10.130  0.0711  0.2264  0.5285
 1733TIP3    H126690   5.134   1.949  10.181 -0.8747  1.1954 -1.2454
 1733TIP3    H226691   5.233   2.010  10.085  3.5034  0.6563  2.7503
 1734TIP3   OH226692   6.557   4.869  12.294 -0.5451  0.4445 -0.4787
 1734TIP3    H126693   6.517   4.783  12.310  0.7201 -0.1873 -0.7163
 1734TIP3    H226694   6.606   4.888  12.374  1.6417 -0.4339 -1.5680
 1735TIP3   OH226695   0.058   3.126  11.229  0.3101 -0.2961 -0.3956
 1735TIP3    H126696  -0.005   3.188  11.266 -0.6026 -0.8564 -0.9874
 1735TIP3    H226697   0.053   3.141  11.134  0.5230 -0.8463 -0.4943
 1736TIP3   OH226698   5.554   3.671  10.775 -0.1109  0.0782 -0.2635
 1736TIP3    H126699   5.467   3.675  10.736 -0.1165 -0.6765 -0.3484
 1736TIP3    H226700   5.556   3.744  10.837 -1.1818 -0.4903  0.4738
 1737TIP3   OH226701   6.614   2.890  11.271 -0.1128 -1.0616  0.2715
 1737TIP3    H126702   6.525   2.926  11.268  0.0917 -0.6481 -1.1949
 1737TIP3    H226703   6.601   2.800  11.303 -0.8760 -0.5032  1.5883
 1738TIP3   OH226704   7.027   1.975  11.538 -0.5909 -0.0615 -0.5231
 1738TIP3    H126705   7.063   1.886  11.537 -1.3892 -0.3842 -2.0495
 1738TIP3    H226706   6.936   1.964  11.510 -0.3321  1.3832 -2.0321
 1739TIP3   OH226707   6.177   2.178  13.938 -0.5391  0.1338 -0.1690
 1739TIP3    H126708   6.166   2.084  13.925 -2.4807  0.2384  0.6239
 1739TIP3    H226709   6.195   2.213  13.850  3.2965 -1.3232 -0.0882
 1740TIP3   OH226710   6.419   6.850  12.632  0.3327 -0.2042 -0.3814
 1740TIP3    H126711   6.473   6.918  12.671 -1.0870  1.4443 -1.1892
 1740TIP3    H226712   6.461   6.831  12.548 -0.1495  0.8780 -0.8854
 1741TIP3   OH226713   1.166   3.631  11.555 -0.3048 -0.8404  0.0438
 1741TIP3    H126714   1.223   3.582  11.614 -0.6516 -3.7107 -1.8684
 1741TIP3    H226715   1.111   3.564  11.514 -1.5837  1.2976 -1.8834
 1742TIP3   OH226716   0.421   0.390  14.369 -0.7395  0.0246  0.0518
 1742TIP3    H126717   0.371   0.308  14.373 -1.4307  0.4768  0.8755
 1742TIP3    H226718   0.492   0.378  14.432  0.0039 -0.4851 -0.8692
 1743TIP3   OH226719   6.299   4.666  11.253 -0.3889 -0.0323 -0.1229
 1743TIP3    H126720   6.261   4.663  11.341  1.6617  1.0516  0.8223
 1743TIP3    H226721   6.291   4.757  11.227  0.1737 -0.1045 -0.5452
 1744TIP3   OH226722   6.932   2.244  12.317  0.8104  0.3823 -0.0652
 1744TIP3    H126723   6.857   2.279  12.365 -0.1618 -1.4961 -0.1720
 1744TIP3    H226724   6.979   2.321  12.286 -1.0224  1.5913  0.1019
 1745TIP3   OH226725   6.071   1.162  10.989  0.5219  0.0208  0.2778
 1745TIP3    H126726   6.076   1.070  10.963  0.9662 -0.0820  0.7210
 1745TIP3    H226727   6.057   1.210  10.908 -2.4858 -0.6758  0.2968
 1746TIP3   OH226728   7.335   3.833  10.639  0.2718 -0.2522  0.1093
 1746TIP3    H126729   7.427   3.845  10.615  0.3663  0.2615  0.7086
 1746TIP3    H226730   7.309   3.917  10.676 -0.5367 -0.2897 -0.3657
 1747TIP3   OH226731   6.722   2.621  10.477 -0.3466 -0.1233  0.0469
 1747TIP3    H126732   6.670   2.598  10.400 -0.0633  0.1115 -0.2134
 1747TIP3    H226733   6.730   2.716  10.474  1.8581 -0.2955 -1.0708
 1748TIP3   OH226734   6.144   0.434  13.200 -0.5393 -0.2457  0.6378
 1748TIP3    H126735   6.155   0.504  13.136  2.3977  0.6569  2.0708
 1748TIP3    H226736   6.136   0.355  13.147  3.1312  0.3239 -0.8967
 1749TIP3   OH226737   6.509   2.305  10.345 -0.4059  0.3528  0.6301
 1749TIP3    H126738   6.599   2.304  10.376 -0.4689  2.7038  1.0005
 1749TIP3    H226739   6.515   2.334  10.254 -0.6624 -1.3782  0.0329
 1750TIP3   OH226740   4.521   3.038  11.690  0.3592 -0.3094  0.1886
 1750TIP3    H126741   4.479   3.120  11.717  0.4231  0.0264 -0.7085
 1750TIP3    H226742   4.555   3.001  11.771  0.4333  0.6126  0.5922
 1751TIP3   OH226743   5.477   3.897  10.918  0.1906 -0.2326  0.8335
 1751TIP3    H126744   5.425   3.915  10.841 -1.0629 -1.7470  1.2974
 1751TIP3    H226745   5.509   3.982  10.947  1.0567  0.3054 -1.5959
 1752TIP3   OH226746   6.464   2.651  10.666 -0.3904  0.3376 -0.1356
 1752TIP3    H126747   6.511   2.578  10.708 -0.8436 -0.5431 -1.1248
 1752TIP3    H226748   6.466   2.721  10.731 -1.2023 -1.0521  1.4445
 1753TIP3   OH226749   6.580   1.451  10.107 -0.0315 -0.6126  0.1341
 1753TIP3    H126750   6.552   1.513  10.039 -0.4126 -0.0479  0.7924
 1753TIP3    H226751   6.539   1.368  10.082  0.7928 -0.6971 -0.9611
 1754TIP3   OH226752   5.636   2.441   9.798 -0.0027 -0.0076 -0.6628
 1754TIP3    H126753   5.647   2.520   9.851  0.6279 -0.6729  0.2124
 1754TIP3    H226754   5.547   2.413   9.816 -1.2468  2.1024 -3.2102
 1755TIP3   OH226755   5.806   2.459  10.423 -0.5049 -0.1580  0.0769
 1755TIP3    H126756   5.883   2.513  10.442  0.9188 -2.9956  2.8116
 1755TIP3    H226757   5.743   2.479  10.492 -1.3743  0.5596 -0.9111
 1756TIP3   OH226758   4.701   2.176  11.788 -0.3559  0.2277  0.2083
 1756TIP3    H126759   4.687   2.258  11.741  0.0198 -0.0576 -0.4084
 1756TIP3    H226760   4.615   2.136  11.792 -0.1259 -0.5158 -1.6860
 1757TIP3   OH226761   4.699   3.096  11.271  0.2423 -0.0566  0.1871
 1757TIP3    H126762   4.791   3.090  11.245  0.2238  0.6812 -0.0673
 1757TIP3    H226763   4.702   3.119  11.363  0.3155  0.4053  0.0699
 1758TIP3   OH226764   0.282   3.697  13.207 -0.3640 -0.1951 -0.0967
 1758TIP3    H126765   0.320   3.623  13.254  2.8236  1.5277  0.2208
 1758TIP3    H226766   0.264   3.762  13.275  0.6556  0.8436 -0.8019
 1759TIP3   OH226767   6.038   0.984  10.320  0.1830 -0.1091  0.3748
 1759TIP3    H126768   5.957   1.027  10.347  0.7913  1.8267 -0.8124
 1759TIP3    H226769   6.054   0.919  10.388 -1.9300  0.0243  1.0511
 1760TIP3   OH226770   6.683   1.480  11.443 -0.2302  0.2441 -0.5028
 1760TIP3    H126771   6.631   1.406  11.475  2.8661 -1.2045  1.4143
 1760TIP3    H226772   6.736   1.443  11.372 -1.1372  1.5123 -1.8872
 1761TIP3   OH226773   6.066   1.823   9.842 -0.3179  0.0342  0.5059
 1761TIP3    H126774   6.159   1.814   9.866  0.0093  0.2454 -0.6586
 1761TIP3    H226775   6.036   1.734   9.829  0.5857  0.0901 -2.2791
 1762TIP3   OH226776   5.792   1.973  12.161  0.4656 -0.2560  0.5721
 1762TIP3    H126777   5.793   2.042  12.227  0.8600  0.1171  0.1790
 1762TIP3    H226778   5.700   1.948  12.153  0.1290  1.2066 -0.3138
 1763TIP3   OH226779   0.377   3.204  11.207 -0.9371  0.3654 -0.3439
 1763TIP3    H126780   0.359   3.127  11.154 -1.2014 -0.3471  0.7641
 1763TIP3    H226781   0.462   3.236  11.176  0.3734 -1.8245  0.8650
 1764TIP3   OH226782   6.310   4.377  10.832 -0.0514  0.4183 -0.2453
 1764TIP3    H126783   6.254   4.367  10.755 -0.7920 -0.1896  0.3585
 1764TIP3    H226784   6.387   4.323  10.814 -1.2407 -1.5436  0.3806
 1765TIP3   OH226785   6.201   1.001  11.281 -0.3011  0.0496 -0.2021
 1765TIP3    H126786   6.274   0.979  11.224  1.4241 -0.5562  2.1952
 1765TIP3    H226787   6.143   0.925  11.277 -0.2614  0.0579 -1.1846
 1766TIP3   OH226788   4.951   2.222  12.009 -0.0713  0.1874  0.1629
 1766TIP3    H126789   5.040   2.205  12.041  0.3064 -0.3467 -1.1630
 1766TIP3    H226790   4.915   2.134  11.992  0.6376  0.5135 -3.3306
 1767TIP3   OH226791   6.302   1.243  11.144  0.1252  0.4040 -0.0554
 1767TIP3    H126792   6.232   1.251  11.080  0.9088 -1.2525 -1.1524
 1767TIP3    H226793   6.283   1.162  11.191  0.4043  0.8097  0.7795
 1768TIP3   OH226794   7.158   2.584  11.606 -0.0246  0.5661  0.2437
 1768TIP3    H126795   7.227   2.644  11.577  0.3654  0.3782  0.7823
 1768TIP3    H226796   7.198   2.497  11.599  0.3793  0.5690  2.1501
 1769TIP3   OH226797   0.741   3.311  11.387 -0.2711 -0.1760 -0.5813
 1769TIP3    H126798   0.663   3.304  11.441  0.2321 -2.6842 -0.1166
 1769TIP3    H226799   0.713   3.287  11.299 -0.5277  1.3228 -0.9181
 1770TIP3   OH226800   5.460   3.421  12.594 -0.1336  0.4466 -0.1996
 1770TIP3    H126801   5.404   3.426  12.672  3.1231  1.0750  2.2204
 1770TIP3    H226802   5.405   3.454  12.523 -2.2806  2.7797  2.4132
 1771TIP3   OH226803   0.200   1.670  10.448  0.1466  0.6656 -0.0987
 1771TIP3    H126804   0.166   1.582  10.466  0.4136  0.5320 -0.2503
 1771TIP3    H226805   0.288   1.670  10.484  0.7079  0.3718 -1.4281
 1772TIP3   OH226806   6.418   3.105   9.837 -0.0656 -0.3328  0.0502
 1772TIP3    H126807   6.508   3.073   9.828  1.5191  2.8519  3.3740
 1772TIP3    H226808   6.367   3.027   9.860  2.2080 -1.8683 -0.0059
 1773TIP3   OH226809   5.042   0.776  11.145 -0.8690  0.4278  0.4386
 1773TIP3    H126810   5.133   0.769  11.119 -0.9261 -1.0675  0.5767
 1773TIP3    H226811   5.041   0.841  11.215  0.0265  0.7435  0.1579
 1774TIP3   OH226812   7.233   4.145  11.874  0.0070  0.0223 -0.0192
 1774TIP3    H126813   7.190   4.117  11.794  0.4031 -2.4764  0.5971
 1774TIP3    H226814   7.305   4.202  11.844  0.0496 -0.7496 -1.4243
 1775TIP3   OH226815   6.013   3.260   9.977 -0.6073 -0.2839  0.3869
 1775TIP3    H126816   6.052   3.173   9.980 -1.0529 -0.5469 -0.9997
 1775TIP3    H226817   5.947   3.254   9.907  0.5835  1.6661 -0.9545
 1776TIP3   OH226818   5.976   1.680  10.562 -0.3730 -0.4227  0.2692
 1776TIP3    H126819   5.968   1.715  10.651  0.3663 -0.7125  0.4523
 1776TIP3    H226820   5.889   1.645  10.542 -0.8920  0.7666  0.4026
 1777TIP3   OH226821   5.468   2.934  10.079 -0.4347  0.4275  0.2045
 1777TIP3    H126822   5.415   2.942  10.000  1.1933 -0.2288 -0.9764
 1777TIP3    H226823   5.481   2.840  10.090  1.0680  0.6094  0.0708
 1778TIP3   OH226824   6.870   7.143  13.681  0.4179  0.1554 -0.2279
 1778TIP3    H126825   6.836   7.141  13.591 -0.9189  0.0198  0.2679
 1778TIP3    H226826   6.795   7.116  13.735  1.5489 -0.8997  0.8275
 1779TIP3   OH226827   6.217   2.758  10.598 -0.9421  0.0937  0.4483
 1779TIP3    H126828   6.266   2.676  10.607 -2.4756 -0.7825  0.9912
 1779TIP3    H226829   6.237   2.808  10.677 -0.5769 -0.0622  0.4547
 1780TIP3   OH226830   4.428   4.513  10.803  0.0714  0.0685 -0.3179
 1780TIP3    H126831   4.508   4.466  10.825  0.6820 -0.1101 -2.7867
 1780TIP3    H226832   4.363   4.444  10.789 -0.2905  0.1744  0.8367
 1781TIP3   OH226833   6.106   2.038  10.066 -0.1928 -0.0636 -0.5899
 1781TIP3    H126834   6.041   2.029   9.996  0.7726 -1.4649 -1.3229
 1781TIP3    H226835   6.106   2.132  10.086 -2.4285 -0.0382 -0.5717
 1782TIP3   OH226836   6.651   5.821  11.694  0.0925 -0.9261 -0.2345
 1782TIP3    H126837   6.648   5.865  11.779 -2.2600  1.7840 -1.6604
 1782TIP3    H226838   6.738   5.843  11.659  0.5297 -0.8864  0.8482
 1783TIP3   OH226839   0.199   3.771  10.012 -0.0223  1.0771 -0.1853
 1783TIP3    H126840   0.126   3.751  10.070 -0.5818  0.0872 -1.2170
 1783TIP3    H226841   0.197   3.702   9.946  1.7302  1.1401 -0.3358
 1784TIP3   OH226842   0.066   2.471  11.668  0.0780  0.1360  0.4800
 1784TIP3    H126843   0.109   2.389  11.694  1.9822  1.5884  2.1473
 1784TIP3    H226844   0.116   2.500  11.591  2.3743  1.9589  2.5751
 1785TIP3   OH226845   0.404   1.870  10.617  0.8561  0.6944  0.0826
 1785TIP3    H126846   0.493   1.859  10.584 -0.3073 -0.1652 -2.9003
 1785TIP3    H226847   0.365   1.937  10.560 -0.7882  0.1486  0.5310
 1786TIP3   OH226848   7.106   2.235  10.161  0.7296 -0.4052  0.1317
 1786TIP3    H126849   7.189   2.277  10.138  0.8942  0.4050  2.0739
 1786TIP3    H226850   7.039   2.294  10.126  0.9733  0.6127  1.3404
 1787TIP3   OH226851   6.704   3.892  10.128  0.7596 -0.0305  0.2477
 1787TIP3    H126852   6.639   3.823  10.113 -0.0109  0.4324  1.3538
 1787TIP3    H226853   6.707   3.940  10.046 -1.3160  0.7669  0.6065
 1788TIP3   OH226854   5.405   2.510  11.008  0.1009 -0.5524  0.4922
 1788TIP3    H126855   5.400   2.509  11.103 -0.9004  1.0989  0.4667
 1788TIP3    H226856   5.455   2.431  10.986 -0.4092 -1.4075  2.3272
 1789TIP3   OH226857   0.575   0.926  11.828 -0.1177 -0.1783  0.1048
 1789TIP3    H126858   0.534   1.010  11.850 -0.8085 -0.6595  0.6583
 1789TIP3    H226859   0.665   0.949  11.805 -0.9948  1.0702 -2.3716
 1790TIP3   OH226860   0.408   1.534  11.959  0.2743  0.6764 -0.3838
 1790TIP3    H126861   0.472   1.503  11.896  1.3236  2.6625 -0.3353
 1790TIP3    H226862   0.336   1.568  11.905 -1.3126 -2.5904 -0.4331
 1791TIP3   OH226863   7.224   2.817  10.956 -0.6071 -0.0348  0.1959
 1791TIP3    H126864   7.199   2.810  10.864 -1.7821  0.6600  0.4472
 1791TIP3    H226865   7.274   2.737  10.974  0.9004  0.5196 -1.4302
 1792TIP3   OH226866   3.655   1.454  11.465  0.1191  0.1910  0.4294
 1792TIP3    H126867   3.665   1.478  11.557 -3.4687 -0.7455  1.1562
 1792TIP3    H226868   3.683   1.532  11.417  1.8106  0.7837  2.3038
 1793TIP3   OH226869   5.150   0.614  11.721 -0.0889 -0.1974  0.1294
 1793TIP3    H126870   5.204   0.678  11.767 -0.4623 -0.2625  0.6675
 1793TIP3    H226871   5.119   0.555  11.790  0.7475 -1.3284 -0.4373
 1794TIP3   OH226872   4.638   2.315  13.034  0.1318  0.2959 -0.9605
 1794TIP3    H126873   4.685   2.235  13.009  0.7445  1.1474 -2.6048
 1794TIP3    H226874   4.676   2.340  13.118  0.3581 -0.8006 -0.7216
 1795TIP3   OH226875   6.942   4.473  11.106  0.2211 -0.4694  0.2892
 1795TIP3    H126876   6.977   4.502  11.022 -0.8512  1.2712  0.4293
 1795TIP3    H226877   6.925   4.379  11.094 -2.1777  0.2260 -2.2165
 1796TIP3   OH226878   7.069   3.677  10.584  0.2112  0.3668  0.5530
 1796TIP3    H126879   7.101   3.619  10.515  1.2080 -0.3651  1.6023
 1796TIP3    H226880   7.146   3.729  10.609 -0.6196  1.9616 -0.2055
 1797TIP3   OH226881   5.710   5.405  11.474  0.6881  0.5867 -0.2075
 1797TIP3    H126882   5.749   5.319  11.458 -1.0393 -0.3733  0.5631
 1797TIP3    H226883   5.783   5.460  11.500  2.1390 -0.1172 -2.6291
 1798TIP3   OH226884   6.571   0.615  13.230 -1.1074  0.0153  0.2998
 1798TIP3    H126885   6.513   0.660  13.168 -1.8397 -1.8507 -0.3863
 1798TIP3    H226886   6.653   0.666  13.228 -2.1280  1.6865  0.0365
 1799TIP3   OH226887   6.499   3.352  10.854  0.2649 -0.3341 -0.4486
 1799TIP3    H126888   6.540   3.431  10.820  1.0451 -0.4208  0.2784
 1799TIP3    H226889   6.528   3.347  10.945 -0.1543 -1.2026 -0.3590
 1800TIP3   OH226890   6.007   3.023  11.172 -0.5578  0.1096  0.5993
 1800TIP3    H126891   5.979   3.058  11.087  2.6089  1.6720  0.1477
 1800TIP3    H226892   6.002   3.097  11.232 -1.2352 -0.6069  1.4585
 1801TIP3   OH226893   4.277   2.672  11.044 -0.2145  0.3466  0.2478
 1801TIP3    H126894   4.233   2.734  10.986  0.7418  1.9511  1.1976
 1801TIP3    H226895   4.300   2.724  11.121  0.6850 -1.1786  1.0257
 1802TIP3   OH226896   4.711   0.719  11.968 -0.0847  0.4354 -0.2915
 1802TIP3    H126897   4.661   0.694  12.046 -0.3588 -2.7076 -1.4180
 1802TIP3    H226898   4.644   0.738  11.902  0.1666  1.9461 -0.1334
 1803TIP3   OH226899   0.241   3.353  10.863 -1.0096 -0.2011 -0.0166
 1803TIP3    H126900   0.306   3.361  10.933 -1.1921  1.1864  0.0115
 1803TIP3    H226901   0.293   3.357  10.782 -0.8619 -1.1397  0.0330
 1804TIP3   OH226902   5.990   3.145  13.698  0.0469 -0.1758 -0.0413
 1804TIP3    H126903   6.054   3.083  13.734 -2.2316 -1.3311  2.1071
 1804TIP3    H226904   5.936   3.092  13.639 -0.3461  0.3302 -0.1389
 1805TIP3   OH226905   0.630   1.439  14.043 -0.5155  0.4043 -0.4015
 1805TIP3    H126906   0.676   1.465  13.963 -1.4151 -0.0448 -1.0713
 1805TIP3    H226907   0.698   1.398  14.097  0.2399  1.3335 -0.6344
 1806TIP3   OH226908   5.403   2.837  10.690  0.5094 -0.2339  0.3858
 1806TIP3    H126909   5.363   2.797  10.613 -0.9256 -1.2622  1.6408
 1806TIP3    H226910   5.459   2.906  10.655 -0.7115 -0.1950 -1.5334
 1807TIP3   OH226911   0.596   3.960  11.986 -0.2987 -0.5234 -0.1257
 1807TIP3    H126912   0.548   3.888  12.028 -2.5974 -0.6425 -2.8167
 1807TIP3    H226913   0.602   3.934  11.894  3.0868  0.5422 -0.2741
 1808TIP3   OH226914   1.770   5.488  11.480  0.1084  0.4162  0.4283
 1808TIP3    H126915   1.737   5.425  11.544  0.2542  0.5624  0.6463
 1808TIP3    H226916   1.710   5.481  11.406  0.1824 -0.0552  0.4105
 1809TIP3   OH226917   0.350   1.517  11.186  0.8238 -0.0295 -0.9320
 1809TIP3    H126918   0.360   1.591  11.126  0.0152  1.4614  0.7226
 1809TIP3    H226919   0.420   1.529  11.250 -1.0099  0.9313  0.9646
 1810TIP3   OH226920   5.779   6.958  10.998  0.2470  0.1719 -0.1185
 1810TIP3    H126921   5.872   6.939  10.981  0.0135 -1.6520  0.5196
 1810TIP3    H226922   5.739   6.871  11.010 -0.7956  1.0670  3.4693
 1811TIP3   OH226923   6.181   1.956  11.290 -0.6210  0.2799 -0.2294
 1811TIP3    H126924   6.270   1.980  11.264 -0.5688 -0.9958 -1.2701
 1811TIP3    H226925   6.190   1.870  11.332 -1.3785  0.0781 -0.4641
 1812TIP3   OH226926   0.132   2.585  10.767  0.8345  0.2596 -0.2865
 1812TIP3    H126927   0.154   2.584  10.861  0.6900 -0.2715 -0.2564
 1812TIP3    H226928   0.085   2.667  10.754 -1.4533 -0.8583  0.6341
 1813TIP3   OH226929   7.134   3.254  12.794 -0.2283 -0.2544  0.3021
 1813TIP3    H126930   7.198   3.313  12.752 -0.5400 -0.5060 -0.5334
 1813TIP3    H226931   7.059   3.310  12.813  1.2227  0.6983  3.7788
 1814TIP3   OH226932   5.623   2.064  11.274 -0.2719 -0.2355  0.2782
 1814TIP3    H126933   5.660   2.001  11.213 -1.0462 -0.5757  0.1553
 1814TIP3    H226934   5.530   2.070  11.249 -0.4312  0.1592  0.9604
 1815TIP3   OH226935   0.959   1.023  10.829  0.3793 -0.2702 -0.1588
 1815TIP3    H126936   1.016   1.094  10.860  0.7169 -1.1084  1.1603
 1815TIP3    H226937   1.011   0.977  10.763  0.1573  0.6924 -1.0231
 1816TIP3   OH226938   1.044   1.428  11.573  0.8236 -0.2055  0.2653
 1816TIP3    H126939   1.002   1.505  11.536 -1.6834 -0.8644  1.6261
 1816TIP3    H226940   1.136   1.453  11.584  0.5192  1.7600 -1.4255
 1817TIP3   OH226941   5.314   4.112   9.961  0.8479  0.1668  0.6967
 1817TIP3    H126942   5.270   4.093   9.878  1.5093 -0.1280  0.4095
 1817TIP3    H226943   5.398   4.067   9.954  1.1945  0.7253  1.2381
 1818TIP3   OH226944   0.470   3.760  10.072  0.7151 -0.7610  0.0463
 1818TIP3    H126945   0.454   3.776  10.165  0.6958  1.1611 -0.2672
 1818TIP3    H226946   0.382   3.755  10.033  0.7428 -0.0751 -0.1043
 1819TIP3   OH226947   6.016   4.043  10.280  0.4121 -0.3103  0.4301
 1819TIP3    H126948   6.003   4.093  10.199 -1.4967  3.0700  2.6911
 1819TIP3    H226949   6.111   4.045  10.294  0.8183 -1.3959 -1.9527
 1820TIP3   OH226950   7.059   1.209  10.632 -0.0989 -0.1047  0.0305
 1820TIP3    H126951   7.048   1.153  10.555  0.4297  0.2108 -0.2756
 1820TIP3    H226952   6.971   1.219  10.668 -0.5259  0.7721 -1.2448
 1821TIP3   OH226953   6.835   1.781  13.953  0.0896 -0.0483  0.4247
 1821TIP3    H126954   6.890   1.782  14.031  1.6639 -1.3645 -0.6413
 1821TIP3    H226955   6.848   1.868  13.914 -0.5970  0.5654  1.5224
 1822TIP3   OH226956   6.933   2.096   9.917 -0.0755  0.4632  0.1073
 1822TIP3    H126957   6.939   2.001   9.909 -1.2252  0.2917  1.0347
 1822TIP3    H226958   7.010   2.130   9.872  1.7382 -1.0117  2.0412
 1823TIP3   OH226959   6.823   1.796  11.361 -0.0974  0.0003 -0.4383
 1823TIP3    H126960   6.895   1.781  11.299  3.1795  0.7125  3.0651
 1823TIP3    H226961   6.793   1.708  11.385  1.4948 -0.3764  0.2061
 1824TIP3   OH226962   6.459   1.891  10.469  0.2995 -0.3241  0.0728
 1824TIP3    H126963   6.555   1.892  10.464  0.2145  0.0988 -2.0597
 1824TIP3    H226964   6.438   1.810  10.514  1.6245 -1.2112 -0.8701
 1825TIP3   OH226965   0.446   2.836  10.417 -0.2377  0.1372  0.6240
 1825TIP3    H126966   0.397   2.815  10.496 -0.8105  1.3871  0.6028
 1825TIP3    H226967   0.436   2.930  10.406  0.5467  0.1056 -0.4664
 1826TIP3   OH226968   6.361   2.307  10.875 -0.6013 -0.2736  0.1354
 1826TIP3    H126969   6.444   2.280  10.915  0.9005  0.1114 -2.5736
 1826TIP3    H226970   6.360   2.261  10.791 -2.8340  0.2746 -0.1522
 1827TIP3   OH226971   6.998   0.860  12.457  0.7793 -0.4331  0.1506
 1827TIP3    H126972   7.054   0.935  12.474  0.0686  0.0029  0.5839
 1827TIP3    H226973   6.929   0.894  12.399 -0.3202 -0.4134  1.4494
 1828TIP3   OH226974   6.959   0.171  11.802  0.0669 -0.3477 -0.4091
 1828TIP3    H126975   6.890   0.106  11.816 -0.4887  0.2015 -0.6049
 1828TIP3    H226976   6.936   0.212  11.719  0.2631  0.2977 -0.1433
 1829TIP3   OH226977   0.222   4.477  11.839  0.1879  0.3495  0.8352
 1829TIP3    H126978   0.165   4.406  11.812  2.0442 -0.7851 -0.2003
 1829TIP3    H226979   0.165   4.536  11.889 -1.5896 -1.3363  0.8523
 1830TIP3   OH226980   4.315   1.373  11.867  0.0103 -0.2064  0.0249
 1830TIP3    H126981   4.400   1.334  11.889 -0.5051 -1.1767  0.2994
 1830TIP3    H226982   4.276   1.396  11.951 -1.7039 -3.3809  0.1818
 1831TIP3   OH226983   5.364   4.507  13.041 -0.2816 -0.0685 -0.2449
 1831TIP3    H126984   5.458   4.501  13.058 -0.2989  3.0565  1.2716
 1831TIP3    H226985   5.358   4.544  12.952 -0.0923 -0.2856 -0.3486
 1832TIP3   OH226986   6.722   2.711  11.518  0.1890 -0.3092 -0.4337
 1832TIP3    H126987   6.674   2.711  11.601  0.4871 -0.1405 -0.2603
 1832TIP3    H226988   6.806   2.751  11.539  1.0030 -2.0059 -0.4005
 1833TIP3   OH226989   5.552   1.534  10.201 -0.1342 -0.7571 -0.3284
 1833TIP3    H126990   5.589   1.539  10.113  1.6880 -1.4261  0.3606
 1833TIP3    H226991   5.512   1.619  10.216  1.0341 -0.0448 -1.1705
 1834TIP3   OH226992   0.853   2.313  10.563 -0.9698  0.4003  0.6697
 1834TIP3    H126993   0.919   2.379  10.583 -0.3875  0.4968 -1.4885
 1834TIP3    H226994   0.875   2.239  10.620  0.0296  1.0265  1.1080
 1835TIP3   OH226995   7.161   1.081  10.852  0.2003 -0.1832  0.1640
 1835TIP3    H126996   7.138   1.091  10.760  1.3683 -1.1078 -0.2364
 1835TIP3    H226997   7.077   1.074  10.897 -0.4061  1.6827 -0.6556
 1836TIP3   OH226998   6.741   2.623  12.134  0.2441  0.5396 -0.1203
 1836TIP3    H126999   6.794   2.576  12.198 -0.5887  0.3478  0.4395
 1836TIP3    H227000   6.671   2.663  12.186 -1.2625 -0.8141 -1.0821
 1837TIP3   OH227001   6.059   3.147  10.938  0.0130 -0.1171  0.1191
 1837TIP3    H127002   6.043   3.096  10.859  0.7398 -1.3657  0.7681
 1837TIP3    H227003   5.976   3.192  10.955 -0.5705 -0.9230 -0.5738
 1838TIP3   OH227004   6.413   4.435  10.489 -0.4107 -0.1839 -1.1158
 1838TIP3    H127005   6.445   4.437  10.579 -2.5580 -0.4991 -0.3150
 1838TIP3    H227006   6.474   4.379  10.442  1.4420  0.9960 -0.1459
 1839TIP3   OH227007   5.894   3.365  10.629 -0.1549 -0.2671 -0.4107
 1839TIP3    H127008   5.910   3.450  10.671 -0.7016  0.7330 -2.1733
 1839TIP3    H227009   5.802   3.369  10.601 -0.1234 -1.3604 -0.6797
 1840TIP3   OH227010   6.568   4.997  11.028 -0.3573 -0.4715  0.2731
 1840TIP3    H127011   6.518   4.929  10.982 -1.5667  0.9111 -0.4809
 1840TIP3    H227012   6.547   4.984  11.120 -0.9588 -0.8048  0.0905
 1841TIP3   OH227013   6.460   4.269  11.751  0.3784  0.3382 -0.1075
 1841TIP3    H127014   6.556   4.268  11.754  0.4189 -2.7439 -0.5036
 1841TIP3    H227015   6.438   4.196  11.693 -2.2088  0.9061  0.1319
 1842TIP3   OH227016   5.278   3.694  10.769  0.1890  0.5705 -0.2635
 1842TIP3    H127017   5.203   3.640  10.742 -0.4143  0.6120  1.2816
 1842TIP3    H227018   5.240   3.780  10.786  0.5639  0.5560  0.6603
 1843TIP3   OH227019   0.470   1.590  10.501 -0.3838 -0.4784 -0.2160
 1843TIP3    H127020   0.530   1.536  10.552  0.4502  0.9403  0.3265
 1843TIP3    H227021   0.527   1.649  10.451 -1.3019  1.9904  1.5309
 1844TIP3   OH227022   0.344   1.284  10.174  0.1393 -0.0745 -0.1779
 1844TIP3    H127023   0.423   1.335  10.189 -0.1142  0.6556 -1.2400
 1844TIP3    H227024   0.328   1.292  10.080 -0.6886 -0.9637 -0.1270
 1845TIP3   OH227025   6.645   6.256  11.156 -0.5234  0.1826  0.1187
 1845TIP3    H127026   6.674   6.291  11.072  1.7194  0.3351  0.9322
 1845TIP3    H227027   6.580   6.190  11.134 -0.3958  0.6537 -1.6985
 1846TIP3   OH227028   5.820   3.630  10.694 -0.0403 -0.4395  0.9365
 1846TIP3    H127029   5.854   3.684  10.765 -0.3811 -0.7340  1.3315
 1846TIP3    H227030   5.725   3.627  10.710 -0.1639 -0.2000  0.2530
 1847TIP3   OH227031   5.763   3.079  10.782  0.0321 -0.2553 -0.1735
 1847TIP3    H127032   5.699   3.072  10.711 -1.3638 -1.7844  1.1829
 1847TIP3    H227033   5.817   3.000  10.773  0.2853 -0.1066  0.0448
 1848TIP3   OH227034   7.338   2.247  11.183 -0.1365  0.2141 -0.7107
 1848TIP3    H127035   7.408   2.296  11.140  0.1556 -0.6462 -1.2245
 1848TIP3    H227036   7.313   2.302  11.258 -0.5616  1.6590 -1.8949
 1849TIP3   OH227037   6.382   1.361  10.316 -0.0345 -0.7566  0.0014
 1849TIP3    H127038   6.399   1.454  10.327 -0.6901 -0.6473  0.0997
 1849TIP3    H227039   6.406   1.343  10.225  0.4365 -0.5732  0.0891
 1850TIP3   OH227040   7.048   1.785  10.884  0.2567 -0.3588  0.0003
 1850TIP3    H127041   7.042   1.694  10.854  1.0202 -0.0106 -1.2774
 1850TIP3    H227042   7.000   1.835  10.817  0.5222  0.2532  0.2612
 1851TIP3   OH227043   6.351   2.034   9.732  0.8367  0.5782 -0.0495
 1851TIP3    H127044   6.441   2.009   9.754  0.8415  1.0122  0.4370
 1851TIP3    H227045   6.308   1.952   9.708  1.0602  0.2078  0.8012
 1852TIP3   OH227046   4.705   1.326  11.167  0.0617  0.0571 -0.3823
 1852TIP3    H127047   4.623   1.301  11.210 -0.8092  0.6479 -1.6732
 1852TIP3    H227048   4.732   1.407  11.211 -0.2682  0.0988 -0.2590
 1853TIP3   OH227049   6.817   0.077  11.429  0.0621 -0.4005  0.0505
 1853TIP3    H127050   6.821   0.158  11.480 -3.2236 -1.1497  1.6053
 1853TIP3    H227051   6.818   0.107  11.338  0.4803  1.2940  0.5886
 1854TIP3   OH227052   1.279   0.338  10.473  0.6347 -0.4600 -0.1170
 1854TIP3    H127053   1.351   0.401  10.479  0.2009 -0.0443  1.0154
 1854TIP3    H227054   1.200   0.390  10.491  0.1594 -1.1048 -0.3167
 1855TIP3   OH227055   6.118   0.649  11.587 -0.2041 -0.0358  0.4977
 1855TIP3    H127056   6.104   0.577  11.525 -1.4147  0.9419 -0.3831
 1855TIP3    H227057   6.213   0.663  11.587 -0.0162 -1.2649  0.2665
 1856TIP3   OH227058   6.646   2.945  10.593 -0.8930 -0.3640 -0.0750
 1856TIP3    H127059   6.610   3.034  10.592  0.6379  0.2839 -1.1253
 1856TIP3    H227060   6.657   2.924  10.685 -3.0169 -0.1992  0.2291
 1857TIP3   OH227061   7.015   3.323  10.509  0.0540 -0.4293  0.2436
 1857TIP3    H127062   7.093   3.375  10.493 -0.7589  1.1159  1.2056
 1857TIP3    H227063   6.973   3.314  10.423 -0.2365  1.2220  0.1994
 1858TIP3   OH227064   6.976   0.023  10.840  0.3498 -0.2977 -0.1213
 1858TIP3    H127065   6.944  -0.033  10.769 -0.4822  1.2413 -0.9873
 1858TIP3    H227066   7.072   0.022  10.830  0.2429 -0.1513 -1.2228
 1859TIP3   OH227067   0.678   3.222  11.783  0.1287 -0.2666 -0.1012
 1859TIP3    H127068   0.741   3.166  11.828 -0.7201 -1.5651 -0.4773
 1859TIP3    H227069   0.639   3.165  11.717 -1.8525  0.3286  0.5143
 1860TIP3   OH227070   1.595   6.063  10.510  0.4059  0.4091  0.1422
 1860TIP3    H127071   1.556   6.014  10.437 -0.4795  0.5146  0.5369
 1860TIP3    H227072   1.671   6.106  10.472  0.2942 -0.0219 -0.5811
 1861TIP3   OH227073   3.213   6.759  13.853 -0.2831 -0.6573 -0.5885
 1861TIP3    H127074   3.285   6.723  13.801  0.0027 -0.2133 -0.4966
 1861TIP3    H227075   3.241   6.847  13.877 -0.8756 -0.4642 -0.5890
 1862TIP3   OH227076   6.989   5.858  10.879  0.8200 -0.0501  0.1675
 1862TIP3    H127077   6.948   5.855  10.793  0.8509  1.9344  0.0756
 1862TIP3    H227078   7.008   5.950  10.895  0.5896 -0.3468  2.4135
 1863TIP3   OH227079   1.730   4.981  13.438  0.3429  0.3993 -0.3391
 1863TIP3    H127080   1.653   5.038  13.438  0.3387  0.3942 -0.5729
 1863TIP3    H227081   1.800   5.034  13.476  0.5860  0.8957 -1.4467
 1864TIP3   OH227082   6.864   5.837  12.167  0.0034  0.3701  0.8285
 1864TIP3    H127083   6.785   5.802  12.208 -0.4887  0.9859  0.3920
 1864TIP3    H227084   6.930   5.832  12.236 -0.5232  0.2787  1.3272
 1865TIP3   OH227085   0.385   5.932  10.846  0.2236  0.2019  0.3034
 1865TIP3    H127086   0.384   5.870  10.774  0.9305 -0.4544  0.8461
 1865TIP3    H227087   0.307   5.986  10.833 -0.6949 -1.1549  0.1442
 1866TIP3   OH227088   0.679   4.680  10.155 -0.4960 -0.9894 -0.2519
 1866TIP3    H127089   0.649   4.625  10.084 -1.2281 -0.6663 -0.2054
 1866TIP3    H227090   0.694   4.766  10.115 -2.9470 -0.2173  0.3280
 1867TIP3   OH227091   1.366   5.793  10.664  0.1415  0.1960  0.0010
 1867TIP3    H127092   1.398   5.709  10.630  1.1207  0.6252 -0.1623
 1867TIP3    H227093   1.385   5.790  10.757 -0.6924 -0.1532  0.1605
 1868TIP3   OH227094   1.317   2.808  13.302 -0.1427  0.0413  0.4670
 1868TIP3    H127095   1.357   2.729  13.264 -0.2391 -0.0848  0.6292
 1868TIP3    H227096   1.366   2.824  13.382 -0.0773  0.1876  0.3978
 1869TIP3   OH227097   2.687   5.284  12.362  0.2407 -0.3621  0.0686
 1869TIP3    H127098   2.591   5.287  12.359  0.2258  0.8217  1.0282
 1869TIP3    H227099   2.715   5.370  12.331  1.0789 -1.4667 -2.3008
 1870TIP3   OH227100   2.528   1.612  10.423  0.0470 -0.0677  0.2502
 1870TIP3    H127101   2.609   1.561  10.432 -0.0221 -0.3780 -0.8429
 1870TIP3    H227102   2.490   1.613  10.511  0.6079 -0.9644  0.5057
 1871TIP3   OH227103   7.141   2.672  10.512 -0.6271  0.0340 -0.5248
 1871TIP3    H127104   7.101   2.712  10.589  0.6041  0.6480 -0.1953
 1871TIP3    H227105   7.101   2.718  10.438  0.2179  1.3589 -0.1729
 1872TIP3   OH227106   1.559   6.288  12.113  0.2322 -0.7584  0.0600
 1872TIP3    H127107   1.569   6.222  12.181 -1.0168 -0.8030  0.2038
 1872TIP3    H227108   1.646   6.292  12.071  0.1857 -2.8708 -0.3111
 1873TIP3   OH227109   0.423   4.324  10.174 -0.1801 -0.3383  0.3740
 1873TIP3    H127110   0.407   4.398  10.115  0.6588 -0.2923  0.1956
 1873TIP3    H227111   0.486   4.358  10.238  2.0801 -1.6055 -1.1314
 1874TIP3   OH227112   0.936   4.933  10.958  0.7209 -0.0458 -0.0839
 1874TIP3    H127113   0.932   5.028  10.964  0.4191 -0.0266 -0.5043
 1874TIP3    H227114   1.019   4.915  10.913 -0.0081  0.1032 -1.5147
 1875TIP3   OH227115   0.981   5.966  13.666 -0.5227  0.0062  0.1481
 1875TIP3    H127116   1.004   5.874  13.680  0.7532  0.3754  0.5615
 1875TIP3    H227117   0.889   5.964  13.640  0.6050 -1.7529 -4.2148
 1876TIP3   OH227118   1.015   5.404  12.423 -0.0798  0.3966  0.0425
 1876TIP3    H127119   1.055   5.386  12.338  0.7010 -0.2276  0.5343
 1876TIP3    H227120   1.037   5.496  12.440  0.9979  0.1104  0.2267
 1877TIP3   OH227121   2.257   5.761  10.071  0.1981 -0.0250 -0.2128
 1877TIP3    H127122   2.323   5.732  10.008  1.7449  1.0282  0.8990
 1877TIP3    H227123   2.247   5.854  10.054  0.4908  0.2275  0.9881
 1878TIP3   OH227124   2.253   5.444  11.291 -0.4244  0.1278 -0.4522
 1878TIP3    H127125   2.174   5.450  11.344  0.4737 -0.4956  0.9974
 1878TIP3    H227126   2.280   5.352  11.297 -0.1008  0.1322 -1.6941
 1879TIP3   OH227127   3.618   3.194  12.430  0.3326  0.5549 -0.0204
 1879TIP3    H127128   3.641   3.265  12.371 -0.0493  0.2785 -0.5026
 1879TIP3    H227129   3.634   3.114  12.378 -0.5154  0.3265  0.0666
 1880TIP3   OH227130   0.964   3.831  10.825  0.3564  0.3325 -0.4306
 1880TIP3    H127131   0.949   3.873  10.909  0.7585  0.7799 -0.5819
 1880TIP3    H227132   1.033   3.883  10.784  0.9905 -0.5724 -0.5411
 1881TIP3   OH227133   7.226   4.808  10.195 -0.0970  0.4118 -0.1401
 1881TIP3    H127134   7.131   4.794  10.189  0.1362 -0.9892 -0.6242
 1881TIP3    H227135   7.264   4.734  10.149  1.3046 -0.4267  2.3084
 1882TIP3   OH227136   7.006   4.287  10.633  0.1130 -0.4636  0.0287
 1882TIP3    H127137   7.018   4.198  10.664 -0.7958 -0.2580  0.9841
 1882TIP3    H227138   7.012   4.342  10.711  0.0626  0.2588 -0.4625
 1883TIP3   OH227139   0.484   4.317  10.624 -0.4780 -0.0233 -0.0764
 1883TIP3    H127140   0.504   4.284  10.537 -3.4648 -2.9756  0.2803
 1883TIP3    H227141   0.550   4.276  10.681  0.0236  0.0545 -0.6007
 1884TIP3   OH227142   2.534   4.473  10.085 -0.7542  0.7142  0.2913
 1884TIP3    H127143   2.493   4.559  10.076  0.0297  1.0685  0.0640
 1884TIP3    H227144   2.622   4.485  10.050  0.0859  0.3717  2.2180
 1885TIP3   OH227145   1.815   3.762  11.017  0.1831  0.1495 -0.3703
 1885TIP3    H127146   1.843   3.794  10.931  0.3256 -0.0174 -0.3881
 1885TIP3    H227147   1.727   3.728  11.002  0.5426 -0.6757 -0.6477
 1886TIP3   OH227148   0.721   5.436  10.551  0.1506 -0.1036 -0.2313
 1886TIP3    H127149   0.700   5.372  10.483 -1.1379  0.4976 -0.4236
 1886TIP3    H227150   0.641   5.441  10.603  1.4671 -1.3819  2.0141
 1887TIP3   OH227151   1.719   4.881  10.961 -0.1011  0.3609  0.4970
 1887TIP3    H127152   1.638   4.849  10.921  0.0546  0.0088  0.4609
 1887TIP3    H227153   1.713   4.853  11.052 -0.0129  0.3191  0.4902
 1888TIP3   OH227154   1.870   3.797  10.745 -0.3172 -0.6233  0.2693
 1888TIP3    H127155   1.945   3.764  10.696 -0.7383 -0.2237 -0.6488
 1888TIP3    H227156   1.803   3.814  10.679 -1.3917 -1.4247  1.1138
 1889TIP3   OH227157   1.113   6.495  11.126 -0.0515 -0.6170  0.0148
 1889TIP3    H127158   1.184   6.439  11.157  0.2763 -0.3875 -0.3035
 1889TIP3    H227159   1.158   6.561  11.072 -0.4071  0.0965  0.5968
 1890TIP3   OH227160   0.628   4.447  10.290  0.4815 -0.1968  0.1510
 1890TIP3    H127161   0.644   4.531  10.247 -0.3050 -0.1556 -0.0704
 1890TIP3    H227162   0.715   4.416  10.315  0.6885  1.2734  1.3553
 1891TIP3   OH227163   6.668   5.446  10.561 -0.4031 -0.0339  0.0310
 1891TIP3    H127164   6.730   5.483  10.498  0.1865 -0.8170  0.1396
 1891TIP3    H227165   6.586   5.438  10.512 -0.9210  2.5980  0.3761
 1892TIP3   OH227166   1.362   5.280  12.058 -0.0909 -0.0765 -0.2937
 1892TIP3    H127167   1.454   5.295  12.038 -0.3731  1.6443 -0.3748
 1892TIP3    H227168   1.318   5.360  12.029 -1.2747  0.1424  2.0609
 1893TIP3   OH227169   0.422   5.134  11.437  0.1397 -0.3133  0.2207
 1893TIP3    H127170   0.332   5.140  11.405  0.5141 -2.6082 -1.3545
 1893TIP3    H227171   0.461   5.218  11.412 -0.2653 -1.1177 -3.3745
 1894TIP3   OH227172   1.174   5.766  12.105 -0.1375  0.0793 -0.2126
 1894TIP3    H127173   1.133   5.850  12.085 -0.5418 -0.1511 -0.3540
 1894TIP3    H227174   1.246   5.788  12.164 -0.4683  0.4827  0.0415
 1895TIP3   OH227175   1.527   5.918  11.944 -0.0593 -0.2838 -0.7056
 1895TIP3    H127176   1.563   5.929  12.032 -0.2587 -1.0319 -0.5273
 1895TIP3    H227177   1.451   5.975  11.942 -1.9572 -2.6657  0.7018
 1896TIP3   OH227178   0.170   3.889  10.930 -0.4434 -0.0834 -0.3121
 1896TIP3    H127179   0.178   3.949  11.004  2.1045 -2.0735  1.1360
 1896TIP3    H227180   0.207   3.937  10.856 -0.0164  0.7494  0.4357
 1897TIP3   OH227181   0.901   4.388  10.367  0.2595  0.1127 -0.0583
 1897TIP3    H127182   0.995   4.383  10.384  0.2919 -0.2894 -0.3451
 1897TIP3    H227183   0.880   4.305  10.325  0.1728  1.0238 -1.8731
 1898TIP3   OH227184   1.321   5.859   9.935  0.0428  0.3888 -0.2821
 1898TIP3    H127185   1.363   5.785   9.979 -0.8836 -0.3786 -0.6982
 1898TIP3    H227186   1.257   5.891   9.999 -1.3386 -0.7576 -1.0816
 1899TIP3   OH227187   1.344   7.267  13.237 -0.2875 -0.1357  0.1137
 1899TIP3    H127188   1.288   7.259  13.160 -1.0556  2.6043  0.3060
 1899TIP3    H227189   1.291   7.233  13.309 -1.5168  1.8165  0.1823
 1900TIP3   OH227190   0.614   4.942  11.540  0.6152 -0.1286  0.1927
 1900TIP3    H127191   0.540   5.000  11.524  0.5624  0.2034  1.5352
 1900TIP3    H227192   0.581   4.854  11.519  0.1605  0.1316 -0.1956
 1901TIP3   OH227193   2.668   0.106  11.599  0.3871 -0.1899 -0.6631
 1901TIP3    H127194   2.693   0.194  11.573 -0.8901  0.1441 -0.7804
 1901TIP3    H227195   2.597   0.082  11.540  0.7555 -1.3308 -0.6757
 1902TIP3   OH227196   0.191   5.001  10.762  0.3446  0.1001  0.1881
 1902TIP3    H127197   0.170   4.920  10.808  2.4223 -0.7938 -0.3702
 1902TIP3    H227198   0.118   5.013  10.702  0.4255 -1.8956 -0.3768
 1903TIP3   OH227199   7.304   7.135  11.369  0.1115  0.2392 -0.6883
 1903TIP3    H127200   7.382   7.136  11.312 -0.4277  2.5588 -1.4354
 1903TIP3    H227201   7.244   7.197  11.328 -0.7394  1.1265  1.8464
 1904TIP3   OH227202   1.833   5.703  10.598 -0.2545 -0.0137  0.1870
 1904TIP3    H127203   1.827   5.706  10.503 -0.7142  1.3215  0.2473
 1904TIP3    H227204   1.807   5.613  10.621 -1.5887  0.0852 -0.8448
 1905TIP3   OH227205   6.804   5.727  10.125 -1.4504 -0.1393 -0.1597
 1905TIP3    H127206   6.720   5.691  10.153 -1.7610  1.6186  1.2876
 1905TIP3    H227207   6.798   5.729  10.029 -1.8021 -2.8909 -0.2407
 1906TIP3   OH227208   1.704   5.964  11.626 -0.2402 -0.5018  0.0988
 1906TIP3    H127209   1.781   5.906  11.622 -0.4141 -0.6246 -2.2000
 1906TIP3    H227210   1.682   5.968  11.719  1.2175 -2.2461  0.5563
 1907TIP3   OH227211   1.236   5.318  10.308  0.3807  0.2350 -0.2870
 1907TIP3    H127212   1.246   5.369  10.227 -0.2174 -1.3397 -1.3657
 1907TIP3    H227213   1.143   5.324  10.329  0.5140  0.5363  0.2180
 1908TIP3   OH227214   0.337   3.364  10.410  0.4191 -0.0296  0.2843
 1908TIP3    H127215   0.422   3.401  10.433 -0.2119  2.4487 -1.1753
 1908TIP3    H227216   0.352   3.269  10.406  3.4659  0.4516 -1.2452
 1909TIP3   OH227217   6.088   4.004  11.497  0.3300 -0.1641 -0.2600
 1909TIP3    H127218   6.103   4.085  11.546 -1.1513  0.0143 -0.0864
 1909TIP3    H227219   6.054   4.033  11.413 -0.9900 -0.6259  0.1008
 1910TIP3   OH227220   1.788   3.606  10.238 -0.5419  0.4848  0.3876
 1910TIP3    H127221   1.884   3.606  10.241 -0.4372  0.7627 -2.1258
 1910TIP3    H227222   1.767   3.563  10.156 -2.6178 -0.0028  1.1537
 1911TIP3   OH227223   7.208   4.988  12.309  0.2325 -0.7698 -0.2562
 1911TIP3    H127224   7.235   4.909  12.355 -2.0215 -2.2059 -1.3208
 1911TIP3    H227225   7.115   4.974  12.289 -0.1186  1.9890 -0.7779
 1912TIP3   OH227226   1.990   2.569  12.206 -0.2329 -0.6281 -0.0503
 1912TIP3    H127227   1.975   2.616  12.124  1.3156  2.3014  1.2673
 1912TIP3    H227228   1.908   2.524  12.223 -1.3075  0.4625 -2.1204
 1913TIP3   OH227229   0.867   2.842  10.573 -0.1336  0.2983 -0.9005
 1913TIP3    H127230   0.852   2.935  10.557 -2.1976 -0.1447 -1.6864
 1913TIP3    H227231   0.956   2.826  10.542 -0.2894  1.6966 -2.1083
 1914TIP3   OH227232   7.162   3.166  10.218  0.6259 -0.0039 -0.1402
 1914TIP3    H127233   7.253   3.186  10.242  0.0116  1.7424  0.7696
 1914TIP3    H227234   7.158   3.182  10.124  0.5148  2.8169  0.3239
 1915TIP3   OH227235   5.898   6.142  11.234 -0.7475  0.0549  0.2147
 1915TIP3    H127236   5.949   6.184  11.303 -0.7376 -0.1649  0.3437
 1915TIP3    H227237   5.814   6.188  11.234 -0.0082  1.4506 -1.0411
 1916TIP3   OH227238   6.959   2.816  11.228  0.3120 -0.2357 -0.5032
 1916TIP3    H127239   6.973   2.868  11.149  0.6834 -0.9965 -0.9467
 1916TIP3    H227240   6.875   2.846  11.262  0.7001  0.9151 -0.5422
 1917TIP3   OH227241   2.461   4.866  11.834  0.0098 -0.5310  0.7699
 1917TIP3    H127242   2.384   4.891  11.783 -0.8052 -0.8885  1.7986
 1917TIP3    H227243   2.462   4.928  11.907  1.5301  0.3817  0.0015
 1918TIP3   OH227244   1.378   3.253  10.118  0.1493 -0.2252 -0.3322
 1918TIP3    H127245   1.421   3.306  10.050  0.0795  0.2422 -0.0152
 1918TIP3    H227246   1.441   3.252  10.190 -1.3758  2.5432  1.0992
 1919TIP3   OH227247   1.137   4.923  10.234  0.1856 -0.4418 -0.6442
 1919TIP3    H127248   1.196   4.849  10.227  0.1793 -0.3763 -1.3776
 1919TIP3    H227249   1.072   4.910  10.164 -1.2372 -1.0246  0.7399
 1920TIP3   OH227250   6.134   4.365  10.201 -0.3480 -0.1849  0.2055
 1920TIP3    H127251   6.163   4.443  10.249 -0.0519  1.5078 -2.6315
 1920TIP3    H227252   6.053   4.392  10.159  0.5843 -0.8736 -2.0963
 1921TIP3   OH227253   0.050   4.263  10.081  0.2322 -0.0119 -0.3400
 1921TIP3    H127254   0.043   4.358  10.086 -1.5472 -0.1616  0.3914
 1921TIP3    H227255   0.001   4.240  10.002  0.7058 -0.3260 -0.5443
 1922TIP3   OH227256   0.369   2.630  13.603  0.8604 -0.3822 -0.3099
 1922TIP3    H127257   0.287   2.586  13.627  0.5767  0.0761 -0.4206
 1922TIP3    H227258   0.348   2.676  13.522  1.4043 -0.7559 -0.6687
 1923TIP3   OH227259   7.135   5.777  11.468 -0.3806 -0.0633  0.2638
 1923TIP3    H127260   7.052   5.735  11.490 -0.6242 -0.1905 -0.8367
 1923TIP3    H227261   7.202   5.718  11.504 -0.7395 -0.8449 -0.3322
 1924TIP3   OH227262   0.419   4.535  12.302  0.2581 -0.1866  0.1699
 1924TIP3    H127263   0.470   4.588  12.363 -0.3505  0.8009 -0.1677
 1924TIP3    H227264   0.456   4.557  12.216 -0.6909  0.4935 -0.0710
 1925TIP3   OH227265   0.988   4.844  10.028 -0.6250  0.0578 -0.2140
 1925TIP3    H127266   1.012   4.795   9.950  0.5925 -0.4827  0.4945
 1925TIP3    H227267   0.899   4.876  10.010 -0.5852 -0.5704 -1.5572
 1926TIP3   OH227268   2.207   3.929  11.074 -0.4277 -0.3427 -0.1005
 1926TIP3    H127269   2.124   3.903  11.035 -0.3224  0.5918 -0.9707
 1926TIP3    H227270   2.269   3.929  11.001  0.0613  0.1689  0.3115
 1927TIP3   OH227271   6.910   3.758  10.265 -0.3801  0.2112  0.3497
 1927TIP3    H127272   6.862   3.828  10.221 -0.1130  0.0371 -0.2263
 1927TIP3    H227273   6.989   3.801  10.298 -0.3798  0.2530  0.2937
 1928TIP3   OH227274   1.846   3.548  13.025  0.0888 -0.0915 -0.0292
 1928TIP3    H127275   1.844   3.644  13.025  2.0665 -0.0253 -0.7287
 1928TIP3    H227276   1.937   3.526  13.047 -0.2311 -1.8046 -0.3436
 1929TIP3   OH227277   1.970   2.844  11.216 -0.6865  0.0017 -0.1071
 1929TIP3    H127278   1.976   2.842  11.311  0.4592 -0.2345 -0.1679
 1929TIP3    H227279   1.931   2.929  11.196 -2.6850 -0.7288  0.6369
 1930TIP3   OH227280   0.019   5.991  13.612 -0.5487 -0.4588  0.3098
 1930TIP3    H127281   0.107   5.970  13.644 -0.2549  1.8058  1.1160
 1930TIP3    H227282   0.011   6.086  13.627 -1.2483  0.3156 -4.3657
 1931TIP3   OH227283   6.666   5.101  10.302 -0.2829 -0.4455 -0.1543
 1931TIP3    H127284   6.639   5.125  10.390 -1.3117  0.7565 -0.7664
 1931TIP3    H227285   6.607   5.030  10.277  0.1986 -0.9816  0.2313
 1932TIP3   OH227286   1.539   3.988   9.823 -0.2871 -0.8694 -0.1193
 1932TIP3    H127287   1.474   4.010   9.890 -0.7386 -1.0856 -0.4818
 1932TIP3    H227288   1.566   4.072   9.788  0.9892 -0.6687  1.2969
 1933TIP3   OH227289   1.574   4.247  11.646 -0.3712 -0.0161  0.1689
 1933TIP3    H127290   1.506   4.203  11.596  0.7741 -0.8054 -0.7280
 1933TIP3    H227291   1.545   4.241  11.737 -1.0332 -1.1810 -0.1118
 1934TIP3   OH227292   3.620   5.436  11.045  0.4111  0.8948 -0.3522
 1934TIP3    H127293   3.654   5.371  10.983 -1.9273  0.5251 -1.3215
 1934TIP3    H227294   3.626   5.519  10.998  0.6245  0.9319 -0.2588
 1935TIP3   OH227295   7.323   4.553  10.107 -0.2541 -0.1071  0.1933
 1935TIP3    H127296   7.303   4.532  10.016  1.1530  2.5132 -0.7614
 1935TIP3    H227297   7.418   4.542  10.114 -0.1888  0.9280  1.0053
 1936TIP3   OH227298   1.345   3.492  11.712  0.6954 -0.0192 -0.0173
 1936TIP3    H127299   1.334   3.518  11.804 -2.2820 -0.7949 -0.1160
 1936TIP3    H227300   1.343   3.397  11.713  0.6663 -0.0324 -0.8949
 1937TIP3   OH227301   1.179   3.501  10.912 -0.8523  0.1866 -0.2504
 1937TIP3    H127302   1.252   3.533  10.859 -0.6808  1.2872  0.6459
 1937TIP3    H227303   1.110   3.484  10.848 -0.5459  1.2170 -0.8776
 1938TIP3   OH227304   2.235   5.033   9.697  0.1654  0.0148 -0.0030
 1938TIP3    H127305   2.169   5.080   9.749  0.2305  1.3741 -1.0959
 1938TIP3    H227306   2.186   4.961   9.657 -0.0833 -0.4998  1.2131
 1939TIP3   OH227307   6.459   3.799  12.588  0.1529 -0.0209 -0.5447
 1939TIP3    H127308   6.389   3.849  12.545  0.4228  0.9870  0.1746
 1939TIP3    H227309   6.439   3.805  12.681  2.4690  2.2525 -0.1568
 1940TIP3   OH227310   3.369   4.801  13.163 -0.9686 -0.0246  0.3932
 1940TIP3    H127311   3.448   4.747  13.167 -1.2216 -0.5735 -1.3886
 1940TIP3    H227312   3.347   4.803  13.070 -1.8200  1.9252  0.6249
 1941TIP3   OH227313   0.177   6.391  12.077 -0.0724 -0.1213 -0.0004
 1941TIP3    H127314   0.140   6.340  12.149 -0.0777 -0.8948 -0.5470
 1941TIP3    H227315   0.244   6.334  12.039  1.7304  1.3021  1.0157
 1942TIP3   OH227316   1.989   4.859  11.898 -0.4364 -0.3291  0.1727
 1942TIP3    H127317   1.906   4.837  11.939  0.1309 -1.1166  0.9161
 1942TIP3    H227318   2.039   4.778  11.899  0.8973  0.4676  1.0748
 1943TIP3   OH227319   4.032   3.117  10.675  1.3983 -0.2299  0.2326
 1943TIP3    H127320   4.111   3.077  10.638  1.1176  0.4921 -1.1514
 1943TIP3    H227321   4.005   3.182  10.611  0.0049 -0.0527  0.9772
 1944TIP3   OH227322   1.113   5.662  10.488 -0.3553 -0.0347 -0.4490
 1944TIP3    H127323   1.090   5.615  10.569 -1.1242 -0.5336 -0.9484
 1944TIP3    H227324   1.050   5.630  10.424  0.7590 -0.2340 -1.4522
 1945TIP3   OH227325   1.495   5.183  10.569 -0.2768 -0.5997 -0.6227
 1945TIP3    H127326   1.485   5.089  10.553  0.3444 -0.8757  0.5667
 1945TIP3    H227327   1.483   5.223  10.483 -0.9233 -1.7341 -1.0733
 1946TIP3   OH227328   3.708   4.651  12.562 -0.7731 -0.7015 -0.4997
 1946TIP3    H127329   3.719   4.668  12.655 -1.8576 -0.6143 -0.3794
 1946TIP3    H227330   3.632   4.704  12.537  0.3757  0.3855 -1.7374
 1947TIP3   OH227331   3.127   4.392  10.162 -0.1465 -0.0552  0.8133
 1947TIP3    H127332   3.138   4.460  10.228  1.0677  0.1977  0.3614
 1947TIP3    H227333   3.077   4.434  10.092  2.3437  1.0089 -0.3753
 1948TIP3   OH227334   2.010   5.976  10.159  0.1186 -0.7671  0.2461
 1948TIP3    H127335   2.070   6.003  10.090  2.4050 -0.3344  2.3244
 1948TIP3    H227336   1.981   5.888  10.132  0.3221 -0.2778 -1.6384
 1949TIP3   OH227337   1.140   3.826  10.454  0.2863 -0.2479 -0.6334
 1949TIP3    H127338   1.132   3.845  10.360  0.4722  2.7713 -0.0887
 1949TIP3    H227339   1.204   3.890  10.485  0.1039 -1.1338  1.6024
 1950TIP3   OH227340   0.121   4.953  10.206 -0.2929  0.4518 -0.1382
 1950TIP3    H127341   0.030   4.921  10.205 -0.7533  1.6955  0.2016
 1950TIP3    H227342   0.157   4.919  10.287 -0.2352 -0.6152 -0.5987
 1951TIP3   OH227343   2.007   4.026  10.863 -0.1832  0.5732  0.8252
 1951TIP3    H127344   1.945   4.056  10.929 -0.3164  0.6036  0.6880
 1951TIP3    H227345   1.957   3.965  10.809  0.1299 -0.0039  1.1850
 1952TIP3   OH227346   2.769   4.655  12.656  0.3761  0.0688 -0.0572
 1952TIP3    H127347   2.801   4.720  12.593 -0.4367 -0.6839 -1.2642
 1952TIP3    H227348   2.847   4.605  12.679  1.3045  2.3329  1.9753
 1953TIP3   OH227349   0.711   3.275  12.569 -0.3394 -0.5183 -0.1945
 1953TIP3    H127350   0.671   3.212  12.630  0.4858  0.1234  1.0212
 1953TIP3    H227351   0.802   3.280  12.596  0.2640 -0.8975 -2.0754
 1954TIP3   OH227352   6.536   5.130  10.550  0.2277  0.5269 -0.3612
 1954TIP3    H127353   6.488   5.051  10.526 -0.3664  1.3927 -2.0852
 1954TIP3    H227354   6.469   5.198  10.557  1.0000  1.3892 -1.2217
 1955TIP3   OH227355   2.624   6.046  12.189 -0.3612  0.2746 -0.2475
 1955TIP3    H127356   2.634   6.014  12.279  0.8863 -0.4341 -0.6332
 1955TIP3    H227357   2.544   6.098  12.191 -0.9215 -0.6209  1.0323
 1956TIP3   OH227358   0.721   2.675  10.421  0.1565 -0.2789 -0.0940
 1956TIP3    H127359   0.761   2.726  10.492  1.2589 -2.1060  0.6478
 1956TIP3    H227360   0.635   2.714  10.409 -0.1417 -0.0699  2.4444
 1957TIP3   OH227361   1.047   3.563  12.104 -0.2699 -0.3495  0.3566
 1957TIP3    H127362   1.015   3.493  12.161 -1.8955 -0.8268 -1.1227
 1957TIP3    H227363   0.973   3.623  12.094 -0.3817 -0.8594 -2.1475
 1958TIP3   OH227364   2.433   1.479  11.259  0.6149  0.2115 -0.0995
 1958TIP3    H127365   2.390   1.516  11.182  0.3350  1.6449  0.7376
 1958TIP3    H227366   2.500   1.422  11.223 -0.5795 -0.4009 -1.4161
 1959TIP3   OH227367   0.487   2.763  13.178  0.0937 -0.1909 -0.0787
 1959TIP3    H127368   0.473   2.766  13.272 -2.1718  0.2526 -0.3964
 1959TIP3    H227369   0.442   2.683  13.150  1.0483 -0.5045 -0.7463
 1960TIP3   OH227370   0.212   4.528  11.058  0.7384  0.0824  0.2987
 1960TIP3    H127371   0.229   4.437  11.084  0.9232 -0.0716 -0.3692
 1960TIP3    H227372   0.287   4.576  11.091 -0.6803  0.4740  3.1780
 1961TIP3   OH227373   2.052   6.493  10.997  0.4595 -0.6320 -0.8784
 1961TIP3    H127374   2.143   6.512  10.977  0.6779 -0.1158  0.6063
 1961TIP3    H227375   2.014   6.578  11.019  0.3269 -1.2402  1.3070
 1962TIP3   OH227376   0.076   3.188  10.298  0.3400 -0.2340  0.2148
 1962TIP3    H127377   0.145   3.177  10.232  1.8578 -2.9752  2.1442
 1962TIP3    H227378   0.097   3.271  10.340  2.0197 -0.6413  0.2307
 1963TIP3   OH227379   1.057   4.389  10.022  0.5305 -0.0337 -0.0085
 1963TIP3    H127380   0.988   4.432  10.072  0.5248  0.4071 -0.3893
 1963TIP3    H227381   1.136   4.440  10.039  0.5896 -0.0494 -0.2230
 1964TIP3   OH227382   0.465   5.695  11.467  0.3987  0.0470 -0.0660
 1964TIP3    H127383   0.468   5.753  11.543 -0.2879 -0.3835  0.2978
 1964TIP3    H227384   0.400   5.734  11.409 -1.3042 -1.2147  0.9207
 1965TIP3   OH227385   1.421   6.907  12.036 -0.3806  0.0911  1.3373
 1965TIP3    H127386   1.398   6.923  11.944  0.4497  0.9063  1.2727
 1965TIP3    H227387   1.480   6.978  12.059  0.4853 -0.8688  2.1109
 1966TIP3   OH227388   3.261   5.720  11.478  0.6257  0.8786 -0.4022
 1966TIP3    H127389   3.182   5.773  11.467  0.4014  0.3913 -1.2035
 1966TIP3    H227390   3.235   5.632  11.451  0.5260 -0.0498  2.5454
 1967TIP3   OH227391   1.767   5.837   9.837 -0.2319  0.0861 -0.1489
 1967TIP3    H127392   1.859   5.833   9.811  0.1889  3.0745  0.6262
 1967TIP3    H227393   1.765   5.801   9.925 -0.2404 -2.2444 -1.0798
 1968TIP3   OH227394   7.267   5.857  13.246 -0.3339 -0.2404 -0.0484
 1968TIP3    H127395   7.206   5.864  13.319 -0.3214  1.3310 -0.1681
 1968TIP3    H227396   7.216   5.818  13.175 -0.2693 -2.0292  0.8743
 1969TIP3   OH227397   1.156   5.513  11.342 -0.2196  0.3972  0.3433
 1969TIP3    H127398   1.200   5.465  11.412  0.3039 -0.1628 -0.3654
 1969TIP3    H227399   1.159   5.605  11.369 -0.9187  0.0737  1.5432
 1970TIP3   OH227400   6.855   5.737  10.626 -0.3059  0.4262 -0.0815
 1970TIP3    H127401   6.851   5.705  10.535  1.2827  0.2084 -0.0981
 1970TIP3    H227402   6.773   5.709  10.665 -0.5377 -0.4378 -1.1641
 1971TIP3   OH227403   1.029   3.263  12.165 -0.4441  0.6189 -0.2626
 1971TIP3    H127404   1.011   3.207  12.090 -0.3050 -0.5291  0.5529
 1971TIP3    H227405   0.943   3.276  12.206 -0.4543  0.8995 -0.3672
 1972TIP3   OH227406   0.691   4.648  10.778  0.4171 -0.2851  0.3616
 1972TIP3    H127407   0.753   4.641  10.705 -1.4846 -0.1379 -1.2909
 1972TIP3    H227408   0.727   4.590  10.845  1.8369 -0.9503 -0.9408
 1973TIP3   OH227409   1.428   3.513  10.782  0.1036 -0.4009  0.1812
 1973TIP3    H127410   1.523   3.519  10.793  0.2058  2.0159 -1.6460
 1973TIP3    H227411   1.416   3.440  10.721  0.8096 -0.6019  0.2767
 1974TIP3   OH227412   3.278   4.734  12.899  0.4275 -0.9972 -0.2533
 1974TIP3    H127413   3.253   4.652  12.943 -0.3796  0.0741  1.3634
 1974TIP3    H227414   3.198   4.763  12.855  0.2722 -0.3124  0.4574
 1975TIP3   OH227415   1.013   2.963   9.985  0.1558 -0.3769 -0.5221
 1975TIP3    H127416   0.940   3.021  10.005 -0.0746 -0.5593 -0.8187
 1975TIP3    H227417   1.085   2.994  10.040 -0.4093 -0.7538  0.4507
 1976TIP3   OH227418   0.789   4.588  10.535  0.1254 -0.4085  0.2158
 1976TIP3    H127419   0.825   4.531  10.467 -0.6920 -3.6958  2.4394
 1976TIP3    H227420   0.709   4.623  10.497  0.1382 -1.4959 -0.8455
 1977TIP3   OH227421   2.046   4.073  11.814  0.2156  0.1939 -0.0373
 1977TIP3    H127422   2.065   4.040  11.726  0.2508  0.1745 -0.0220
 1977TIP3    H227423   1.952   4.091  11.814  0.1586 -0.1163  0.0265
 1978TIP3   OH227424   2.494   5.110   9.807  0.4621 -0.3927 -0.2405
 1978TIP3    H127425   2.423   5.088   9.746 -0.0942 -0.4834  0.4262
 1978TIP3    H227426   2.491   5.039   9.872  0.1773  0.4104  0.6303
 1979TIP3   OH227427   2.120   4.334  12.227 -0.6760 -0.3719 -0.4896
 1979TIP3    H127428   2.064   4.409  12.205  0.4918  0.5387 -0.4274
 1979TIP3    H227429   2.203   4.374  12.255  0.5030 -1.7116 -1.9373
 1980TIP3   OH227430   2.399   3.757  10.909  0.4869  0.5494 -0.0619
 1980TIP3    H127431   2.467   3.697  10.938  0.2304  1.1825  1.8618
 1980TIP3    H227432   2.327   3.699  10.882  1.2338 -0.0669 -0.7958
 1981TIP3   OH227433   0.586   6.119  14.075  0.1184  0.3686 -1.0937
 1981TIP3    H127434   0.572   6.186  14.142 -1.1680 -0.3489 -0.6054
 1981TIP3    H227435   0.654   6.062  14.112  0.4087  0.7637 -1.0162
 1982TIP3   OH227436   2.795   3.311  12.207  0.9439 -0.1795 -0.4252
 1982TIP3    H127437   2.872   3.269  12.168  1.2322  0.0984 -0.1538
 1982TIP3    H227438   2.732   3.316  12.135  1.8561  1.2919 -1.1674
 1983TIP3   OH227439   0.259   3.818  10.596 -0.3742  0.2044  0.0243
 1983TIP3    H127440   0.275   3.890  10.657 -0.5834 -0.3944  0.8126
 1983TIP3    H227441   0.310   3.840  10.518  1.4682  0.0553  1.1546
 1984TIP3   OH227442   0.995   4.736  11.547  0.2275 -0.4154 -0.2319
 1984TIP3    H127443   0.903   4.731  11.519  0.3677 -0.3077 -0.7052
 1984TIP3    H227444   0.995   4.697  11.634 -0.0507 -1.5358 -0.7268
 1985TIP3   OH227445   7.067   1.932  10.560 -0.3539  0.4722 -0.1478
 1985TIP3    H127446   7.073   2.014  10.609  0.1675 -1.6823  3.6305
 1985TIP3    H227447   7.156   1.896  10.564 -0.2890  0.2604 -2.8134
 1986TIP3   OH227448   0.979   6.240  12.798 -0.4540 -0.3586 -0.0688
 1986TIP3    H127449   0.957   6.254  12.891  2.7413  0.7389  0.5890
 1986TIP3    H227450   1.072   6.215  12.799  0.0115  1.0478 -3.0790
 1987TIP3   OH227451   0.847   6.083  10.890  0.2089 -0.0188 -0.0677
 1987TIP3    H127452   0.897   6.007  10.862  1.3372  0.5522  0.3843
 1987TIP3    H227453   0.909   6.136  10.941 -0.4970  1.3179 -0.5671
 1988TIP3   OH227454   7.048   3.758  11.346 -0.0174 -0.2304  0.0623
 1988TIP3    H127455   7.060   3.803  11.430  1.8663 -2.5247  1.0976
 1988TIP3    H227456   7.136   3.726  11.324 -0.6802 -0.5237 -2.3158
 1989TIP3   OH227457   2.463   4.794  10.405 -0.3785  0.5083 -0.2887
 1989TIP3    H127458   2.432   4.800  10.315  0.9860  0.0362 -0.8146
 1989TIP3    H227459   2.540   4.736  10.399 -1.0119 -0.5299  1.3618
 1990TIP3   OH227460   2.557   5.339  13.083 -0.2052 -0.0577  0.3551
 1990TIP3    H127461   2.604   5.283  13.020  0.3943  0.1610  0.6012
 1990TIP3    H227462   2.554   5.287  13.163  0.4528  0.3040  0.6184
 1991TIP3   OH227463   6.872   5.949  11.118  0.0435 -0.5871  0.4551
 1991TIP3    H127464   6.934   5.901  11.063 -0.8238 -0.7749 -0.3795
 1991TIP3    H227465   6.888   6.041  11.098  0.5238 -0.6029  0.7600
 1992TIP3   OH227466   2.716   4.066  10.402 -0.1581 -0.3673  0.6419
 1992TIP3    H127467   2.661   4.144  10.398  0.4671  0.1058  1.1017
 1992TIP3    H227468   2.746   4.062  10.493  0.0525 -0.9782  0.5519
 1993TIP3   OH227469   2.544   4.671  12.140 -0.1223  0.5207  0.0528
 1993TIP3    H127470   2.568   4.698  12.229  2.2724 -0.0672 -0.3620
 1993TIP3    H227471   2.614   4.707  12.085 -0.3408 -1.0819 -1.3018
 1994TIP3   OH227472   1.518   3.760  10.938  0.0372  0.5879  0.3525
 1994TIP3    H127473   1.535   3.850  10.911 -1.4713  1.0357  0.8224
 1994TIP3    H227474   1.458   3.725  10.872  2.7516 -0.9985 -1.3557
 1995TIP3   OH227475   1.274   0.134  12.816 -0.3585  0.4768  0.6664
 1995TIP3    H127476   1.249   0.226  12.809  0.2004  0.6151  0.4400
 1995TIP3    H227477   1.259   0.112  12.908 -0.4965  0.7925  0.7201
 1996TIP3   OH227478   0.626   5.531  10.078  0.5161  0.0033  0.2473
 1996TIP3    H127479   0.672   5.503  10.000 -0.9440  0.3600 -0.7670
 1996TIP3    H227480   0.538   5.493  10.069  0.0240  0.8835  1.2198
 1997TIP3   OH227481   2.339   2.987  12.447 -0.4694 -0.0098 -0.1356
 1997TIP3    H127482   2.295   3.062  12.407 -2.0276  0.8649  3.0490
 1997TIP3    H227483   2.297   2.910  12.409 -1.1447  0.7637 -0.9608
 1998TIP3   OH227484   2.648   5.609  11.395  0.6253 -0.1261  0.0505
 1998TIP3    H127485   2.682   5.522  11.414  0.9832  0.0436  0.1989
 1998TIP3    H227486   2.591   5.598  11.319 -0.0400 -0.6462  0.6194
 1999TIP3   OH227487   0.793   4.358  12.080 -0.5109 -0.2733  0.0976
 1999TIP3    H127488   0.800   4.452  12.095  0.8194 -0.5933  1.6317
 1999TIP3    H227489   0.720   4.330  12.135 -0.4771 -0.2318  0.1643
 2000TIP3   OH227490   2.378   4.753  10.150  0.4840 -0.1668 -0.4024
 2000TIP3    H127491   2.349   4.842  10.132  0.2699 -0.1131  0.1914
 2000TIP3    H227492   2.296   4.704  10.162  0.6180 -0.1597  0.6025
 2001TIP3   OH227493   4.101   4.789  11.103 -0.0385  0.0525 -0.5355
 2001TIP3    H127494   4.017   4.747  11.085 -0.9827  1.0535  1.3628
 2001TIP3    H227495   4.165   4.719  11.097 -1.1504 -0.9567 -0.8212
 2002TIP3   OH227496   3.228   4.495  11.048 -0.0672  0.3760 -0.1605
 2002TIP3    H127497   3.321   4.485  11.069  0.5919  0.4224 -2.8171
 2002TIP3    H227498   3.210   4.588  11.063 -0.5507 -0.2152  3.3917
 2003TIP3   OH227499   6.697   3.828  11.923 -0.8291  0.0725 -0.1797
 2003TIP3    H127500   6.682   3.922  11.926 -0.3101  0.1160  1.3753
 2003TIP3    H227501   6.708   3.809  11.830 -0.9084  1.5465 -0.5051
 2004TIP3   OH227502   3.426   1.708  12.730 -0.3981  0.1865  0.1184
 2004TIP3    H127503   3.509   1.698  12.776 -0.0463  0.0252 -0.5393
 2004TIP3    H227504   3.382   1.780  12.776  0.0769  0.2320  0.5095
 2005TIP3   OH227505   7.247   5.217  11.366  0.1437  0.4090 -0.4758
 2005TIP3    H127506   7.159   5.235  11.334  0.3507  1.0935 -0.6756
 2005TIP3    H227507   7.245   5.243  11.458  0.0893  0.2497 -0.4305
 2006TIP3   OH227508   1.333   4.011  10.534  0.3803 -0.1290  0.0407
 2006TIP3    H127509   1.427   4.001  10.525  0.3463 -0.4170 -0.0017
 2006TIP3    H227510   1.308   4.071  10.464  0.6252  0.4747  0.4636
 2007TIP3   OH227511   1.703   3.514  12.145  0.5907 -0.2500 -0.0619
 2007TIP3    H127512   1.793   3.480  12.146  0.7651  0.2060  0.4333
 2007TIP3    H227513   1.648   3.437  12.134  1.0196 -0.6015  0.2394
 2008TIP3   OH227514   6.609   3.611  10.109  0.3877  0.1498  0.5243
 2008TIP3    H127515   6.643   3.560  10.035 -0.8031 -0.4384  0.3633
 2008TIP3    H227516   6.616   3.552  10.184 -0.1409  0.0702  0.5151
 2009TIP3   OH227517   0.613   5.722  10.293 -0.7393  1.0488  0.4734
 2009TIP3    H127518   0.523   5.742  10.267 -1.8069 -2.4596  1.3035
 2009TIP3    H227519   0.640   5.652  10.234  0.4252  0.0888  2.1216
 2010TIP3   OH227520   5.493   3.268  11.124  0.0244  0.2703  0.0035
 2010TIP3    H127521   5.436   3.198  11.156  1.3650 -0.1029  1.6536
 2010TIP3    H227522   5.474   3.274  11.030 -0.6972 -1.7510  0.0063
 2011TIP3   OH227523   0.539   5.349  11.058  0.3256  0.5922 -0.1634
 2011TIP3    H127524   0.612   5.341  11.119  0.0493  1.1504  0.2509
 2011TIP3    H227525   0.557   5.284  10.990  0.6984  0.0474  0.4478
 2012TIP3   OH227526   5.950   4.420  11.112  0.1166 -0.3320 -0.4161
 2012TIP3    H127527   5.999   4.338  11.104 -0.8169 -0.7619 -1.8714
 2012TIP3    H227528   5.960   4.445  11.204  2.4788 -0.7759 -0.5217
 2013TIP3   OH227529   1.247   6.291  12.755 -0.2819 -0.0406 -0.1246
 2013TIP3    H127530   1.223   6.377  12.720 -0.8217  1.0570  2.7890
 2013TIP3    H227531   1.342   6.292  12.758 -0.2861  0.4716 -0.1048
 2014TIP3   OH227532   1.280   5.352  11.543  0.1896  0.3067 -0.3762
 2014TIP3    H127533   1.348   5.294  11.580  0.2528  0.7807  0.2611
 2014TIP3    H227534   1.294   5.436  11.588 -2.0032 -0.1142  1.1409
 2015TIP3   OH227535   1.974   4.229  11.452  0.1710  0.6550 -0.2081
 2015TIP3    H127536   1.994   4.298  11.389 -0.3346  1.0053  0.0112
 2015TIP3    H227537   1.895   4.186  11.416 -0.2416  0.9901  0.2905
 2016TIP3   OH227538   5.552   4.440  10.302 -0.2300  0.2881  0.5778
 2016TIP3    H127539   5.568   4.386  10.225 -0.0713 -0.5524  1.1876
 2016TIP3    H227540   5.459   4.462  10.298 -0.0525  0.9321 -0.2776
 2017TIP3   OH227541   0.683   6.357  10.810 -0.0205  0.4770  0.1868
 2017TIP3    H127542   0.742   6.427  10.839  2.9933 -1.3663 -1.2449
 2017TIP3    H227543   0.694   6.356  10.715 -0.6541 -1.4216  0.1230
 2018TIP3   OH227544   3.176   6.812  10.841  0.2024 -0.0536  0.1075
 2018TIP3    H127545   3.166   6.903  10.871 -0.3510 -0.6238  1.6801
 2018TIP3    H227546   3.086   6.779  10.835  0.3890 -0.4268 -0.7116
 2019TIP3   OH227547   5.044   2.403  12.443 -0.2797 -0.2106  0.2920
 2019TIP3    H127548   5.007   2.424  12.529  0.3496  0.9428  0.2897
 2019TIP3    H227549   4.991   2.453  12.381 -0.3901 -0.6217  0.0464
 2020TIP3   OH227550   1.736   4.999  12.042 -0.6137 -0.0341  0.0666
 2020TIP3    H127551   1.756   5.074  12.098 -2.2741 -0.5765  1.4254
 2020TIP3    H227552   1.641   5.004  12.028 -0.3917 -0.5828 -1.7395
 2021TIP3   OH227553   1.142   4.496  10.944  0.1906 -0.2605 -0.4668
 2021TIP3    H127554   1.085   4.537  11.009  1.7083  2.9247 -1.0304
 2021TIP3    H227555   1.088   4.491  10.865  0.4188  2.0544 -0.7956
 2022TIP3   OH227556   6.940   5.347  11.562  0.1150  0.3563  0.1659
 2022TIP3    H127557   6.897   5.265  11.536 -1.5806  1.3813 -0.3065
 2022TIP3    H227558   7.029   5.321  11.584 -0.7098 -1.8182  1.1083
 2023TIP3   OH227559   0.292   5.771  11.234 -0.0727 -0.0204 -0.0076
 2023TIP3    H127560   0.268   5.863  11.223  0.6351  0.3175  1.2090
 2023TIP3    H227561   0.333   5.747  11.150  0.6866  1.0715  0.0504
 2024TIP3   OH227562   0.308   3.385  10.081  0.2460  0.3024 -0.6466
 2024TIP3    H127563   0.360   3.386  10.162  1.6088  1.7474 -1.5085
 2024TIP3    H227564   0.285   3.293  10.068  0.3473 -0.0018  1.1676
 2025TIP3   OH227565   2.540   3.762  10.186  0.0445 -0.3989  0.0220
 2025TIP3    H127566   2.459   3.774  10.135  0.2132  0.4463 -0.0477
 2025TIP3    H227567   2.590   3.842  10.170  0.2751 -0.3052  1.2063
 2026TIP3   OH227568   1.824   5.043  11.379  0.4297 -0.1872  0.4601
 2026TIP3    H127569   1.907   5.071  11.339 -0.2045  0.4210 -0.4492
 2026TIP3    H227570   1.824   5.086  11.464  0.2041  1.3320 -0.2812
 2027TIP3   OH227571   2.391   4.240  10.058 -0.3074  0.4010 -1.0464
 2027TIP3    H127572   2.464   4.191  10.021  2.3616  1.5395  2.4173
 2027TIP3    H227573   2.427   4.327  10.076 -2.0345  0.5425  2.1200
 2028TIP3   OH227574   6.412   3.687  10.583 -0.1508  0.3386 -0.5610
 2028TIP3    H127575   6.319   3.666  10.574  0.2620 -1.1762 -1.4008
 2028TIP3    H227576   6.449   3.613  10.632  0.8348  0.3398 -1.2788
 2029TIP3   OH227577   1.583   1.616  10.732 -0.5941 -0.3368  0.6846
 2029TIP3    H127578   1.495   1.613  10.696 -0.6960  0.8620  0.8148
 2029TIP3    H227579   1.570   1.628  10.826 -0.2774  2.7573  0.3582
 2030TIP3   OH227580   3.577   3.988  11.504  0.2025  0.4527 -0.9680
 2030TIP3    H127581   3.589   4.016  11.413 -0.5875  2.8694 -0.3627
 2030TIP3    H227582   3.497   3.936  11.503  0.5268 -0.0292 -1.7665
 2031TIP3   OH227583   0.831   5.834  12.563  0.4461 -0.3037 -0.3235
 2031TIP3    H127584   0.739   5.846  12.539 -0.0381 -1.4582  0.9025
 2031TIP3    H227585   0.880   5.867  12.488 -0.9907 -0.9266 -1.5493
 2032TIP3   OH227586   0.140   3.524  10.511  0.1407  0.3105  0.0740
 2032TIP3    H127587   0.153   3.602  10.457  1.3436  0.5257  0.6483
 2032TIP3    H227588   0.222   3.475  10.501 -0.7172 -1.0126 -0.5031
 2033TIP3   OH227589   0.426   5.412  10.351  0.0662  0.5175 -0.0153
 2033TIP3    H127590   0.417   5.504  10.324 -2.2487  0.0859 -0.8355
 2033TIP3    H227591   0.426   5.364  10.268  0.6419 -0.2835  0.4500
 2034TIP3   OH227592   2.901   4.519  10.773  0.3224  0.3464  0.2671
 2034TIP3    H127593   2.962   4.483  10.709 -1.1239 -0.7156 -0.5409
 2034TIP3    H227594   2.954   4.578  10.827  1.4936  1.4773 -2.0925
 2035TIP3   OH227595   0.149   1.923  12.280 -0.5120 -0.9100  0.0433
 2035TIP3    H127596   0.075   1.952  12.334 -1.0962 -2.9515  0.3859
 2035TIP3    H227597   0.126   1.950  12.191 -0.7689  0.1637  0.4270
 2036TIP3   OH227598   7.153   4.384  10.420  0.1257  0.0625  0.2780
 2036TIP3    H127599   7.198   4.308  10.384  0.1802  0.4950 -0.5687
 2036TIP3    H227600   7.084   4.347  10.475  0.1204 -0.6014 -0.1739
 2037TIP3   OH227601   0.834   5.567  12.649 -0.1637 -0.0933  0.1757
 2037TIP3    H127602   0.872   5.571  12.736  1.3666  0.9602 -0.5238
 2037TIP3    H227603   0.862   5.649  12.607 -1.9694  0.0177 -0.8556
 2038TIP3   OH227604   0.849   6.173  11.668 -0.3896 -0.3788  0.2561
 2038TIP3    H127605   0.846   6.154  11.574  0.1702 -1.5213  0.4616
 2038TIP3    H227606   0.933   6.218  11.680 -0.9758  0.7916  0.0324
 2039TIP3   OH227607   2.621   5.284  11.008 -0.4854  0.1722 -0.4384
 2039TIP3    H127608   2.610   5.204  10.956  1.8092  0.0881 -0.8276
 2039TIP3    H227609   2.674   5.342  10.953  0.1789  0.9051  0.9419
 2040TIP3   OH227610   2.642   3.702  12.272 -0.2665 -0.1789 -0.5497
 2040TIP3    H127611   2.648   3.775  12.210 -1.2623 -1.6044 -2.3571
 2040TIP3    H227612   2.727   3.658  12.266  0.0531  0.3521 -0.0267
 2041TIP3   OH227613   1.269   2.942  11.141  0.1444  0.0049 -0.2309
 2041TIP3    H127614   1.209   2.869  11.153 -1.2920  1.0268 -1.1055
 2041TIP3    H227615   1.337   2.909  11.082  0.0279 -0.9056  0.1460
 2042TIP3   OH227616   2.388   5.572  10.470 -0.3894 -0.1679  0.0466
 2042TIP3    H127617   2.447   5.538  10.537  0.6703 -1.3140 -1.4464
 2042TIP3    H227618   2.302   5.571  10.512  0.3105 -0.5430  1.5079
 2043TIP3   OH227619   6.527   3.691  11.603 -0.0948 -0.0651  0.0417
 2043TIP3    H127620   6.486   3.662  11.684 -0.1220  0.8857  0.3789
 2043TIP3    H227621   6.608   3.734  11.630 -0.4970  0.9677 -0.3684
 2044TIP3   OH227622   2.954   3.933   9.987 -0.7428 -0.6224  0.7383
 2044TIP3    H127623   2.975   4.009   9.932  0.0887 -0.9238  0.6228
 2044TIP3    H227624   2.984   3.959  10.075 -1.8873 -0.2177  1.0078
 2045TIP3   OH227625   4.153   6.915  12.267 -0.3269  0.0036  0.1717
 2045TIP3    H127626   4.091   6.852  12.303  0.4045 -1.1781 -0.5704
 2045TIP3    H227627   4.211   6.937  12.340 -2.2500  1.9563  1.1564
 2046TIP3   OH227628   4.049   6.069  11.402 -0.3873 -0.0602 -0.6461
 2046TIP3    H127629   4.087   6.121  11.473 -0.3975 -1.1332  0.1570
 2046TIP3    H227630   4.086   6.106  11.322 -1.3780  2.0096 -0.1782
 2047TIP3   OH227631   2.690   1.540  12.600 -0.7822 -0.1063  0.0876
 2047TIP3    H127632   2.648   1.624  12.614  1.0233  0.8675 -0.1326
 2047TIP3    H227633   2.694   1.530  12.505 -2.1068 -1.0204  0.1263
 2048TIP3   OH227634   4.170   4.649  12.141 -0.3970 -0.5762 -0.4791
 2048TIP3    H127635   4.113   4.715  12.181  0.0979  0.1234 -0.9262
 2048TIP3    H227636   4.113   4.573  12.129 -0.1271 -1.4341  3.1422
 2049TIP3   OH227637   2.077   3.234  12.776 -0.4680 -0.9426 -0.2125
 2049TIP3    H127638   2.000   3.202  12.823 -0.3699 -1.4510 -0.3963
 2049TIP3    H227639   2.145   3.239  12.843 -0.4426 -1.2698 -0.2103
 2050TIP3   OH227640   3.090   4.944  12.070 -0.3073 -0.0360  0.0258
 2050TIP3    H127641   3.050   5.031  12.068 -1.1100 -0.3231  2.2317
 2050TIP3    H227642   3.040   4.896  12.136  1.4516 -1.5223  0.3234
 2051TIP3   OH227643   0.144   4.958  11.069  0.0861 -0.3575  0.8847
 2051TIP3    H127644   0.119   5.049  11.050  1.2012 -0.0037  1.0597
 2051TIP3    H227645   0.063   4.908  11.058 -0.3424  0.5267 -0.1156
 2052TIP3   OH227646   2.063   5.840  12.466 -0.0902  0.1173  0.3535
 2052TIP3    H127647   2.124   5.823  12.395 -1.2533 -0.9090 -0.4293
 2052TIP3    H227648   2.028   5.927  12.449  0.8588  0.5448  0.5894
 2053TIP3   OH227649   2.994   1.988  12.856  0.2002  0.1602 -0.1146
 2053TIP3    H127650   2.899   1.973  12.850  0.0594  1.7381 -2.0313
 2053TIP3    H227651   3.008   2.020  12.945 -1.1259  0.3301  0.0360
 2054TIP3   OH227652   4.159   2.711  11.463  0.6364  0.1925  0.3626
 2054TIP3    H127653   4.169   2.802  11.492  2.5930  0.6741 -1.6349
 2054TIP3    H227654   4.247   2.684  11.437 -0.3009 -1.4824 -1.2486
 2055TIP3   OH227655   1.626   6.915  12.342  0.1214  0.2630  0.1213
 2055TIP3    H127656   1.635   6.962  12.259  0.0948  0.7286  0.3804
 2055TIP3    H227657   1.695   6.951  12.397  1.0829 -1.0895 -0.1807
 2056TIP3   OH227658   3.279   2.862  10.447 -0.1209 -0.1831  0.2710
 2056TIP3    H127659   3.231   2.788  10.412  0.1069 -1.6296  2.9065
 2056TIP3    H227660   3.211   2.925  10.472 -0.4971 -1.0264  1.3748
 2057TIP3   OH227661   1.242   4.677  10.633  0.4803  0.0840 -0.2880
 2057TIP3    H127662   1.310   4.688  10.699  1.5008  0.8796 -1.4630
 2057TIP3    H227663   1.267   4.737  10.562 -1.2582  0.1466 -0.8703
 2058TIP3   OH227664   2.645   3.757  11.503 -0.1441 -0.1095  0.4675
 2058TIP3    H127665   2.727   3.764  11.455  0.0464 -1.6279  0.5527
 2058TIP3    H227666   2.617   3.848  11.517  0.8770  0.3813 -0.6399
 2059TIP3   OH227667   2.444   7.218  11.325 -0.6678 -0.2331 -0.1722
 2059TIP3    H127668   2.404   7.246  11.243 -1.0157  1.0827  0.4149
 2059TIP3    H227669   2.539   7.226  11.310 -0.7589  1.7550  0.1019
 2060TIP3   OH227670   3.856   6.678  13.037  0.5429  0.2207  0.2996
 2060TIP3    H127671   3.903   6.761  13.025  1.7032 -0.4600 -0.0370
 2060TIP3    H227672   3.859   6.663  13.131  1.0067  0.1955  0.2862
 2061TIP3   OH227673   3.340   5.999  11.954 -0.1788  0.0550  0.5906
 2061TIP3    H127674   3.251   5.969  11.970 -0.4073  1.4355  2.0327
 2061TIP3    H227675   3.391   5.918  11.947 -1.4157 -0.7344  0.4523
 2062TIP3   OH227676   2.040   6.312  13.576 -0.3972 -1.0005 -0.1260
 2062TIP3    H127677   2.002   6.265  13.650 -2.1606 -0.6012 -0.7744
 2062TIP3    H227678   1.978   6.382  13.556  1.3675  0.5866 -0.2650
 2063TIP3   OH227679   3.326   4.664  11.326 -0.3239  0.6301 -0.0822
 2063TIP3    H127680   3.404   4.617  11.298 -0.0478  0.0853  1.5119
 2063TIP3    H227681   3.275   4.598  11.374 -0.9879  1.3856  0.2691
 2064TIP3   OH227682   2.280   3.890  11.346 -0.2785  0.0945  0.1621
 2064TIP3    H127683   2.274   3.921  11.256  1.8490 -0.7131 -0.2738
 2064TIP3    H227684   2.305   3.798  11.339  0.6180  0.2061  1.5914
 2065TIP3   OH227685   3.138   5.314  11.087 -0.2130 -0.3261  0.3703
 2065TIP3    H127686   3.092   5.341  11.167  0.1969  2.0848 -0.1752
 2065TIP3    H227687   3.093   5.234  11.059 -1.6260 -0.0933  1.9230
 2066TIP3   OH227688   3.038   4.486   9.846 -0.5031 -0.0323 -0.2853
 2066TIP3    H127689   3.090   4.530   9.778 -2.3930  1.1119 -1.0453
 2066TIP3    H227690   3.016   4.556   9.908 -0.7642 -0.5912  0.2591
 2067TIP3   OH227691   5.768   3.231  11.017 -0.1933 -0.1295  0.1561
 2067TIP3    H127692   5.683   3.269  11.040  0.5388  0.4094  2.0667
 2067TIP3    H227693   5.756   3.198  10.928 -1.5784  2.4003 -0.6351
 2068TIP3   OH227694   2.825   4.173  11.128  0.1922 -1.1888  0.4987
 2068TIP3    H127695   2.830   4.194  11.035 -0.7434  0.3231  0.7546
 2068TIP3    H227696   2.915   4.181  11.160  0.5367 -1.8648 -0.3113
 2069TIP3   OH227697   3.474   4.908  11.676 -0.3872 -0.5897 -0.0793
 2069TIP3    H127698   3.447   4.924  11.767  2.9871  1.8850  0.5647
 2069TIP3    H227699   3.517   4.823  11.679  0.0515 -0.3456  0.7177
 2070TIP3   OH227700   2.259   4.898  10.545  0.1231 -0.1476  0.1055
 2070TIP3    H127701   2.181   4.864  10.501 -0.1152 -1.7588  1.7154
 2070TIP3    H227702   2.332   4.849  10.506 -0.0254 -1.1094  1.0092
 2071TIP3   OH227703   3.266   5.611  10.837  0.0879  0.2811  0.4332
 2071TIP3    H127704   3.262   5.559  10.917  1.1555  1.5537  1.3378
 2071TIP3    H227705   3.332   5.567  10.782  2.5182  1.7752  2.0451
 2072TIP3   OH227706   3.813   4.557  10.506  0.1863 -0.3503  0.4642
 2072TIP3    H127707   3.815   4.504  10.427  0.8204  0.8715 -0.3634
 2072TIP3    H227708   3.895   4.607  10.504 -1.5717  2.6714 -0.2192
 2073TIP3   OH227709   1.028   5.233  11.585 -0.4988  0.1942 -0.2924
 2073TIP3    H127710   1.065   5.151  11.552  0.3850  0.3072  0.4109
 2073TIP3    H227711   1.100   5.296  11.580 -1.3450  1.0992 -1.4152
 2074TIP3   OH227712   3.015   3.215  12.059  0.5482  0.0375 -0.5569
 2074TIP3    H127713   3.108   3.191  12.063  0.9542  1.6425  0.1790
 2074TIP3    H227714   3.014   3.296  12.009 -0.4369  0.1668 -0.3405
 2075TIP3   OH227715   5.170   3.294  10.308 -0.3138 -0.4844 -0.2483
 2075TIP3    H127716   5.137   3.364  10.364  1.1443 -0.8550  1.1103
 2075TIP3    H227717   5.226   3.340  10.244 -1.0804 -0.1857 -0.7138
 2076TIP3   OH227718   3.369   3.487  11.421 -0.2534 -0.0334 -0.3102
 2076TIP3    H127719   3.358   3.575  11.385  1.7019  0.2489 -0.2437
 2076TIP3    H227720   3.396   3.502  11.512 -0.2016 -0.6959 -0.2162
 2077TIP3   OH227721   0.742   4.078  12.317 -0.1588 -0.1148 -0.4017
 2077TIP3    H127722   0.684   4.028  12.375  0.2887 -1.3656 -1.0131
 2077TIP3    H227723   0.683   4.111  12.249 -0.3024 -0.6137 -0.5207
 2078TIP3   OH227724   3.664   2.983  10.891 -0.1408 -0.6684  0.4572
 2078TIP3    H127725   3.660   2.912  10.827 -1.9844  0.4902 -0.7673
 2078TIP3    H227726   3.579   2.982  10.934 -1.1234  2.2824 -1.2559
 2079TIP3   OH227727   2.301   5.414  10.187 -0.2721  0.5335  0.2152
 2079TIP3    H127728   2.321   5.350  10.118  2.6725  1.3255  0.2711
 2079TIP3    H227729   2.269   5.360  10.260  3.1976 -1.0824  0.6610
 2080TIP3   OH227730   2.195   4.664  11.885 -0.4774 -0.1614  0.6755
 2080TIP3    H127731   2.203   4.578  11.842 -0.7653 -0.0175  0.3305
 2080TIP3    H227732   2.281   4.705  11.873 -1.2826  0.8570 -1.8664
 2081TIP3   OH227733   2.762   2.762  11.445  0.2412  0.0857  0.4625
 2081TIP3    H127734   2.805   2.847  11.456  0.2055  0.0626  0.7945
 2081TIP3    H227735   2.708   2.753  11.523  1.2618 -0.8344  1.0772
 2082TIP3   OH227736   2.143   7.013  11.963  0.3371  0.2660  0.2557
 2082TIP3    H127737   2.102   6.931  11.993 -0.2056  0.4392 -0.0120
 2082TIP3    H227738   2.229   7.013  12.005  0.0593 -0.0955  0.8326
 2083TIP3   OH227739   2.353   7.246  11.037 -0.0179  0.4557  0.1770
 2083TIP3    H127740   2.358   7.160  10.995  2.1543  0.8480 -0.4102
 2083TIP3    H227741   2.274   7.286  10.999 -0.2681 -0.7301 -0.5763
 2084TIP3   OH227742   2.802   1.568  12.328  0.1068  0.6144 -0.0124
 2084TIP3    H127743   2.777   1.660  12.333 -1.7079  0.2319 -1.3627
 2084TIP3    H227744   2.854   1.561  12.248  2.3030  0.8815  1.3404
 2085TIP3   OH227745   3.485   4.091   9.777  0.2257 -0.4415 -0.4423
 2085TIP3    H127746   3.483   4.156   9.706  1.5388 -0.3991 -0.4392
 2085TIP3    H227747   3.439   4.134   9.849  1.3286  0.6107 -0.3507
 2086TIP3   OH227748   5.341   3.330  12.918 -0.4340 -0.2919 -0.5721
 2086TIP3    H127749   5.255   3.329  12.962 -1.4345  2.0599 -2.3833
 2086TIP3    H227750   5.395   3.386  12.973 -0.1974 -1.2894  0.2437
 2087TIP3   OH227751   3.312   4.326  10.474  0.1356 -0.5127  0.0538
 2087TIP3    H127752   3.387   4.289  10.426  0.7276  0.4452  0.2197
 2087TIP3    H227753   3.306   4.416  10.444 -0.5376 -0.3887  0.5425
 2088TIP3   OH227754   1.822   6.103  12.816 -0.2149  0.0939  0.8274
 2088TIP3    H127755   1.860   6.115  12.729 -2.2207  1.4037  0.1072
 2088TIP3    H227756   1.867   6.168  12.870 -0.9938  1.2416  0.1136
 2089TIP3   OH227757   3.655   2.031  11.965 -0.5419  1.1237  0.2935
 2089TIP3    H127758   3.592   2.080  11.911 -0.6453  2.1633  1.3272
 2089TIP3    H227759   3.715   1.991  11.902  0.5742  3.9851 -0.5401
 2090TIP3   OH227760   5.125   3.846  10.220  0.1165 -0.3586 -0.1501
 2090TIP3    H127761   5.122   3.751  10.229 -1.2437 -0.5759 -2.4306
 2090TIP3    H227762   5.043   3.877  10.258  0.9019 -0.0017  1.2949
 2091TIP3   OH227763   1.467   4.807  10.835 -0.2150  0.2375  0.1334
 2091TIP3    H127764   1.459   4.735  10.897  0.0831  0.9741  1.0294
 2091TIP3    H227765   1.413   4.877  10.871 -0.1132  0.6384 -0.4763
 2092TIP3   OH227766   3.736   3.303  11.283  0.2855  0.0888  0.3797
 2092TIP3    H127767   3.785   3.232  11.242  3.0224  1.1174  1.7209
 2092TIP3    H227768   3.724   3.367  11.212 -1.3245 -1.2561 -0.5762
 2093TIP3   OH227769   2.098   3.335  11.221  0.6171 -0.1347 -0.0137
 2093TIP3    H127770   2.019   3.388  11.235 -0.8163 -2.5776  1.5913
 2093TIP3    H227771   2.089   3.301  11.133  1.3393  1.8860 -0.9049
 2094TIP3   OH227772   1.719   5.146  12.655 -0.2315 -0.2774  0.1921
 2094TIP3    H127773   1.792   5.207  12.646  0.1080 -0.5381  1.1287
 2094TIP3    H227774   1.723   5.117  12.746 -1.0493 -0.8703  0.0456
 2095TIP3   OH227775   1.857   4.955  10.579  0.1449 -0.1000 -0.2577
 2095TIP3    H127776   1.763   4.939  10.580  0.1280 -0.1562 -1.3362
 2095TIP3    H227777   1.870   5.032  10.634 -0.7589  1.0119 -1.5700
 2096TIP3   OH227778   4.129   4.896  10.138 -0.5534  0.4345  0.1305
 2096TIP3    H127779   4.101   4.942  10.059 -0.6487 -1.6403 -1.0938
 2096TIP3    H227780   4.224   4.900  10.136 -0.5133 -0.6625 -0.7634
 2097TIP3   OH227781   3.106   4.736  11.158 -0.2971  0.3872 -0.5769
 2097TIP3    H127782   3.177   4.738  11.222  0.2611  1.1138 -1.2116
 2097TIP3    H227783   3.060   4.654  11.176 -0.5918  0.9368  1.2347
 2098TIP3   OH227784   3.370   5.207  11.209 -0.2573  0.2152 -0.0137
 2098TIP3    H127785   3.377   5.121  11.167 -0.5155 -0.2123  0.8041
 2098TIP3    H227786   3.295   5.249  11.167  0.2995  0.3245 -0.9097
 2099TIP3   OH227787   5.055   4.829  10.799  0.6947  0.0599 -0.0973
 2099TIP3    H127788   4.994   4.894  10.833 -0.4592 -0.8488 -0.4020
 2099TIP3    H227789   5.074   4.772  10.874  0.1204 -0.4423 -0.3252
 2100TIP3   OH227790   4.004   4.007  12.481 -0.0018 -0.1368  0.0173
 2100TIP3    H127791   4.089   3.997  12.524 -0.3759  0.0437  0.8206
 2100TIP3    H227792   3.963   3.921  12.487 -0.3920  0.0863  0.7869
 2101TIP3   OH227793   1.821   5.210  10.309 -0.3410 -0.0618  0.0421
 2101TIP3    H127794   1.863   5.172  10.232 -1.9679 -0.6010 -0.5974
 2101TIP3    H227795   1.854   5.157  10.382  1.3147  0.5432 -0.2485
 2102TIP3   OH227796   4.365   0.491  10.535 -0.1803 -0.6990  0.0526
 2102TIP3    H127797   4.396   0.434  10.465  1.1405 -0.9594  0.8204
 2102TIP3    H227798   4.437   0.492  10.599 -0.4246  1.3247  0.3517
 2103TIP3   OH227799   4.334   5.252  11.250 -0.1084  0.2165 -0.2003
 2103TIP3    H127800   4.335   5.166  11.208  0.2013 -0.0775  0.3947
 2103TIP3    H227801   4.423   5.286  11.235 -0.0913  0.2384 -0.0472
 2104TIP3   OH227802   2.044   4.089   9.804  0.2487  1.0424 -0.1730
 2104TIP3    H127803   1.996   4.049   9.732  1.0734  0.0328 -0.1766
 2104TIP3    H227804   2.132   4.053   9.797  0.5366  1.5157  0.8817
 2105TIP3   OH227805   2.097   6.253  10.575 -0.2317  0.6084  0.2844
 2105TIP3    H127806   2.119   6.161  10.584 -1.7446  0.1478 -0.6574
 2105TIP3    H227807   2.050   6.275  10.656 -0.6247  0.3383  0.1271
 2106TIP3   OH227808   2.164   4.618  10.278 -0.2956 -0.0430 -0.1383
 2106TIP3    H127809   2.139   4.526  10.272 -0.1938 -0.0592 -0.3291
 2106TIP3    H227810   2.127   4.647  10.361 -0.2750 -0.2713 -0.0483
 2107TIP3   OH227811   3.080   4.751  10.869 -0.1755 -0.0329 -0.2037
 2107TIP3    H127812   3.165   4.795  10.862 -1.4044  2.3014 -1.0335
 2107TIP3    H227813   3.067   4.738  10.963  0.8521  0.0907 -0.0443
 2108TIP3   OH227814   3.742   4.258  10.087  0.0943 -0.3347 -0.6582
 2108TIP3    H127815   3.801   4.313  10.139 -0.5491  0.2467 -0.5394
 2108TIP3    H227816   3.658   4.305  10.087 -1.3339 -2.7877  1.9608
 2109TIP3   OH227817   4.858   3.336  12.961  0.2064  0.0640  0.1554
 2109TIP3    H127818   4.855   3.431  12.974 -1.2620 -0.1055  1.2446
 2109TIP3    H227819   4.942   3.309  12.997 -0.1119  0.7422  1.4334
 2110TIP3   OH227820   3.373   4.218   9.984  0.6289 -0.1108 -0.8103
 2110TIP3    H127821   3.309   4.175  10.040  1.1258 -2.8940 -2.2722
 2110TIP3    H227822   3.414   4.284  10.040 -1.4665 -0.2615  0.9603
 2111TIP3   OH227823   2.043   5.551  11.024 -0.5123  0.6212  0.2021
 2111TIP3    H127824   2.041   5.455  11.021  1.7796  0.5759 -1.6320
 2111TIP3    H227825   2.123   5.571  11.072 -1.3935  1.6282  1.2604
 2112TIP3   OH227826   0.851   2.678  12.169 -0.4706  0.5528  0.5715
 2112TIP3    H127827   0.939   2.716  12.173 -0.6223  0.9773 -0.0273
 2112TIP3    H227828   0.800   2.727  12.233 -0.2999  0.3691  0.8510
 2113TIP3   OH227829   1.361   6.113  13.218 -0.5314 -0.5278  0.0823
 2113TIP3    H127830   1.301   6.116  13.293 -3.6796  3.4336 -2.3755
 2113TIP3    H227831   1.307   6.082  13.145  1.8558 -2.0224 -1.1010
 2114TIP3   OH227832   4.434   3.127  10.813 -0.1659 -0.5530 -0.0102
 2114TIP3    H127833   4.427   3.050  10.870 -1.4837 -2.5146 -2.6666
 2114TIP3    H227834   4.458   3.091  10.728 -0.7609  2.0160 -1.3130
 2115TIP3   OH227835   3.280   3.770  10.835 -0.0471 -0.0902  0.5167
 2115TIP3    H127836   3.265   3.681  10.868  2.6065 -0.3649  1.0560
 2115TIP3    H227837   3.311   3.819  10.911  1.0851  0.6028 -0.3757
 2116TIP3   OH227838   0.249   0.317  12.331  0.4730 -0.2334 -0.1700
 2116TIP3    H127839   0.262   0.385  12.397 -0.1536 -1.1605  0.9316
 2116TIP3    H227840   0.192   0.358  12.265 -1.9136 -0.4448  1.7123
 2117TIP3   OH227841   0.667   4.080  11.659 -0.3500 -0.1948 -0.4115
 2117TIP3    H127842   0.634   3.991  11.644  1.0142 -1.0901  1.6561
 2117TIP3    H227843   0.730   4.070  11.731 -1.6148  2.7776  1.1645
 2118TIP3   OH227844   3.534   4.773  12.377  0.6218 -0.4144  0.0304
 2118TIP3    H127845   3.585   4.784  12.297 -0.1649 -0.9111 -0.5481
 2118TIP3    H227846   3.491   4.858  12.390 -0.0918 -0.6544 -0.6786
 2119TIP3   OH227847   1.472   5.043  11.975  0.3699  0.3204  0.1490
 2119TIP3    H127848   1.397   5.032  11.917  0.5021 -0.7861  0.1788
 2119TIP3    H227849   1.450   5.118  12.030 -0.1220  0.8369 -0.7560
 2120TIP3   OH227850   2.808   6.865  11.687 -0.0301 -0.3838  0.9254
 2120TIP3    H127851   2.871   6.933  11.665 -1.5674  0.9431  0.6078
 2120TIP3    H227852   2.862   6.786  11.699  1.6491  0.6552  0.3648
 2121TIP3   OH227853   2.881   2.886  12.230  0.3628 -0.5972  0.4624
 2121TIP3    H127854   2.900   2.966  12.182 -0.2502 -0.5910  0.2255
 2121TIP3    H227855   2.951   2.879  12.294  1.3935 -0.8012 -0.6750
 2122TIP3   OH227856   1.899   3.418  11.578 -0.5060  0.2380 -0.6679
 2122TIP3    H127857   1.834   3.488  11.580  1.1933  1.8375  0.6417
 2122TIP3    H227858   1.965   3.448  11.515 -0.3333 -0.7057 -0.9402
 2123TIP3   OH227859   4.620   5.025  10.354 -0.5126  0.0153  0.2119
 2123TIP3    H127860   4.601   5.084  10.427 -1.1517  0.3773 -0.2404
 2123TIP3    H227861   4.620   5.081  10.277 -0.8252 -0.5291 -0.1852
 2124TIP3   OH227862   1.568   2.811  10.433 -0.7397  0.0845  0.1812
 2124TIP3    H127863   1.507   2.874  10.471 -0.0569  0.7277  0.2175
 2124TIP3    H227864   1.524   2.781  10.353 -0.2164  2.1199 -0.9232
 2125TIP3   OH227865   4.063   6.181  14.238 -0.0698  0.0418  0.1223
 2125TIP3    H127866   4.026   6.115  14.179 -1.5801  1.4293 -0.5345
 2125TIP3    H227867   3.997   6.192  14.306  0.8925 -0.2882  1.1058
 2126TIP3   OH227868   2.041   4.733  10.486 -0.0647  0.2361  0.4786
 2126TIP3    H127869   1.964   4.789  10.485 -1.3126 -1.3294  3.1582
 2126TIP3    H227870   2.058   4.716  10.579  1.6674 -1.8847 -0.1676
 2127TIP3   OH227871   1.760   2.332  13.558 -0.1692  0.2939  0.6128
 2127TIP3    H127872   1.848   2.351  13.527 -0.1090  2.7718  2.1362
 2127TIP3    H227873   1.703   2.381  13.499 -0.4801 -0.8193 -0.0025
 2128TIP3   OH227874   2.290   3.906  10.087  0.2468 -0.7838 -0.3259
 2128TIP3    H127875   2.279   3.975  10.022 -0.9124  0.3145  0.9902
 2128TIP3    H227876   2.243   3.831  10.052 -4.0598  1.0959  1.0975
 2129TIP3   OH227877   1.674   5.273  11.690  0.0980  0.2992  0.1108
 2129TIP3    H127878   1.724   5.196  11.719 -0.2418  1.0825  2.9515
 2129TIP3    H227879   1.588   5.237  11.667  0.3398 -0.3631  0.2115
 2130TIP3   OH227880   3.908   3.863  11.559  0.4113  0.3239  0.0800
 2130TIP3    H127881   3.898   3.821  11.645 -2.1568  1.4179  0.3661
 2130TIP3    H227882   4.002   3.859  11.541  0.9675 -0.0957  2.8475
 2131TIP3   OH227883   3.658   3.582  12.432  0.0351 -0.8107  0.0447
 2131TIP3    H127884   3.622   3.635  12.503 -0.4642  1.4359 -1.8261
 2131TIP3    H227885   3.687   3.501  12.475 -1.4272 -0.0503  2.5782
 2132TIP3   OH227886   3.682   3.413  11.001  0.5939 -0.8213 -0.4916
 2132TIP3    H127887   3.597   3.373  11.016 -0.0237 -0.3872 -2.7115
 2132TIP3    H227888   3.736   3.343  10.964  0.5686 -0.5557 -1.0445
 2133TIP3   OH227889   1.584   5.381  10.292 -0.7174 -0.2944 -0.8460
 2133TIP3    H127890   1.588   5.438  10.216 -1.7026  0.0752 -0.6378
 2133TIP3    H227891   1.665   5.330  10.289 -0.0662  0.7538 -1.3094
 2134TIP3   OH227892   3.966   5.183  10.575  0.6387  0.1743  0.3568
 2134TIP3    H127893   4.023   5.250  10.538  0.5922  0.0079 -0.0195
 2134TIP3    H227894   4.026   5.118  10.613  0.6782  0.7367  1.2851
 2135TIP3   OH227895   3.156   3.715  12.429  0.6394  0.2121 -0.0580
 2135TIP3    H127896   3.148   3.716  12.524  1.8949  1.5087  0.0487
 2135TIP3    H227897   3.118   3.631  12.403  2.1684 -1.0761  1.7530
 2136TIP3   OH227898   2.355   4.086  10.295 -0.5203  0.1818  0.0320
 2136TIP3    H127899   2.383   4.152  10.231  1.2596 -0.8045 -0.2627
 2136TIP3    H227900   2.319   4.015  10.242 -0.6469  0.1009  0.2275
 2137TIP3   OH227901   2.297   5.335  13.743 -0.7199 -0.4858 -0.3572
 2137TIP3    H127902   2.323   5.338  13.835 -1.2857 -0.4256 -0.1970
 2137TIP3    H227903   2.204   5.311  13.746 -0.9690  0.4222 -0.8755
 2138TIP3   OH227904   3.672   5.903  10.774  0.1396  0.4342  0.3038
 2138TIP3    H127905   3.610   5.964  10.734  2.2344  2.0520 -0.5460
 2138TIP3    H227906   3.737   5.958  10.818  1.1793 -1.2097  0.9031
 2139TIP3   OH227907   2.351   5.161  11.326 -0.1110  0.2583 -0.3061
 2139TIP3    H127908   2.363   5.183  11.418 -0.7333 -1.5537  0.2238
 2139TIP3    H227909   2.440   5.148  11.293  0.3194  3.7493 -0.7286
 2140TIP3   OH227910   0.208   3.350  11.643  0.2228 -0.3747 -0.1681
 2140TIP3    H127911   0.207   3.321  11.734  1.6574 -1.6716 -0.5582
 2140TIP3    H227912   0.215   3.270  11.592 -0.5881  0.3377 -1.4349
 2141TIP3   OH227913   0.314   6.565  10.943 -0.0239 -0.1567 -0.5107
 2141TIP3    H127914   0.317   6.654  10.908  1.0765  0.0074 -0.0160
 2141TIP3    H227915   0.401   6.550  10.980 -0.9023 -0.5918  1.4900
 2142TIP3   OH227916   1.530   5.997  13.523  0.0734 -0.3119  0.8267
 2142TIP3    H127917   1.549   6.012  13.430 -0.9514  0.9928  0.8230
 2142TIP3    H227918   1.582   5.920  13.545  1.1738  0.0068 -0.5559
 2143TIP3   OH227919   1.127   2.426  10.865  0.0370 -0.8175  0.6840
 2143TIP3    H127920   1.154   2.499  10.809  0.7898 -1.1143  0.6700
 2143TIP3    H227921   1.204   2.371  10.873 -0.1484 -0.9301  1.7843
 2144TIP3   OH227922   3.335   3.998  11.179 -0.1686  0.2458 -0.4155
 2144TIP3    H127923   3.305   4.043  11.100  0.2809  1.1463 -0.0776
 2144TIP3    H227924   3.369   4.067  11.234  0.1574 -0.4701  0.2847
 2145TIP3   OH227925   3.190   4.135  10.199  0.2744 -0.1948  0.3781
 2145TIP3    H127926   3.272   4.134  10.249  0.3864  0.1794  0.2058
 2145TIP3    H227927   3.175   4.228  10.180  0.2874 -0.3431 -0.3767
 2146TIP3   OH227928   4.140   6.670  10.572 -0.9341  0.2496 -0.1148
 2146TIP3    H127929   4.182   6.601  10.520 -0.5504  0.1773  0.2849
 2146TIP3    H227930   4.057   6.686  10.528 -0.2153  0.8275 -1.2779
 2147TIP3   OH227931   2.064   3.213  12.029  0.2316  0.5593 -0.1327
 2147TIP3    H127932   2.039   3.243  11.942 -1.4985 -0.7180 -0.0905
 2147TIP3    H227933   2.149   3.254  12.045  0.6862  0.5704 -2.5242
 2148TIP3   OH227934   3.343   3.545  10.303 -0.1896 -0.4026  0.0613
 2148TIP3    H127935   3.356   3.543  10.208 -1.9409  1.5322 -0.2661
 2148TIP3    H227936   3.382   3.627  10.332  0.4982 -1.0663  1.0512
 2149TIP3   OH227937   4.719   4.565  11.662 -0.2061  0.2202 -0.1287
 2149TIP3    H127938   4.768   4.589  11.583  0.6960 -2.5502 -0.4726
 2149TIP3    H227939   4.642   4.519  11.629 -1.9141  2.5498  0.5071
 2150TIP3   OH227940   1.317   5.439  10.706 -0.0662  0.3908 -0.9490
 2150TIP3    H127941   1.228   5.472  10.703  0.1552  1.1010  0.3046
 2150TIP3    H227942   1.355   5.464  10.621 -1.2549 -0.5252 -1.7667
 2151TIP3   OH227943   3.892   6.389  10.536 -0.3309 -0.6707  0.3005
 2151TIP3    H127944   3.839   6.311  10.518 -0.2544 -0.7601  0.4588
 2151TIP3    H227945   3.972   6.376  10.484 -0.6614 -0.3117 -0.3089
 2152TIP3   OH227946   5.914   3.680  12.221 -0.2581  0.6605  0.4140
 2152TIP3    H127947   5.850   3.748  12.200 -2.1412 -0.9124  0.8480
 2152TIP3    H227948   5.878   3.601  12.181  1.4669 -0.2563  0.6359
 2153TIP3   OH227949   2.826   3.969  10.636  0.2203 -0.3577 -0.2201
 2153TIP3    H127950   2.806   3.876  10.638 -0.3621 -0.2253  0.6697
 2153TIP3    H227951   2.907   3.977  10.686  0.8168 -0.5033 -1.1477
 2154TIP3   OH227952   2.987   3.907  10.272  0.0875  0.6998 -0.2376
 2154TIP3    H127953   3.049   3.945  10.334  0.2153 -1.7731  1.1792
 2154TIP3    H227954   3.017   3.818  10.258 -2.0517  0.0610 -1.0029
 2155TIP3   OH227955   2.947   3.311  10.541  0.0288  0.1629  0.4219
 2155TIP3    H127956   3.034   3.348  10.526 -0.0269 -0.0732 -0.4687
 2155TIP3    H227957   2.887   3.383  10.523 -0.1098 -0.4844 -1.8502
 2156TIP3   OH227958   2.607   3.981  10.864 -0.0066  0.5344  0.3745
 2156TIP3    H127959   2.659   4.027  10.799 -0.0930 -1.3229 -1.0570
 2156TIP3    H227960   2.669   3.921  10.906 -0.4355  0.1450  0.4533
 2157TIP3   OH227961   2.967   4.389  13.687  0.0654 -0.1397  0.4727
 2157TIP3    H127962   2.961   4.475  13.729 -2.0666  0.0221 -0.1203
 2157TIP3    H227963   2.956   4.406  13.594 -1.9631 -1.1916  0.4867
 2158TIP3   OH227964   1.112   3.962  11.883 -0.5949 -0.3632 -0.2020
 2158TIP3    H127965   1.150   3.950  11.970 -0.1825 -2.3473 -0.6092
 2158TIP3    H227966   1.181   3.933  11.823 -1.5394 -0.8271 -1.0897
 2159TIP3   OH227967   3.441   3.723  11.191 -0.3553  0.3651  0.5129
 2159TIP3    H127968   3.403   3.810  11.206 -1.2279 -0.2216  1.6934
 2159TIP3    H227969   3.532   3.742  11.167 -1.0951  1.7147 -1.3586
 2160TIP3   OH227970   2.048   5.846   9.753  0.0324 -0.0069  0.4379
 2160TIP3    H127971   2.087   5.900   9.822  0.9326 -0.4950  0.3169
 2160TIP3    H227972   2.121   5.823   9.697 -0.6861  0.3155 -0.6419
 2161TIP3   OH227973   2.175   3.692   9.927  0.3935  0.2620  0.1541
 2161TIP3    H127974   2.128   3.625   9.977  1.1116 -0.3705 -0.0185
 2161TIP3    H227975   2.143   3.682   9.837  0.9574 -0.2749  0.0062
 2162TIP3   OH227976   1.263   5.068  10.440 -0.0003 -0.0290  0.5379
 2162TIP3    H127977   1.284   5.157  10.411 -0.1967  0.2044  1.0882
 2162TIP3    H227978   1.235   5.022  10.361 -1.1090  0.7684  0.4565
 2163TIP3   OH227979   3.399   5.486  10.026  0.1722 -0.1456  0.2343
 2163TIP3    H127980   3.324   5.534   9.991 -0.7326 -1.1205  0.8056
 2163TIP3    H227981   3.474   5.522   9.980 -0.7094  0.4952 -0.7214
 2164TIP3   OH227982   4.231   5.405  11.577 -0.1799 -0.1725  0.5561
 2164TIP3    H127983   4.182   5.441  11.651 -0.1507 -0.5224  0.7496
 2164TIP3    H227984   4.292   5.343  11.617 -1.5619 -1.8830  0.0729
 2165TIP3   OH227985   3.044   4.966  12.584  0.1448  0.8495 -0.4494
 2165TIP3    H127986   2.976   5.032  12.571  0.0580  0.5025 -1.8527
 2165TIP3    H227987   3.113   5.011  12.632  0.0110  1.9147 -1.2467
 2166TIP3   OH227988   2.253   2.941  11.089  0.2013 -0.1495  0.5428
 2166TIP3    H127989   2.324   2.976  11.144 -0.8719 -0.6749  2.2960
 2166TIP3    H227990   2.228   2.860  11.131 -0.9019 -0.3798 -0.5445
 2167TIP3   OH227991   3.301   5.820  10.656  0.1160 -0.7628  0.3241
 2167TIP3    H127992   3.259   5.904  10.676 -1.6446 -0.8287 -2.7181
 2167TIP3    H227993   3.291   5.769  10.736 -0.0164  1.4428  1.7754
 2168TIP3   OH227994   3.556   5.060  12.169  0.1851 -0.2652  0.0940
 2168TIP3    H127995   3.556   4.986  12.108 -0.2962 -1.1864  1.1889
 2168TIP3    H227996   3.542   5.136  12.113  0.0089 -1.0657 -0.9838
 2169TIP3   OH227997   5.455   2.410  11.257 -0.3792 -0.1124  0.0109
 2169TIP3    H127998   5.496   2.356  11.324 -0.0504 -1.7350 -1.4457
 2169TIP3    H227999   5.392   2.464  11.304  0.1930 -0.8850  1.6730
 2170TIP3   OH228000   2.426   6.047  12.705  0.5050  0.0667  0.1397
 2170TIP3    H128001   2.385   6.120  12.752 -1.8935  0.1163 -1.9541
 2170TIP3    H228002   2.373   5.971  12.728  0.0597 -0.1311 -1.5097
 2171TIP3   OH228003   2.126   4.067  10.462 -0.3860  0.0596  0.4844
 2171TIP3    H128004   2.202   4.029  10.508  0.0515 -0.2923 -0.5245
 2171TIP3    H228005   2.163   4.107  10.384 -1.2045  0.1855  0.1583
 2172TIP3   OH228006   1.784   4.948  13.869 -0.6061 -0.3152 -0.7729
 2172TIP3    H128007   1.714   4.923  13.930  0.5027 -0.9551  0.2458
 2172TIP3    H228008   1.742   4.947  13.783 -1.6700 -1.4383 -0.2579
 2173TIP3   OH228009   5.342   4.789  11.329  0.1483  0.1007 -0.6286
 2173TIP3    H128010   5.302   4.840  11.259 -0.6876  0.4673  0.1141
 2173TIP3    H228011   5.434   4.782  11.304  0.1555  1.4761 -1.0292
 2174TIP3   OH228012   5.373   5.675  10.686  0.2767  0.4257 -0.0833
 2174TIP3    H128013   5.410   5.696  10.601 -0.4063 -0.1980 -0.5331
 2174TIP3    H228014   5.320   5.752  10.709 -0.1008  0.2965 -0.5294
 2175TIP3   OH228015   4.610   4.714  10.352  0.3067  0.2342  0.2545
 2175TIP3    H128016   4.556   4.671  10.418 -0.0839  1.0515  0.4867
 2175TIP3    H228017   4.552   4.782  10.316  1.1655  1.0972  0.4817
 2176TIP3   OH228018   2.674   2.398   9.852 -0.1573 -0.3335  0.6106
 2176TIP3    H128019   2.722   2.385   9.934  1.0108  1.6367  0.2850
 2176TIP3    H228020   2.669   2.311   9.813  2.3413 -0.7489  1.1151
 2177TIP3   OH228021   1.885   4.078  13.585  0.0839  1.0204 -0.2682
 2177TIP3    H128022   1.795   4.091  13.615  0.0955  1.1640 -0.2972
 2177TIP3    H228023   1.921   4.167  13.578  1.0756  0.8896  2.3870
 2178TIP3   OH228024   2.661   5.883  11.478  0.6669  0.3900  0.4240
 2178TIP3    H128025   2.641   5.798  11.439  1.6603  0.4091 -0.1263
 2178TIP3    H228026   2.700   5.934  11.407 -1.2874  1.8286  0.3261
 2179TIP3   OH228027   4.757   3.990  12.074  0.5168 -0.5422 -0.1998
 2179TIP3    H128028   4.686   3.965  12.133  0.8456  0.2372  0.5376
 2179TIP3    H228029   4.792   4.071  12.111 -0.1787  0.7125 -2.2403
 2180TIP3   OH228030   5.871   2.179  10.417  0.6200 -0.2398  0.6082
 2180TIP3    H128031   5.965   2.161  10.420  0.9389  1.1832 -0.4179
 2180TIP3    H228032   5.865   2.274  10.414 -0.8348 -0.3433 -0.1682
 2181TIP3   OH228033   2.285   5.244   9.950  0.0157 -0.4748  0.4003
 2181TIP3    H128034   2.338   5.202   9.883  1.1556 -1.9458  2.1558
 2181TIP3    H228035   2.234   5.310   9.903 -0.0769 -2.2367 -2.0625
 2182TIP3   OH228036   2.123   4.638  10.748  0.4623 -0.3669  0.3992
 2182TIP3    H128037   2.168   4.676  10.823  1.6329 -0.4287 -0.2560
 2182TIP3    H228038   2.192   4.592  10.699 -0.1616  0.1698 -1.0243
 2183TIP3   OH228039   5.983   2.792  11.353 -0.2215  0.1339  0.1031
 2183TIP3    H128040   5.994   2.871  11.299  0.5703 -0.3530 -0.4657
 2183TIP3    H228041   5.915   2.742  11.308 -0.4172  0.2912  0.2239
 2184TIP3   OH228042   2.882   3.703  10.485 -0.6036 -0.3429 -0.4944
 2184TIP3    H128043   2.881   3.786  10.437 -0.7610 -0.4014 -0.5924
 2184TIP3    H228044   2.958   3.710  10.543 -1.3512  0.3845  0.4062
 2185TIP3   OH228045   4.103   4.057  11.498 -0.6488 -0.4240  0.0375
 2185TIP3    H128046   4.079   4.008  11.419 -0.3840 -0.9589  0.2863
 2185TIP3    H228047   4.185   4.101  11.474 -1.1956  0.3706 -0.3818
 2186TIP3   OH228048   1.580   5.296  11.049 -0.3838 -0.2697  0.3083
 2186TIP3    H128049   1.636   5.297  10.972  3.1237  3.8019  2.6882
 2186TIP3    H228050   1.503   5.347  11.024 -0.1614 -0.5722 -1.0240
 2187TIP3   OH228051   4.466   6.301  11.555  0.4243  0.3457  0.1712
 2187TIP3    H128052   4.520   6.231  11.593  1.2858  1.3106  0.7678
 2187TIP3    H228053   4.463   6.281  11.462  1.2534 -0.1102  0.2332
 2188TIP3   OH228054   2.659   5.227  13.335 -0.2072 -0.1546  0.3080
 2188TIP3    H128055   2.707   5.261  13.411 -0.7631 -0.3014  0.7255
 2188TIP3    H228056   2.644   5.135  13.357 -3.4130  0.5987  1.5885
 2189TIP3   OH228057   4.127   4.378  11.707  0.2302  0.0981  0.3373
 2189TIP3    H128058   4.079   4.300  11.734  0.3974 -0.0332  0.2615
 2189TIP3    H228059   4.213   4.367  11.747  1.7527 -1.9203 -3.1859
 2190TIP3   OH228060   3.665   5.939  12.333 -0.4164 -0.1224 -0.4659
 2190TIP3    H128061   3.602   5.872  12.363 -1.0422  0.8449  0.3924
 2190TIP3    H228062   3.663   5.931  12.238 -0.1799 -1.6155 -0.3605
 2191TIP3   OH228063   1.827   2.834  11.746 -0.5163 -0.5971 -0.1306
 2191TIP3    H128064   1.878   2.915  11.759  0.4495 -1.1850 -0.2213
 2191TIP3    H228065   1.736   2.863  11.745 -0.1450  0.5769 -0.7878
 2192TIP3   OH228066   4.426   6.892  12.417 -0.2134  0.4418  0.3379
 2192TIP3    H128067   4.430   6.964  12.480 -1.7005  0.1413  0.7835
 2192TIP3    H228068   4.449   6.932  12.334  1.4681  0.9089  0.9962
 2193TIP3   OH228069   2.408   5.135  11.600  0.4597 -0.0534  0.2330
 2193TIP3    H128070   2.497   5.101  11.592  0.7290  0.1655  2.2747
 2193TIP3    H228071   2.353   5.057  11.607  0.4228 -0.2010 -1.4090
 2194TIP3   OH228072   5.243   4.786  12.343 -0.1068 -0.6567 -0.4324
 2194TIP3    H128073   5.176   4.853  12.331  1.9453  1.1381 -2.2170
 2194TIP3    H228074   5.213   4.712  12.290 -0.8611 -0.0100 -0.9154
 2195TIP3   OH228075   3.136   5.036  11.399 -0.0687 -0.7001 -0.0880
 2195TIP3    H128076   3.220   5.012  11.438  0.4783 -0.3280 -1.0029
 2195TIP3    H228077   3.157   5.055  11.308 -0.9395  0.6148 -0.0256
 2196TIP3   OH228078   4.300   4.700  10.394 -0.0230  0.1657  0.4297
 2196TIP3    H128079   4.287   4.606  10.380 -3.1148  0.7003 -0.6752
 2196TIP3    H228080   4.304   4.736  10.306  0.1430  1.2091  0.8628
 2197TIP3   OH228081   2.594   4.919  10.046 -0.3618  0.0230 -0.3172
 2197TIP3    H128082   2.536   4.844  10.041  0.3831 -0.5518 -0.4703
 2197TIP3    H228083   2.681   4.881  10.060 -0.1274  0.9007  0.6272
 2198TIP3   OH228084   4.726   4.941  11.568  0.1889  0.2123  0.1288
 2198TIP3    H128085   4.799   4.956  11.507 -0.8019  4.2492 -0.2089
 2198TIP3    H228086   4.664   4.888  11.519  1.4797 -0.5534 -0.7039
 2199TIP3   OH228087   1.350   5.438  10.972  0.1653  0.4653 -0.5281
 2199TIP3    H128088   1.274   5.392  11.008 -2.0368  4.9492  0.9737
 2199TIP3    H228089   1.344   5.425  10.877 -2.5964  0.8028 -0.4329
 2200TIP3   OH228090   2.905   2.493  12.437 -0.5456  0.2211 -0.7817
 2200TIP3    H128091   2.916   2.557  12.507 -0.2750 -1.6695  0.9791
 2200TIP3    H228092   2.832   2.438  12.466  1.1888 -2.1499 -0.6961
 2201TIP3   OH228093   3.512   3.110  11.313 -0.1977 -0.2922  0.2646
 2201TIP3    H128094   3.558   3.193  11.300  1.2235 -1.4640 -2.7675
 2201TIP3    H228095   3.545   3.077  11.396 -0.8083  2.1541  1.5372
 2202TIP3   OH228096   5.128   3.302  11.743 -0.2866  0.0008  0.2398
 2202TIP3    H128097   5.154   3.390  11.715  1.6977 -0.4769  0.5094
 2202TIP3    H228098   5.206   3.248  11.727 -1.8231 -1.9302 -0.8901
 2203TIP3   OH228099   4.529   4.420  10.112  0.3277  0.7810 -0.0144
 2203TIP3    H128100   4.457   4.484  10.115 -0.1397  0.2065  1.0251
 2203TIP3    H228101   4.522   4.381  10.025 -0.5019  0.8667  0.0115
 2204TIP3   OH228102   2.055   3.628  10.548  0.4757 -0.1547 -0.5216
 2204TIP3    H128103   2.038   3.553  10.605 -0.5054  1.2403  1.0377
 2204TIP3    H228104   2.072   3.589  10.462  0.7865 -2.2017  0.4465
 2205TIP3   OH228105   1.479   1.720  10.375  0.1258 -0.3326  0.0423
 2205TIP3    H128106   1.448   1.727  10.465  0.1874 -0.7886  0.0979
 2205TIP3    H228107   1.460   1.630  10.350 -0.9725  0.1251 -0.8028
 2206TIP3   OH228108   4.404   3.349  11.012  0.1219  0.4093  0.4901
 2206TIP3    H128109   4.359   3.314  11.089  1.3756 -0.6222  0.7749
 2206TIP3    H228110   4.389   3.284  10.944 -0.4638  1.0207  0.0269
 2207TIP3   OH228111   2.799   4.976   9.835  0.0545  0.8033  0.4440
 2207TIP3    H128112   2.752   4.938   9.909  2.0155 -1.5663  0.5590
 2207TIP3    H228113   2.843   4.901   9.794  2.2405  2.6553 -0.6872
 2208TIP3   OH228114   2.367   6.151  12.246  0.4919 -0.1754  0.3783
 2208TIP3    H128115   2.300   6.146  12.315  0.6108  0.4654  0.5422
 2208TIP3    H228116   2.340   6.225  12.192  0.4053 -0.6754 -0.2606
 2209TIP3   OH228117   2.835   3.009  11.645 -0.0413 -0.3209  0.1417
 2209TIP3    H128118   2.842   3.061  11.725  1.3101  1.0562 -0.8365
 2209TIP3    H228119   2.760   3.045  11.599  0.6117  0.4732 -0.3137
 2210TIP3   OH228120   5.659   2.982  11.637  0.2386  0.2756 -0.3678
 2210TIP3    H128121   5.580   2.929  11.633  0.9085 -0.8744  1.2983
 2210TIP3    H228122   5.692   2.981  11.547  1.9292 -4.8254  0.1141
 2211TIP3   OH228123   2.380   4.887  11.151 -0.6184 -0.0247 -0.3956
 2211TIP3    H128124   2.464   4.893  11.197 -0.5748  0.4336 -0.5322
 2211TIP3    H228125   2.338   4.971  11.167  0.3739  1.0362 -3.0797
 2212TIP3   OH228126   3.292   0.075  10.535 -0.3723 -0.5382 -0.5814
 2212TIP3    H128127   3.276  -0.010  10.493  1.8567 -0.8590 -0.8361
 2212TIP3    H228128   3.233   0.075  10.611 -1.2736 -1.7872 -1.2458
 2213TIP3   OH228129   5.219   3.863  10.496  0.2153 -0.1730 -0.2510
 2213TIP3    H128130   5.189   3.774  10.483  3.0183 -1.0956 -0.8340
 2213TIP3    H228131   5.194   3.909  10.416  1.7638 -1.3393 -1.4357
 2214TIP3   OH228132   5.303   3.186  12.400  0.3111 -0.2374  0.0073
 2214TIP3    H128133   5.325   3.215  12.489 -0.4420  1.2495 -0.2746
 2214TIP3    H228134   5.304   3.266  12.348  1.6950 -1.2243 -1.5372
 2215TIP3   OH228135   4.891   4.377  10.406 -0.4590  0.0474 -0.4773
 2215TIP3    H128136   4.808   4.407  10.443 -0.6194 -0.4640 -0.4185
 2215TIP3    H228137   4.943   4.457  10.395  0.5336 -0.0306  3.1293
 2216TIP3   OH228138   5.033   6.307  11.189  0.2796 -0.5574 -0.1460
 2216TIP3    H128139   4.979   6.252  11.131 -0.4884  0.7552 -0.6935
 2216TIP3    H228140   5.122   6.296  11.155 -0.4354  2.0310 -3.1581
 2217TIP3   OH228141   3.938   5.032  11.100 -0.7019  0.1009  0.2735
 2217TIP3    H128142   3.978   4.958  11.055 -1.0150 -0.8752  1.5846
 2217TIP3    H228143   3.921   5.000  11.189 -2.3062  1.2281  0.3810
 2218TIP3   OH228144   2.327   4.606  11.511  0.7603 -0.3492 -0.8446
 2218TIP3    H128145   2.405   4.631  11.560  0.1641  0.9826 -0.5780
 2218TIP3    H228146   2.302   4.521  11.548  1.3136 -0.1654 -0.0414
 2219TIP3   OH228147   1.875   5.107  10.841  0.0881 -0.0796 -0.2708
 2219TIP3    H128148   1.827   5.035  10.882  2.4035 -2.2758 -1.2887
 2219TIP3    H228149   1.811   5.178  10.836 -2.2181 -1.9832  0.9096
 2220TIP3   OH228150   6.406   5.249  11.164  0.1218  0.0651  0.7875
 2220TIP3    H128151   6.485   5.293  11.197  0.9307  1.2121 -2.4965
 2220TIP3    H228152   6.426   5.155  11.173  1.5195  0.3499  0.7833
 2221TIP3   OH228153   4.070   5.804  10.507  0.1095 -0.4485 -0.3715
 2221TIP3    H128154   4.137   5.831  10.570  0.2432  0.4978 -0.9106
 2221TIP3    H228155   4.119   5.763  10.435 -0.0574 -1.7137  0.2194
 2222TIP3   OH228156   7.231   3.501  10.409 -0.0884 -0.0222  0.2445
 2222TIP3    H128157   7.308   3.528  10.459  1.3389 -0.3839 -1.6876
 2222TIP3    H228158   7.264   3.484  10.321 -2.1739 -1.3735 -0.3260
 2223TIP3   OH228159   4.594   4.389  11.220 -0.3457  0.2460  0.2563
 2223TIP3    H128160   4.577   4.325  11.151 -0.7652 -1.2019  1.6780
 2223TIP3    H228161   4.607   4.337  11.299  0.1979  1.8734  1.2765
 2224TIP3   OH228162   4.297   5.898  10.647  0.0345  0.2068  0.0594
 2224TIP3    H128163   4.366   5.928  10.589 -1.7317  2.6020 -0.8862
 2224TIP3    H228164   4.331   5.915  10.735  1.0509  0.3989 -0.3605
 2225TIP3   OH228165   5.045   4.392   9.946 -0.1209  0.9696 -0.2506
 2225TIP3    H128166   5.011   4.305   9.922  0.0222  0.6610  0.6273
 2225TIP3    H228167   5.045   4.441   9.864 -2.5087  0.9281 -0.3112
 2226TIP3   OH228168   3.771   4.433  10.995 -0.3197  0.1147 -0.6954
 2226TIP3    H128169   3.782   4.344  11.029  2.2504  1.2163  1.5382
 2226TIP3    H228170   3.692   4.466  11.037 -0.3211 -0.5193 -0.1987
 2227TIP3   OH228171   4.598   4.623  10.593  0.9931  0.2781 -0.0249
 2227TIP3    H128172   4.569   4.622  10.684  0.5263  1.6141 -0.1347
 2227TIP3    H228173   4.665   4.691  10.590  1.3180 -0.0659 -0.5819
 2228TIP3   OH228174   7.102   5.637  11.175 -0.4223  1.0361 -0.2470
 2228TIP3    H128175   7.195   5.617  11.184 -0.5192  0.5456 -0.3328
 2228TIP3    H228176   7.078   5.679  11.257 -0.5982 -0.6511  0.5643
 2229TIP3   OH228177   4.198   5.961  12.425 -0.2809  0.7414 -0.9776
 2229TIP3    H128178   4.106   5.985  12.414 -0.2583  0.5315 -1.5892
 2229TIP3    H228179   4.241   6.044  12.448 -0.7285  0.7247 -0.0415
 2230TIP3   OH228180   1.692   2.688  11.133  0.3615  0.0699 -0.4187
 2230TIP3    H128181   1.678   2.777  11.102  1.0736  0.1045 -0.6413
 2230TIP3    H228182   1.785   2.670  11.115 -0.5496 -1.9426 -3.5164
 2231TIP3   OH228183   7.329   5.181  11.092 -0.0657 -0.0621 -0.5025
 2231TIP3    H128184   7.275   5.241  11.040  0.9863  0.4097 -1.0759
 2231TIP3    H228185   7.295   5.189  11.181  0.1805  1.5281 -0.5362
 2232TIP3   OH228186   4.989   3.911  10.655  0.2006  0.3247  0.4009
 2232TIP3    H128187   5.052   3.938  10.588 -0.8303 -0.7569 -1.0257
 2232TIP3    H228188   5.013   3.820  10.674 -0.2640  0.2504  0.6301
 2233TIP3   OH228189   3.108   5.472  11.711  0.8473  0.1904  0.4236
 2233TIP3    H128190   3.041   5.406  11.727  2.5034 -2.0984 -1.5589
 2233TIP3    H228191   3.079   5.518  11.632  0.9436  0.1039  0.3365
 2234TIP3   OH228192   3.075   5.592  11.098 -0.2028  0.1995  0.1474
 2234TIP3    H128193   3.159   5.589  11.145  0.8964 -0.2825 -1.7692
 2234TIP3    H228194   3.065   5.504  11.063 -1.9785  0.0096  1.1079
 2235TIP3   OH228195   3.063   6.045  11.060  0.1409 -0.2310 -0.6853
 2235TIP3    H128196   3.133   6.013  11.117 -0.6967 -1.1711 -0.1602
 2235TIP3    H228197   2.983   6.033  11.112 -0.3103  1.7255 -0.8968
 2236TIP3   OH228198   3.651   6.964  11.157  0.0709  0.1194  0.0392
 2236TIP3    H128199   3.744   6.986  11.158  0.2557 -0.6788  0.8101
 2236TIP3    H228200   3.626   6.973  11.065  1.4925 -2.0357 -0.6075
 2237TIP3   OH228201   4.412   3.829  10.566 -0.3888  0.2652  0.1813
 2237TIP3    H128202   4.347   3.899  10.560 -0.4218  0.3296  1.1691
 2237TIP3    H228203   4.381   3.773  10.637 -0.6957 -1.1175 -1.0210
 2238TIP3   OH228204   4.172   1.925  10.354  0.0915 -0.1892  0.4842
 2238TIP3    H128205   4.133   2.003  10.395 -1.4202 -1.3766  1.3855
 2238TIP3    H228206   4.238   1.896  10.416 -1.7786 -1.6343  1.8536
 2239TIP3   OH228207   5.975   6.238   9.804  0.0142  1.0591  0.0303
 2239TIP3    H128208   5.969   6.225   9.709  0.2155  1.1182  0.0091
 2239TIP3    H228209   6.031   6.316   9.814 -0.4788  1.3951  0.1792
 2240TIP3   OH228210   6.031   6.008   9.932 -0.0886  0.2510 -0.1885
 2240TIP3    H128211   6.068   5.956   9.861 -1.1908 -0.3196 -0.3607
 2240TIP3    H228212   6.014   6.094   9.893  0.3304  0.2749 -0.3157
 2241TIP3   OH228213   5.897   3.462  11.187  0.2837 -0.4529 -0.1913
 2241TIP3    H128214   5.921   3.553  11.172  1.3321 -0.9819 -1.9269
 2241TIP3    H228215   5.883   3.426  11.099 -1.6010 -1.5846  0.5427
 2242TIP3   OH228216   4.316   4.137  10.614 -0.1386 -0.0931 -0.2991
 2242TIP3    H128217   4.363   4.172  10.539 -0.9175  1.0327 -0.2734
 2242TIP3    H228218   4.230   4.180  10.611  0.0582  0.5012  1.6101
 2243TIP3   OH228219   5.474   5.073   9.719 -0.1920 -0.0979 -0.2592
 2243TIP3    H128220   5.435   5.078   9.632  0.9621 -0.4535 -0.8119
 2243TIP3    H228221   5.409   5.028   9.772 -0.5011 -0.7528 -1.1840
 2244TIP3   OH228222   3.141   5.151  11.857  0.2582  0.2713  0.4239
 2244TIP3    H128223   3.108   5.241  11.860  1.1607  0.5885  1.0668
 2244TIP3    H228224   3.098   5.112  11.780  0.1906  1.3863 -0.1137
 2245TIP3   OH228225   4.781   5.805   9.757 -0.6015  0.2805  0.0338
 2245TIP3    H128226   4.693   5.837   9.734 -1.0739  0.7102  2.2928
 2245TIP3    H228227   4.839   5.850   9.697 -1.7967  1.1919 -0.4602
 2246TIP3   OH228228   4.725   5.853  10.035 -0.6543  0.1422  0.2770
 2246TIP3    H128229   4.769   5.856   9.950  2.0734  0.2281  1.6356
 2246TIP3    H228230   4.730   5.761  10.062 -0.9246  0.2279  0.6308
 2247TIP3   OH228231   5.806   3.230  11.641 -0.3177 -0.3273  0.4979
 2247TIP3    H128232   5.752   3.297  11.683 -1.2213 -1.4892  1.2134
 2247TIP3    H228233   5.748   3.154  11.634  0.5003 -0.8259 -0.9041
 2248TIP3   OH228234   5.474   4.287  11.226  0.7604  0.4387 -0.4120
 2248TIP3    H128235   5.497   4.379  11.238 -2.7319  1.2029  1.0858
 2248TIP3    H228236   5.492   4.247  11.311  2.2213 -0.2804 -1.0452
 2249TIP3   OH228237   4.490   3.290  11.765  0.8441 -0.2331  0.0555
 2249TIP3    H128238   4.558   3.339  11.719  0.1401  0.2591 -0.4605
 2249TIP3    H228239   4.487   3.329  11.852 -1.0012  1.8932 -0.9358
 2250TIP3   OH228240   4.072   4.254  11.010  0.7932 -0.1260 -0.2421
 2250TIP3    H128241   3.982   4.226  11.031  0.4293  2.1433  1.4101
 2250TIP3    H228242   4.115   4.174  10.980 -1.4680 -1.4925 -0.0116
 2251TIP3   OH228243   5.340   2.320  12.433 -0.3841 -0.5280  0.9539
 2251TIP3    H128244   5.397   2.397  12.437 -2.1149  0.7962  0.4882
 2251TIP3    H228245   5.252   2.355  12.431 -1.1714 -2.4931 -0.6070
 2252TIP3   OH228246   6.483   4.932  10.166 -0.0522 -0.0930 -0.0071
 2252TIP3    H128247   6.455   4.980  10.088 -0.8122  0.3982  0.5498
 2252TIP3    H228248   6.525   4.853  10.133  3.8993  2.3304 -1.0314
 2253TIP3   OH228249   3.508   5.493  11.372 -0.6171  0.0169  0.2806
 2253TIP3    H128250   3.454   5.465  11.446 -0.5959 -0.4214  0.1343
 2253TIP3    H228251   3.581   5.539  11.411 -1.6237  1.5219  0.4327
 2254TIP3   OH228252   4.196   5.124   9.958 -0.5590  0.2824  0.0109
 2254TIP3    H128253   4.125   5.189   9.958  0.6152  1.6188 -1.2373
 2254TIP3    H228254   4.257   5.155  10.025 -0.7454 -0.3947  0.4928
 2255TIP3   OH228255   5.899   5.811  11.547 -0.2432  0.2163 -0.5196
 2255TIP3    H128256   5.935   5.818  11.458 -0.6658 -0.2458 -0.7274
 2255TIP3    H228257   5.935   5.887  11.593  1.4859 -0.5599 -0.5555
 2256TIP3   OH228258   5.993   1.826  12.084  0.4840 -0.7214 -0.9203
 2256TIP3    H128259   5.951   1.787  12.007  0.4528 -0.4726 -1.0296
 2256TIP3    H228260   5.929   1.890  12.116  0.0490 -1.5794 -0.0658
 2257TIP3   OH228261   6.409   0.131  11.602 -0.2159  0.1754 -0.1117
 2257TIP3    H128262   6.409   0.210  11.657  0.5042  1.8724 -2.4838
 2257TIP3    H228263   6.347   0.151  11.532  0.7526 -0.9378 -1.3055
 2258TIP3   OH228264   5.665   4.287  11.987  0.1632 -0.2649 -0.2895
 2258TIP3    H128265   5.585   4.236  11.992  0.0011 -0.0044 -0.1949
 2258TIP3    H228266   5.646   4.367  12.037  0.9865 -0.8589  1.0096
 2259TIP3   OH228267   3.048   5.039  11.046 -0.0333  0.0380  0.3307
 2259TIP3    H128268   3.120   4.977  11.058  0.7495  1.2223  2.0366
 2259TIP3    H228269   2.969   4.985  11.051  0.7058 -1.2677 -1.5223
 2260TIP3   OH228270   3.687   4.599  10.763  0.3584 -0.6782  0.4562
 2260TIP3    H128271   3.737   4.542  10.822  1.0993 -0.3769  0.1350
 2260TIP3    H228272   3.710   4.568  10.675  1.7166  0.8713  0.2372
 2261TIP3   OH228273   3.737   5.532   9.769 -0.1355  0.4988 -0.4091
 2261TIP3    H128274   3.681   5.567   9.838 -0.8984  1.6481 -1.5727
 2261TIP3    H228275   3.824   5.567   9.787  0.8673 -3.3681  2.8957
 2262TIP3   OH228276   5.197   6.936  10.322 -0.0196  0.7129  0.1853
 2262TIP3    H128277   5.178   6.993  10.248  1.2457  0.1956 -0.5446
 2262TIP3    H228278   5.288   6.910  10.311  0.1094  0.4023  1.7703
 2263TIP3   OH228279   5.726   7.250  11.594 -0.5850 -0.6453 -0.1313
 2263TIP3    H128280   5.651   7.294  11.634 -2.2873 -1.0880 -2.7236
 2263TIP3    H228281   5.793   7.318  11.589 -1.7261  0.4984 -0.1717
 2264TIP3   OH228282   4.405   4.925  10.170 -0.4591 -0.5079 -0.3108
 2264TIP3    H128283   4.461   4.929  10.093  0.4924  2.0497  0.4507
 2264TIP3    H228284   4.418   5.010  10.214 -1.2075 -1.7578  2.4664
 2265TIP3   OH228285   3.438   2.555  12.436  0.7331 -0.2559  0.0253
 2265TIP3    H128286   3.471   2.471  12.403  1.1641  0.0385 -0.2925
 2265TIP3    H228287   3.362   2.573  12.380  1.8795  0.5884 -1.3012
 2266TIP3   OH228288   5.866   4.991  12.219  0.1379 -0.0577  0.0800
 2266TIP3    H128289   5.855   5.006  12.125 -0.1398 -0.6520  0.0151
 2266TIP3    H228290   5.834   5.071  12.260  0.2728  0.2099 -0.3337
 2267TIP3   OH228291   3.619   2.360  11.994  0.0724  0.4381 -0.2146
 2267TIP3    H128292   3.712   2.376  12.007  0.2112  0.0953 -0.7558
 2267TIP3    H228293   3.614   2.315  11.910 -0.4629 -0.6917  0.4077
 2268TIP3   OH228294   4.415   4.207  10.334 -0.3363 -0.1003  0.0556
 2268TIP3    H128295   4.506   4.178  10.327 -0.3647 -0.7865  2.2765
 2268TIP3    H228296   4.422   4.302  10.349  0.1045 -0.3606  1.6603
 2269TIP3   OH228297   0.164   3.135  11.837  0.0647  0.1673  0.0269
 2269TIP3    H128298   0.151   3.052  11.791  0.3757 -0.3586  0.8907
 2269TIP3    H228299   0.082   3.150  11.883 -0.3744  0.8676 -0.9461
 2270TIP3   OH228300   5.428   5.317  11.083 -0.5845 -0.5602  0.1678
 2270TIP3    H128301   5.382   5.349  11.006 -0.0957 -1.2294 -0.4128
 2270TIP3    H228302   5.500   5.379  11.096 -0.5546 -0.5522 -0.0312
 2271TIP3   OH228303   0.796   5.217  11.204  0.4944 -0.2039  0.2489
 2271TIP3    H128304   0.886   5.233  11.175  0.5172 -0.6017  0.0984
 2271TIP3    H228305   0.789   5.122  11.211  0.5053 -0.1132  1.6101
 2272TIP3   OH228306   6.916   0.192  13.018  0.1659  0.4457  0.3790
 2272TIP3    H128307   6.954   0.246  12.948 -0.5771  1.1343  0.5063
 2272TIP3    H228308   6.864   0.127  12.972 -0.8192  1.2717  0.2918
 2273TIP3   OH228309   6.016   2.429  11.615  0.2239  0.1414 -0.1767
 2273TIP3    H128310   6.025   2.349  11.563 -0.1830  1.3760 -2.2392
 2273TIP3    H228311   6.045   2.499  11.555 -1.1803  1.7182  0.9344
 2274TIP3   OH228312   4.858   3.418  10.787 -0.1710 -0.5402 -1.4664
 2274TIP3    H128313   4.812   3.347  10.832  0.8633 -0.4054 -0.1634
 2274TIP3    H228314   4.947   3.384  10.775 -0.1480 -0.1504 -2.4614
 2275TIP3   OH228315   3.842   4.117  11.376  0.5847 -0.2650 -0.1748
 2275TIP3    H128316   3.848   4.037  11.430  1.7219 -1.7084 -2.3549
 2275TIP3    H228317   3.910   4.174  11.412 -0.4150 -0.1373  1.5789
 2276TIP3   OH228318   4.887   5.212  10.759 -0.6583 -0.4039 -0.1802
 2276TIP3    H128319   4.845   5.135  10.798 -2.2734  0.8331  0.6036
 2276TIP3    H228320   4.955   5.236  10.821 -0.3386 -1.0342 -0.2851
 2277TIP3   OH228321   3.276   2.265  10.616 -0.2951 -0.0581 -0.3025
 2277TIP3    H128322   3.255   2.298  10.529 -1.5644  0.0623  0.0480
 2277TIP3    H228323   3.193   2.265  10.663  0.4506  0.2786  1.0490
 2278TIP3   OH228324   3.836   5.093   9.963  0.1862 -0.2964 -0.6727
 2278TIP3    H128325   3.749   5.121   9.936 -0.3900  0.0692  1.5146
 2278TIP3    H228326   3.884   5.174   9.978 -0.6367 -0.4216  2.9497
 2279TIP3   OH228327   7.252   4.543  11.559  0.8442  0.1918  0.3416
 2279TIP3    H128328   7.207   4.596  11.624  1.2722  0.3083  0.5386
 2279TIP3    H228329   7.185   4.525  11.493  0.2092 -0.5396  1.1721
 2280TIP3   OH228330   5.012   1.699  11.627 -0.6468  0.0032  0.4605
 2280TIP3    H128331   5.007   1.794  11.635  0.7529  0.0585  0.8991
 2280TIP3    H228332   5.012   1.683  11.533  0.2765  0.5290  0.3619
 2281TIP3   OH228333   3.309   4.902  10.219 -0.0626  0.4194 -0.0640
 2281TIP3    H128334   3.255   4.913  10.141 -0.9634  0.6762  0.5871
 2281TIP3    H228335   3.352   4.817  10.207  0.5461  0.8881 -1.2795
 2282TIP3   OH228336   5.288   3.171  10.597  1.1184  0.7716 -0.0859
 2282TIP3    H128337   5.240   3.092  10.571  1.0222  1.1966 -1.1857
 2282TIP3    H228338   5.380   3.148  10.586  1.1049  0.6688  0.0144
 2283TIP3   OH228339   4.992   3.646  10.749  0.2074 -0.3451  0.3507
 2283TIP3    H128340   5.015   3.609  10.663  1.6376 -0.2876  0.7009
 2283TIP3    H228341   4.941   3.578  10.792 -1.8699  0.2103 -1.1406
 2284TIP3   OH228342   4.018   3.723  11.199 -0.0064 -0.4087  0.4264
 2284TIP3    H128343   4.014   3.672  11.118 -0.5365  0.2971 -0.0036
 2284TIP3    H228344   3.930   3.761  11.208  0.3285  0.2966  0.8220
 2285TIP3   OH228345   2.873   0.448  11.741  0.6749 -0.7168 -0.6540
 2285TIP3    H128346   2.816   0.404  11.804  1.4791 -1.2444 -0.2874
 2285TIP3    H228347   2.838   0.424  11.655  1.0911 -2.0814 -0.4622
 2286TIP3   OH228348   5.299   3.556  10.229 -0.0636 -0.3484  0.0373
 2286TIP3    H128349   5.285   3.558  10.134  1.0170  1.2133 -0.1228
 2286TIP3    H228350   5.211   3.566  10.266 -0.5652 -1.5792 -0.7858
 2287TIP3   OH228351   5.122   3.385  10.685  0.2546 -0.0315  0.2906
 2287TIP3    H128352   5.159   3.306  10.646  0.8757  0.5396 -0.2949
 2287TIP3    H228353   5.132   3.452  10.617 -1.5103  0.2294  0.2738
 2288TIP3   OH228354   3.806   3.995   9.993  0.3361 -0.2739  0.5550
 2288TIP3    H128355   3.739   3.951  10.045 -0.5553 -0.7204 -0.9214
 2288TIP3    H228356   3.791   4.088  10.007  0.9564 -0.4081  2.1366
 2289TIP3   OH228357   6.075   3.860  10.556 -0.7778 -0.2281 -0.2254
 2289TIP3    H128358   6.117   3.938  10.592  0.1947 -0.8604  0.0449
 2289TIP3    H228359   6.008   3.837  10.620  0.2000 -0.6992  0.6554
 2290TIP3   OH228360   6.825   5.628  10.393  0.1441 -0.0361  0.0832
 2290TIP3    H128361   6.863   5.657  10.310  0.3739 -1.0411 -0.1737
 2290TIP3    H228362   6.737   5.664  10.393  0.1440 -0.0232 -0.6028
 2291TIP3   OH228363   5.046   7.286  11.454  0.1136  0.2052 -0.2960
 2291TIP3    H128364   5.141   7.278  11.465  0.1217  0.7447  0.0517
 2291TIP3    H228365   5.034   7.369  11.410 -0.2093  0.2135 -0.1939
 2292TIP3   OH228366   6.576   4.648  11.090 -0.0937 -0.3054  0.8150
 2292TIP3    H128367   6.494   4.658  11.041 -0.0893  1.8463  1.1844
 2292TIP3    H228368   6.549   4.609  11.174 -0.4322 -1.6470  0.0939
 2293TIP3   OH228369   5.110   3.898   9.940 -0.3259 -0.0557  0.1209
 2293TIP3    H128370   5.180   3.856   9.890 -0.2403 -1.5702  1.4542
 2293TIP3    H228371   5.118   3.861  10.028  0.1092  3.2509  1.5184
 2294TIP3   OH228372   4.589   5.006   9.980 -0.0326  0.6671  0.3972
 2294TIP3    H128373   4.649   5.003   9.906 -1.3939  1.2142 -0.7484
 2294TIP3    H228374   4.622   5.078  10.034 -0.1410  1.5251 -0.6560
 2295TIP3   OH228375   4.823   2.009  11.601 -0.6048 -0.5356  0.7444
 2295TIP3    H128376   4.810   2.068  11.676  1.1745 -0.9348  1.4025
 2295TIP3    H228377   4.899   1.956  11.626 -2.3965 -3.3852  0.3304
 2296TIP3   OH228378   6.047   5.164  10.933 -0.0050  0.3325 -0.1653
 2296TIP3    H128379   6.045   5.202  10.846 -1.9211 -2.0031 -1.2112
 2296TIP3    H228380   6.091   5.080  10.922  0.0128  0.1549  1.1649
 2297TIP3   OH228381   5.554   4.174  10.584 -0.3986  0.3069  0.1228
 2297TIP3    H128382   5.538   4.268  10.578 -1.6268  0.0084 -1.5929
 2297TIP3    H228383   5.569   4.147  10.494 -0.6296 -1.2461  0.5390
 2298TIP3   OH228384   4.227   1.023  11.634 -0.0149 -0.6234  0.7347
 2298TIP3    H128385   4.188   1.062  11.713 -0.6787  0.2326 -0.0097
 2298TIP3    H228386   4.317   1.057  11.633  0.6561 -2.2401  2.2016
 2299TIP3   OH228387   0.502   3.510  12.547 -0.0983  0.1030  0.1083
 2299TIP3    H128388   0.493   3.477  12.636 -1.4905  1.4901  0.5181
 2299TIP3    H228389   0.556   3.446  12.502 -0.6840 -1.4051  1.5313
 2300TIP3   OH228390   4.806   6.560  11.183  0.2689 -0.4608 -0.1534
 2300TIP3    H128391   4.809   6.524  11.094 -1.1053  0.8060 -0.7442
 2300TIP3    H228392   4.735   6.625  11.179  2.0959  1.6644  1.1103
 2301TIP3   OH228393   4.885   5.622  12.437 -0.4259 -0.0791 -0.5248
 2301TIP3    H128394   4.800   5.656  12.406 -0.9783  1.0595  2.1452
 2301TIP3    H228395   4.866   5.581  12.521  1.1102 -2.8942 -1.4900
 2302TIP3   OH228396   3.605   3.937  10.466  1.0804 -0.3823 -0.0077
 2302TIP3    H128397   3.533   3.917  10.406  0.8029 -0.6390  0.4026
 2302TIP3    H228398   3.667   3.986  10.413  1.3072 -1.4789 -0.7863
 2303TIP3   OH228399   2.909   5.730  10.070  0.2154  0.7432  0.1629
 2303TIP3    H128400   2.819   5.746  10.043  0.3307  2.7180  0.8808
 2303TIP3    H228401   2.906   5.728  10.166  0.8804  0.4163  0.1859
 2304TIP3   OH228402   6.290   5.040  12.939 -0.0075  0.1551  0.3391
 2304TIP3    H128403   6.216   5.043  12.878  0.3459 -1.7268 -0.1807
 2304TIP3    H228404   6.361   5.085  12.893  0.5798 -2.1723 -1.1059
 2305TIP3   OH228405   4.576   5.795  11.468  0.0714 -0.5985  0.1938
 2305TIP3    H128406   4.509   5.809  11.534  1.5814  0.0988  1.6190
 2305TIP3    H228407   4.540   5.834  11.388 -1.9527 -1.8435  0.4670
 2306TIP3   OH228408   3.583   4.262  10.659  0.6619  0.7510 -0.5229
 2306TIP3    H128409   3.567   4.206  10.735  1.9406  1.5125  0.3328
 2306TIP3    H228410   3.496   4.278  10.622  0.0782 -0.0249  0.4843
 2307TIP3   OH228411   4.439   6.371  10.934  0.3250  0.5241  0.6949
 2307TIP3    H128412   4.353   6.389  10.972 -0.1412 -0.9654  0.3838
 2307TIP3    H228413   4.467   6.455  10.897 -0.8358  1.1101  1.1230
 2308TIP3   OH228414   3.544   2.674  11.023  0.7578 -0.0604 -0.2552
 2308TIP3    H128415   3.638   2.690  11.018  0.7893 -0.1068  0.1677
 2308TIP3    H228416   3.510   2.706  10.939  0.8017  2.3378  0.5894
 2309TIP3   OH228417   4.270   6.755  10.991  0.0407 -0.0087 -0.2169
 2309TIP3    H128418   4.311   6.735  11.075  2.2729  1.6899 -0.8420
 2309TIP3    H228419   4.249   6.848  10.996  0.0766  0.0727 -1.4989
 2310TIP3   OH228420   5.591   5.996  10.388  0.0392 -0.2299  0.3663
 2310TIP3    H128421   5.654   6.069  10.391  0.8138 -0.8605 -0.6614
 2310TIP3    H228422   5.518   6.030  10.337 -0.6594  0.6361  1.8756
 2311TIP3   OH228423   4.607   4.341  12.122  0.5334 -1.6072  0.6473
 2311TIP3    H128424   4.539   4.317  12.185 -2.3631  0.5077 -1.5512
 2311TIP3    H228425   4.654   4.413  12.164 -1.0629 -0.5401  0.6663
 2312TIP3   OH228426   4.263   2.928  10.590 -0.3754  0.4140 -0.2746
 2312TIP3    H128427   4.352   2.962  10.582 -0.1568  0.0474  0.6479
 2312TIP3    H228428   4.267   2.841  10.551 -0.2011  0.1715  0.2867
 2313TIP3   OH228429   3.513   4.269  10.953 -0.1073  0.5772 -0.4015
 2313TIP3    H128430   3.503   4.347  10.899  0.4757  0.4486 -0.7006
 2313TIP3    H228431   3.522   4.303  11.043 -1.5413  0.7663 -0.3142
 2314TIP3   OH228432   6.352   3.693  10.140  0.2318 -0.4716 -0.4237
 2314TIP3    H128433   6.435   3.649  10.119 -0.2115 -0.9279 -1.2425
 2314TIP3    H228434   6.374   3.752  10.212  1.7251  0.8887 -1.9342
 2315TIP3   OH228435   4.619   4.352  10.544 -0.3639  0.1800 -0.6177
 2315TIP3    H128436   4.664   4.353  10.628  3.1118  0.7159 -2.3709
 2315TIP3    H228437   4.564   4.430  10.545  1.0674  1.2070  0.4754
 2316TIP3   OH228438   2.153   4.015  11.573  0.0521 -0.7054  0.3704
 2316TIP3    H128439   2.079   4.071  11.552  0.8171  0.3816  0.5627
 2316TIP3    H228440   2.175   3.971  11.490 -0.6029 -0.7977  0.2459
 2317TIP3   OH228441   4.897   5.850  10.287  0.3001 -0.1906  0.1769
 2317TIP3    H128442   4.923   5.897  10.208  0.4086 -0.2432  0.1801
 2317TIP3    H228443   4.924   5.760  10.271 -0.1672 -0.3093  0.0527
 2318TIP3   OH228444   0.423   3.010  11.008  0.3623 -0.5795  0.1694
 2318TIP3    H128445   0.496   3.068  11.033  1.4792 -1.7930 -0.1887
 2318TIP3    H228446   0.463   2.947  10.948 -1.2279 -0.6383 -0.8446
 2319TIP3   OH228447   4.415   3.690  12.354 -0.7406  0.3417  0.1616
 2319TIP3    H128448   4.459   3.615  12.315 -1.4664  0.6651 -1.2778
 2319TIP3    H228449   4.465   3.707  12.435  0.7269 -0.3558 -0.5827
 2320TIP3   OH228450   5.041   4.496  10.197 -0.7556  0.1750 -0.3846
 2320TIP3    H128451   4.946   4.499  10.197 -0.7839 -0.6628 -1.2432
 2320TIP3    H228452   5.065   4.469  10.109  0.2613 -0.0238 -0.0598
 2321TIP3   OH228453   6.437   2.037  11.233  0.5568  0.3445 -0.1658
 2321TIP3    H128454   6.458   2.104  11.298  0.0430 -1.1985  1.6269
 2321TIP3    H228455   6.519   2.025  11.184  0.5472  2.5433 -0.7973
 2322TIP3   OH228456   3.796   4.064  10.295 -0.4859 -0.1316  0.4406
 2322TIP3    H128457   3.843   4.147  10.289 -0.7272 -0.0104  0.2204
 2322TIP3    H228458   3.723   4.073  10.234  0.4097 -1.1121 -0.8287
 2323TIP3   OH228459   4.296   4.746  10.687 -0.0794 -0.5903 -0.1635
 2323TIP3    H128460   4.331   4.748  10.598  1.1847  1.5860  0.3374
 2323TIP3    H228461   4.314   4.657  10.718 -0.2906 -1.2879 -1.9676
 2324TIP3   OH228462   5.187   6.403  10.359  0.2794  0.1067 -0.5364
 2324TIP3    H128463   5.171   6.316  10.323 -1.1823  0.4267 -0.6915
 2324TIP3    H228464   5.171   6.463  10.286 -0.1916  0.5950 -0.0395
 2325TIP3   OH228465   3.993   3.257  11.103 -0.3185  0.2484  0.4080
 2325TIP3    H128466   3.999   3.174  11.151 -1.0917  0.0098  0.1075
 2325TIP3    H228467   3.931   3.239  11.033 -3.5463  2.1494  2.6343
 2326TIP3   OH228468   4.635   5.211  10.634 -0.8003  0.0870 -0.0071
 2326TIP3    H128469   4.718   5.222  10.681  0.6084 -2.3539 -1.7998
 2326TIP3    H228470   4.568   5.212  10.703  0.7419  1.5556  1.5217
 2327TIP3   OH228471   3.583   4.645  11.726 -0.6525 -0.3415  0.1427
 2327TIP3    H128472   3.678   4.642  11.739 -0.5912  1.2127  0.1321
 2327TIP3    H228473   3.572   4.632  11.632 -0.4336 -0.1454  0.0896
 2328TIP3   OH228474   5.687   3.950  11.591 -0.2465  0.0268  0.8805
 2328TIP3    H128475   5.652   3.890  11.656  0.0102  0.5677  1.5311
 2328TIP3    H228476   5.654   3.918  11.507 -0.2481 -0.9105  1.2383
 2329TIP3   OH228477   5.849   5.439  12.537  0.1328 -0.1050  0.1700
 2329TIP3    H128478   5.919   5.488  12.579  0.3075  0.1374 -0.4004
 2329TIP3    H228479   5.830   5.367  12.598 -1.6670  1.9176  2.1019
 2330TIP3   OH228480   3.100   6.302  12.117 -0.3098  0.5978 -0.3417
 2330TIP3    H128481   3.136   6.386  12.087  0.2698  1.3842  2.4265
 2330TIP3    H228482   3.038   6.326  12.186  0.2726 -1.2554  0.8665
 2331TIP3   OH228483   6.439   2.434  11.547 -0.1034 -0.4662 -0.4935
 2331TIP3    H128484   6.495   2.510  11.528 -0.3043 -0.2215 -0.1115
 2331TIP3    H228485   6.350   2.471  11.552 -0.3531 -0.9062 -1.4568
 2332TIP3   OH228486   4.586   4.185  11.410 -0.0042  0.3975  0.3913
 2332TIP3    H128487   4.627   4.111  11.365  1.1817  0.7918  0.8103
 2332TIP3    H228488   4.498   4.154  11.432 -0.0274 -0.3595 -0.7524
 2333TIP3   OH228489   4.081   4.687  12.999 -0.0228  0.1495 -0.0306
 2333TIP3    H128490   4.032   4.681  13.081  1.7810 -0.3623  1.0267
 2333TIP3    H228491   4.090   4.596  12.970 -3.0945  0.5048 -2.3019
 2334TIP3   OH228492   5.565   5.408  10.736 -0.1256  0.4957  0.7135
 2334TIP3    H128493   5.472   5.416  10.755 -0.1798 -0.0674  0.7049
 2334TIP3    H228494   5.601   5.495  10.752 -0.5783  0.6057  1.1378
 2335TIP3   OH228495   5.701   4.656  11.402  0.0539 -0.1580 -0.6100
 2335TIP3    H128496   5.693   4.722  11.470  3.3287  0.9596 -1.2283
 2335TIP3    H228497   5.691   4.704  11.320  1.3655 -0.5724 -1.0360
 2336TIP3   OH228498   2.713   5.431  10.425  0.5202 -0.1274 -0.5235
 2336TIP3    H128499   2.654   5.453  10.497 -0.0846 -0.1042 -1.0243
 2336TIP3    H228500   2.732   5.338  10.437  0.3581 -0.1422 -0.3842
 2337TIP3   OH228501   5.375   2.767  12.144  0.3863  0.0732  0.5107
 2337TIP3    H128502   5.371   2.718  12.062 -1.0727 -0.8591  1.1141
 2337TIP3    H228503   5.351   2.856  12.121 -2.6512 -0.7354  0.3305
 2338TIP3   OH228504   6.232   4.616  10.973  0.4234 -0.2980 -0.3494
 2338TIP3    H128505   6.266   4.531  10.944  0.3937  0.0073 -1.3194
 2338TIP3    H228506   6.220   4.607  11.067 -0.8830 -1.8285 -0.6496
 2339TIP3   OH228507   3.563   5.236   9.934 -0.7714 -0.6890 -0.3080
 2339TIP3    H128508   3.480   5.231   9.888 -0.3545 -0.7180 -1.0636
 2339TIP3    H228509   3.574   5.328   9.955 -1.2722 -0.7687  0.3033
 2340TIP3   OH228510   4.722   3.738  14.096 -0.9011  0.0045  0.4117
 2340TIP3    H128511   4.806   3.697  14.078 -0.6882 -0.8293  3.0023
 2340TIP3    H228512   4.694   3.775  14.013  0.2562 -2.9455 -1.3587
 2341TIP3   OH228513   5.791   5.523  12.820  0.0525  0.1984 -0.2305
 2341TIP3    H128514   5.862   5.572  12.776 -1.0110  1.2199 -0.8497
 2341TIP3    H228515   5.836   5.461  12.876  1.4717  2.0814  0.7912
 2342TIP3   OH228516   6.078   3.666  10.158  0.1792 -0.9877 -0.0983
 2342TIP3    H128517   6.042   3.744  10.116 -2.9881 -2.1467  0.3344
 2342TIP3    H228518   6.173   3.676  10.149 -0.1960  2.2104 -1.2692
 2343TIP3   OH228519   0.248   2.584  11.476 -0.7210  0.0486  0.1491
 2343TIP3    H128520   0.285   2.538  11.401 -0.5744 -1.8319  1.3281
 2343TIP3    H228521   0.323   2.602  11.533 -1.1870 -1.0255  1.1195
 2344TIP3   OH228522   5.703   3.818  12.093 -0.2727  0.1495 -0.0618
 2344TIP3    H128523   5.622   3.852  12.054 -1.9570 -2.6541  0.8578
 2344TIP3    H228524   5.730   3.747  12.034  0.1209 -0.5711  0.9779
 2345TIP3   OH228525   5.117   3.715  12.622  0.5826  0.0718 -0.1541
 2345TIP3    H128526   5.107   3.693  12.530  1.3131  1.1934 -0.5153
 2345TIP3    H228527   5.079   3.803  12.630  0.0932 -0.2129  0.7122
 2346TIP3   OH228528   5.088   2.660  12.329 -0.1479 -0.4949 -0.3901
 2346TIP3    H128529   5.172   2.615  12.323  0.5347  0.7503 -0.3273
 2346TIP3    H228530   5.096   2.717  12.406 -0.1551  1.3910 -1.7387
 2347TIP3   OH228531   5.512   1.401  11.111  0.3014 -0.2729 -0.2537
 2347TIP3    H128532   5.484   1.396  11.019 -1.6700 -2.4664  0.4238
 2347TIP3    H228533   5.491   1.491  11.137 -1.2607 -0.2973 -1.3243
 2348TIP3   OH228534   4.151   3.158  14.444  0.1351 -0.5805  0.0904
 2348TIP3    H128535   4.207   3.104  14.389  0.6583 -2.2470  2.2261
 2348TIP3    H228536   4.120   3.099  14.513 -1.6012  1.1284  0.8298
 2349TIP3   OH228537   5.778   4.399  12.439  0.2976 -0.1130  0.4707
 2349TIP3    H128538   5.729   4.321  12.465  0.0952 -0.2771 -0.3943
 2349TIP3    H228539   5.710   4.464  12.417  0.4632  0.0410  0.4131
 2350TIP3   OH228540   5.718   5.634  13.616 -0.3422 -0.0931  0.6445
 2350TIP3    H128541   5.733   5.700  13.684 -0.5616  0.8928 -0.2465
 2350TIP3    H228542   5.720   5.683  13.534 -3.0311 -0.7577  0.1241
 2351TIP3   OH228543   4.250   4.937   9.760  0.1963 -0.0172 -0.0282
 2351TIP3    H128544   4.239   4.998   9.686 -3.0447 -0.4678  0.0160
 2351TIP3    H228545   4.268   4.994   9.835 -0.1170  0.7216 -0.4990
 2352TIP3   OH228546   4.072   5.455  10.412  0.0975  0.4352  0.3332
 2352TIP3    H128547   4.011   5.437  10.341  0.1602  0.2562  0.3235
 2352TIP3    H228548   4.104   5.544  10.395  0.5487  0.1816 -0.1866
 2353TIP3   OH228549   3.471   3.368  11.150  0.6779 -0.2558 -0.4341
 2353TIP3    H128550   3.471   3.409  11.237 -0.3563 -0.0883 -0.5037
 2353TIP3    H228551   3.405   3.299  11.157  0.2570  0.0626 -1.2213
 2354TIP3   OH228552   7.284   3.008  12.830  0.1309 -0.3949  0.4346
 2354TIP3    H128553   7.228   3.078  12.797  1.0480  0.4012  0.5585
 2354TIP3    H228554   7.371   3.048  12.837  1.0772 -2.0549 -1.3209
 2355TIP3   OH228555   5.364   6.515  12.633  0.2136 -0.0108 -0.1929
 2355TIP3    H128556   5.366   6.472  12.548 -0.3121 -1.0580  0.3231
 2355TIP3    H228557   5.442   6.571  12.633  1.3142 -1.5280 -0.5636
 2356TIP3   OH228558   5.409   3.567  10.500 -0.0726 -0.3221  0.1416
 2356TIP3    H128559   5.354   3.553  10.423  0.3949 -2.1826  0.1207
 2356TIP3    H228560   5.347   3.593  10.568 -0.8899 -1.5058 -0.1205
 2357TIP3   OH228561   5.397   4.644   9.767  0.2630 -0.2866 -0.5817
 2357TIP3    H128562   5.398   4.549   9.757 -1.3249 -0.3960  0.1097
 2357TIP3    H228563   5.331   4.673   9.704  0.1562  0.2822 -0.2076
 2358TIP3   OH228564   6.266   4.683   9.951 -0.5401  0.3249 -0.4021
 2358TIP3    H128565   6.298   4.749   9.890 -2.5184  1.2357 -0.4920
 2358TIP3    H228566   6.182   4.656   9.914 -1.2232  0.0701  1.3136
 2359TIP3   OH228567   3.796   0.112  11.175 -0.3858  0.3147 -0.4411
 2359TIP3    H128568   3.798   0.174  11.103 -0.8005 -0.7587 -1.3961
 2359TIP3    H228569   3.862   0.046  11.152 -0.8750 -0.3012 -0.1043
 2360TIP3   OH228570   5.869   6.120  10.733 -0.1830 -0.1735  0.5009
 2360TIP3    H128571   5.928   6.125  10.658 -1.0631 -1.0361 -0.2607
 2360TIP3    H228572   5.921   6.152  10.807  0.8234  0.2766 -0.3965
 2361TIP3   OH228573   6.063   3.760  11.637 -0.2670  0.4088 -0.3469
 2361TIP3    H128574   6.032   3.771  11.726  0.6130  0.4902 -0.0462
 2361TIP3    H228575   6.049   3.845  11.595  2.1349  1.2922  0.5956
 2362TIP3   OH228576   4.168   4.033  10.854  0.7150 -0.6497  0.2819
 2362TIP3    H128577   4.145   3.946  10.823  0.0485 -0.6710  0.8123
 2362TIP3    H228578   4.217   4.072  10.782 -3.3502  0.4079 -2.0620
 2363TIP3   OH228579   4.819   5.836  10.836  0.4866 -0.1379  0.3961
 2363TIP3    H128580   4.897   5.784  10.853 -0.1186 -1.2761 -0.2948
 2363TIP3    H228581   4.826   5.861  10.744 -0.2210 -0.6806  0.1920
 2364TIP3   OH228582   5.841   6.805  12.097  0.2826 -0.2207  0.0647
 2364TIP3    H128583   5.866   6.739  12.162 -1.9054 -0.4852  0.6776
 2364TIP3    H228584   5.924   6.836  12.061  1.3741 -3.7774 -0.7028
 2365TIP3   OH228585   4.202   4.463  10.351  0.5054  0.3563 -0.0929
 2365TIP3    H128586   4.141   4.393  10.374  1.0590  0.0743  0.5368
 2365TIP3    H228587   4.166   4.501  10.271 -0.1879 -0.1761 -0.0377
 2366TIP3   OH228588   3.053   2.848  11.241  0.5166  0.3997  0.1919
 2366TIP3    H128589   3.139   2.874  11.207  0.5735 -0.7169 -0.5720
 2366TIP3    H228590   3.073   2.799  11.321  0.7350 -1.2503 -0.8246
 2367TIP3   OH228591   5.667   2.894  11.121 -0.2107  0.2780  0.1590
 2367TIP3    H128592   5.599   2.849  11.071  0.5019  0.1686 -0.7335
 2367TIP3    H228593   5.717   2.943  11.055  1.0864 -0.3022  0.6947
 2368TIP3   OH228594   5.393   4.607  10.960  0.4481 -0.0100 -0.0206
 2368TIP3    H128595   5.458   4.623  10.891  1.4144 -0.6965  0.7291
 2368TIP3    H228596   5.436   4.632  11.041 -0.6363  0.6396  0.3679
 2369TIP3   OH228597   0.458   6.730  11.964 -0.4112 -0.2613  0.2204
 2369TIP3    H128598   0.437   6.771  12.048 -0.0706  0.1095  0.1270
 2369TIP3    H228599   0.453   6.801  11.900 -0.1696 -0.4392  0.0045
 2370TIP3   OH228600   4.762   3.649  10.466 -0.1728 -0.2334 -0.0259
 2370TIP3    H128601   4.856   3.635  10.467 -0.0497  0.5299 -0.9805
 2370TIP3    H228602   4.750   3.740  10.495 -0.5806 -0.1362 -0.4939
 2371TIP3   OH228603   2.966   4.212  10.402  1.0330 -0.0213 -0.4621
 2371TIP3    H128604   3.029   4.209  10.330  1.5131  0.0716 -0.0404
 2371TIP3    H228605   2.908   4.137  10.385  0.8491  0.2799 -1.2118
 2372TIP3   OH228606   5.112   5.407  10.452 -0.0470  0.1458 -0.3196
 2372TIP3    H128607   5.066   5.335  10.496 -1.2400  1.4406  0.6031
 2372TIP3    H228608   5.186   5.365  10.408 -0.2545 -1.5319  0.8833
 2373TIP3   OH228609   3.884   2.625  11.445 -1.1462  0.4651  0.1751
 2373TIP3    H128610   3.978   2.627  11.460 -0.9055  0.7597 -1.3249
 2373TIP3    H228611   3.858   2.717  11.438 -1.3363  0.3424 -0.7050
 2374TIP3   OH228612   3.432   1.594  10.452  0.2828  0.0158  0.4387
 2374TIP3    H128613   3.440   1.547  10.369 -1.2312  1.4170 -0.5310
 2374TIP3    H228614   3.405   1.682  10.427  0.5647  0.6722  2.3882
 2375TIP3   OH228615   5.849   5.799  10.187 -0.7236 -0.0146  0.3443
 2375TIP3    H128616   5.840   5.719  10.136 -2.1961  0.5092 -0.2288
 2375TIP3    H228617   5.765   5.843  10.179 -0.7185  0.4686  2.5639
 2376TIP3   OH228618   4.637   2.198  10.955 -0.3788  0.2828  0.5259
 2376TIP3    H128619   4.557   2.235  10.992 -1.3967 -0.5282 -0.8294
 2376TIP3    H228620   4.607   2.125  10.901  1.0615  1.3611 -1.8114
 2377TIP3   OH228621   5.247   4.404  11.139 -0.3963  0.4011  0.1423
 2377TIP3    H128622   5.321   4.346  11.156 -0.1654 -0.0342 -2.1641
 2377TIP3    H228623   5.244   4.463  11.215  0.6818 -1.2418  1.5031
 2378TIP3   OH228624   3.395   6.983  12.469  0.3067  0.0269 -0.1844
 2378TIP3    H128625   3.315   6.949  12.509  1.0692 -1.8935 -0.2369
 2378TIP3    H228626   3.368   7.010  12.381 -0.2140 -0.9473 -0.3284
 2379TIP3   OH228627   6.160   0.207  11.820 -0.7640  0.0405 -0.1554
 2379TIP3    H128628   6.255   0.213  11.830 -0.6324  0.3319 -1.4558
 2379TIP3    H228629   6.126   0.250  11.898  0.2039  2.6561 -1.1108
 2380TIP3   OH228630   6.601   5.966  14.136  0.2269  0.9920  0.8654
 2380TIP3    H128631   6.609   5.960  14.040 -2.3696 -0.9305  0.7287
 2380TIP3    H228632   6.676   5.916  14.169  0.1676  0.1857 -0.1860
 2381TIP3   OH228633   6.606   2.587  11.283 -0.7039 -0.0913  0.1492
 2381TIP3    H128634   6.673   2.532  11.243  0.4431  2.3940 -1.4190
 2381TIP3    H228635   6.640   2.606  11.371  0.0631  0.1655 -0.2037
 2382TIP3   OH228636   3.040   4.964  11.635 -0.4493  0.1342 -0.5272
 2382TIP3    H128637   3.081   4.881  11.611  1.5419  0.7646  0.6125
 2382TIP3    H228638   3.071   5.026  11.569  0.4223  0.6038  0.3115
 2383TIP3   OH228639   0.683   7.221  11.761 -0.9193  0.3148  0.4031
 2383TIP3    H128640   0.708   7.131  11.785  2.0779  1.0304  0.1775
 2383TIP3    H228641   0.631   7.211  11.682  2.5856 -1.0440 -1.8404
 2384TIP3   OH228642   5.246   4.482  10.691  0.0883  0.2316 -0.1138
 2384TIP3    H128643   5.222   4.517  10.606 -0.3336 -2.4641 -1.1515
 2384TIP3    H228644   5.333   4.444  10.678  0.4711  0.7348  0.9317
 2385TIP3   OH228645   6.415   3.601  11.839  0.2355  0.0813  0.0525
 2385TIP3    H128646   6.376   3.531  11.891  1.1695  0.1607  0.8872
 2385TIP3    H228647   6.342   3.657  11.815 -0.1800  0.2440  1.6082
 2386TIP3   OH228648   4.898   5.657  11.199  0.5413 -0.7592  0.2535
 2386TIP3    H128649   4.963   5.726  11.180 -0.0682  0.2189  1.6501
 2386TIP3    H228650   4.815   5.695  11.169 -0.2679  0.3621  3.7010
 2387TIP3   OH228651   3.900   5.505  10.185  0.2404 -0.4518 -0.4708
 2387TIP3    H128652   3.827   5.564  10.167  0.1561 -0.8175 -1.3633
 2387TIP3    H228653   3.978   5.555  10.159  0.2219 -0.4725 -0.5689
 2388TIP3   OH228654   5.145   4.228  10.563 -0.4909  0.3241  0.1035
 2388TIP3    H128655   5.211   4.231  10.494 -0.8005 -1.0772 -0.2661
 2388TIP3    H228656   5.070   4.274  10.526 -0.5651 -0.1964 -0.4019
 2389TIP3   OH228657   4.693   5.218  10.157  0.0909 -0.1825 -0.4710
 2389TIP3    H128658   4.709   5.243  10.066 -0.8218  0.0231 -0.5781
 2389TIP3    H228659   4.727   5.290  10.209 -3.3177  1.7418 -0.7999
 2390TIP3   OH228660   5.302   5.456  11.370  0.8206  0.2053 -0.7341
 2390TIP3    H128661   5.260   5.501  11.296 -0.1929 -1.5035 -1.2361
 2390TIP3    H228662   5.230   5.437  11.430  1.3758  0.0010 -0.1289
 2391TIP3   OH228663   4.687   3.919  10.500 -0.1905 -0.2142  0.4966
 2391TIP3    H128664   4.603   3.886  10.534 -0.1616  0.2279  1.0020
 2391TIP3    H228665   4.692   4.009  10.532 -1.2232  1.0064 -2.5926
 2392TIP3   OH228666   6.554   3.278  11.401  0.4016  0.3254 -0.1314
 2392TIP3    H128667   6.460   3.262  11.392  0.7592 -0.5262 -2.6508
 2392TIP3    H228668   6.589   3.196  11.436  0.4032  0.1997 -0.4316
 2393TIP3   OH228669   4.327   4.160  10.084  0.3368 -0.5021  0.9890
 2393TIP3    H128670   4.343   4.189  10.173 -1.0563  1.0785  0.7604
 2393TIP3    H228671   4.238   4.124  10.086  0.6159 -1.2355  0.4286
 2394TIP3   OH228672   5.303   5.688  12.683  0.0192  0.3955  0.3108
 2394TIP3    H128673   5.245   5.752  12.723 -0.2864 -0.0300  0.5511
 2394TIP3    H228674   5.251   5.608  12.678  0.3365  0.2164 -0.1605
 2395TIP3   OH228675   6.642   3.530  11.372 -0.0466 -0.8461 -0.0026
 2395TIP3    H128676   6.627   3.435  11.375 -1.6055 -0.6554 -1.2014
 2395TIP3    H228677   6.734   3.539  11.350 -0.2878 -2.0957 -1.5929
 2396TIP3   OH228678   6.559   4.978  11.308  0.2289  0.0793 -0.9411
 2396TIP3    H128679   6.514   5.003  11.388 -2.1897 -0.6350 -2.0318
 2396TIP3    H228680   6.606   4.898  11.331  0.9765  0.8435  0.2263
 2397TIP3   OH228681   4.042   4.719  10.523 -0.0325 -0.2132 -0.0290
 2397TIP3    H128682   4.077   4.804  10.550  0.0349 -1.2221  3.3465
 2397TIP3    H228683   4.116   4.672  10.486  0.4925  0.3046  0.3660
 2398TIP3   OH228684   3.074   3.144  11.605  0.3536  0.0887 -0.7432
 2398TIP3    H128685   3.075   3.193  11.523 -1.2663  0.7778 -0.3825
 2398TIP3    H228686   2.982   3.117  11.616  0.9703 -1.9085 -0.2736
 2399TIP3   OH228687   5.789   5.170  10.761 -0.0601 -0.0926  0.0789
 2399TIP3    H128688   5.814   5.259  10.735  0.1817 -0.2322 -0.1674
 2399TIP3    H228689   5.721   5.145  10.699  1.1158 -0.7483 -0.9729
 2400TIP3   OH228690   6.321   5.148  12.317 -0.1073  0.3022 -0.3568
 2400TIP3    H128691   6.267   5.082  12.274 -0.3581  0.5754 -0.4621
 2400TIP3    H228692   6.290   5.149  12.407 -0.0774  0.2513 -0.3455
 2401TIP3   OH228693   5.994   4.518  12.555  0.2440  0.4778 -0.2010
 2401TIP3    H128694   5.958   4.580  12.619  0.2257 -1.0472  1.3092
 2401TIP3    H228695   5.919   4.465  12.528  0.6152 -0.1979  0.0650
 2402TIP3   OH228696   5.261   4.490  10.369  0.2720  0.4484 -0.3632
 2402TIP3    H128697   5.200   4.464  10.300  0.5755  1.3054 -0.9509
 2402TIP3    H228698   5.273   4.584  10.357  2.5433  0.1014 -0.8961
 2403TIP3   OH228699   4.889   2.794  14.902 -0.6361  0.0856 -0.6698
 2403TIP3    H128700   4.909   2.769  14.812  0.0380 -1.2835 -0.1545
 2403TIP3    H228701   4.966   2.768  14.952 -1.1815  0.4357  0.3726
 2404TIP3   OH228702   5.050   4.660  11.016  0.2766 -0.2428 -0.1576
 2404TIP3    H128703   4.970   4.665  10.964  0.2221 -0.4696 -0.0922
 2404TIP3    H228704   5.024   4.616  11.096  0.4214 -0.1297 -0.0493
 2405TIP3   OH228705   6.797   5.149  10.976  0.0103  0.3058 -0.0666
 2405TIP3    H128706   6.780   5.171  10.884  1.3864  0.2068 -0.3532
 2405TIP3    H228707   6.726   5.090  11.000 -0.8503  1.0307 -0.8082
 2406TIP3   OH228708   5.594   4.878  10.771  0.1737  0.3356  0.2021
 2406TIP3    H128709   5.687   4.889  10.788 -0.0120  1.6677  0.4151
 2406TIP3    H228710   5.550   4.914  10.848 -0.5240 -0.2274  0.0809
 2407TIP3   OH228711   7.164   4.077  11.179  0.2132  0.0404  0.0008
 2407TIP3    H128712   7.221   4.001  11.191 -2.3864 -1.6058  2.3550
 2407TIP3    H228713   7.216   4.151  11.211  1.6759 -1.1346  0.3987
 2408TIP3   OH228714   7.281   5.352   9.892  0.1587 -0.1647  0.2383
 2408TIP3    H128715   7.308   5.279   9.946  0.1132  0.4299  1.0716
 2408TIP3    H228716   7.361   5.382   9.848  0.3727 -0.0412  0.7132
 2409TIP3   OH228717   5.784   6.326  11.570 -0.2962  0.2717  0.1917
 2409TIP3    H128718   5.872   6.318  11.533 -0.9733 -1.2500 -1.1451
 2409TIP3    H228719   5.736   6.250  11.536 -2.1754  1.1564  0.7737
 2410TIP3   OH228720   1.273   2.597  10.313 -0.1162 -0.2345 -0.1978
 2410TIP3    H128721   1.308   2.531  10.373 -0.0362  1.3091  1.4872
 2410TIP3    H228722   1.348   2.651  10.289 -0.1685 -0.7827 -1.6393
 2411TIP3   OH228723   5.659   5.581  11.047  0.4962  0.1282  0.7747
 2411TIP3    H128724   5.709   5.544  10.973 -0.3440  1.9402 -0.7227
 2411TIP3    H228725   5.725   5.597  11.114  2.2746  3.7784 -1.6692
 2412TIP3   OH228726   0.607   5.664  10.847 -0.0066  0.4703  0.0784
 2412TIP3    H128727   0.579   5.646  10.936  0.0187  1.7002  0.3499
 2412TIP3    H228728   0.553   5.608  10.792 -1.2518  0.9986  0.7572
 2413TIP3   OH228729   5.394   3.788  12.644  0.1910  0.4165 -0.1197
 2413TIP3    H128730   5.302   3.762  12.644 -0.1379  1.5415 -0.0967
 2413TIP3    H228731   5.430   3.753  12.725  0.0656 -0.9698 -0.6474
 2414TIP3   OH228732   6.363   4.832  10.907 -0.0480 -0.0884 -0.7132
 2414TIP3    H128733   6.281   4.875  10.882 -0.2501  0.4166  0.7957
 2414TIP3    H228734   6.340   4.739  10.912 -0.8126  0.1589  0.7565
 2415TIP3   OH228735   4.058   4.226  10.427 -0.7110 -0.1944  0.4250
 2415TIP3    H128736   4.094   4.138  10.438 -0.1873  0.1177  1.2737
 2415TIP3    H228737   3.995   4.235  10.498  0.3651  0.6740  1.3018
 2416TIP3   OH228738   0.455   4.498  10.827 -0.2510 -0.0445  0.2733
 2416TIP3    H128739   0.527   4.556  10.801  0.9137 -1.3007  0.6007
 2416TIP3    H228740   0.448   4.435  10.754 -0.7638 -0.1574  0.4188
 2417TIP3   OH228741   7.047   4.871  11.550  0.0904 -0.3322  0.8236
 2417TIP3    H128742   7.060   4.805  11.618  0.7394  0.4530  1.4696
 2417TIP3    H228743   7.133   4.884  11.512 -0.5346 -1.9057 -1.2517
 2418TIP3   OH228744   5.932   5.319  10.450  0.4113  0.1244  0.4380
 2418TIP3    H128745   5.926   5.356  10.538 -1.3658 -2.5075  1.4847
 2418TIP3    H228746   5.844   5.326  10.414  0.0073 -2.9083  0.6574
 2419TIP3   OH228747   4.291   3.209  13.016  0.4133  0.1882  0.0990
 2419TIP3    H128748   4.287   3.263  13.095  0.6096  0.6699 -0.2160
 2419TIP3    H228749   4.352   3.140  13.037  1.2850  0.9215  0.0090
 2420TIP3   OH228750   5.732   4.379  11.372  0.6153  0.5355  0.0078
 2420TIP3    H128751   5.712   4.468  11.403  0.6402  0.3841  0.4656
 2420TIP3    H228752   5.818   4.387  11.331  0.1850  0.9308 -0.8426
 2421TIP3   OH228753   5.336   4.207  11.983 -0.2191 -0.3047 -0.3289
 2421TIP3    H128754   5.340   4.148  11.907 -1.4068  0.4149 -0.9568
 2421TIP3    H228755   5.329   4.294  11.945  1.5359  0.2720  0.6123
 2422TIP3   OH228756   7.270   5.651  10.790  0.0367 -0.7125  0.1056
 2422TIP3    H128757   7.236   5.587  10.852 -2.9340  1.4155  0.7498
 2422TIP3    H228758   7.281   5.731  10.842  2.1692 -0.2197 -1.0431
 2423TIP3   OH228759   5.348   6.267  10.683  0.3383  0.5936  0.1453
 2423TIP3    H128760   5.377   6.317  10.606 -0.5021  1.3463  0.3065
 2423TIP3    H228761   5.356   6.175  10.657  2.7014  0.7738  0.1312
 2424TIP3   OH228762   5.782   6.103  10.058  0.2889 -0.2245  0.3498
 2424TIP3    H128763   5.832   6.039  10.007  0.7554  0.8105 -0.5018
 2424TIP3    H228764   5.692   6.070  10.056  0.9130 -2.2106  2.0626
 2425TIP3   OH228765   5.767   5.582  10.017  0.4904 -0.2421  0.1453
 2425TIP3    H128766   5.697   5.637  10.051 -2.1679 -0.6786 -4.1741
 2425TIP3    H228767   5.733   5.493  10.022  1.7442 -0.7205  0.3022
 2426TIP3   OH228768   6.901   4.503  13.319  0.0303 -0.3082 -0.5753
 2426TIP3    H128769   6.911   4.512  13.413  1.0212 -1.4993 -0.5597
 2426TIP3    H228770   6.894   4.593  13.287  1.9937  0.2221  0.3993
 2427TIP3   OH228771   6.120   2.550  11.393 -0.2177 -0.0001 -0.4361
 2427TIP3    H128772   6.189   2.536  11.328  0.6462 -0.5349  0.5772
 2427TIP3    H228773   6.089   2.639  11.377  1.0582  0.4275 -0.5991
 2428TIP3   OH228774   5.780   4.246  10.740  0.1625  0.3159 -0.2199
 2428TIP3    H128775   5.698   4.222  10.696 -0.3419  0.8484  0.4050
 2428TIP3    H228776   5.845   4.247  10.670 -0.2400 -0.6979 -0.6217
 2429TIP3   OH228777   0.887   6.221  11.954 -0.3899  0.3538 -0.2746
 2429TIP3    H128778   0.806   6.195  11.997 -0.1300 -0.6699 -0.4030
 2429TIP3    H228779   0.876   6.195  11.863  0.2426 -0.1501 -0.2084
 2430TIP3   OH228780   0.410   3.763  12.832  0.1823 -0.3453  0.2173
 2430TIP3    H128781   0.464   3.687  12.851  1.2626  0.6137  1.0439
 2430TIP3    H228782   0.472   3.834  12.816 -0.7989  0.2582 -1.0620
 2431TIP3   OH228783   5.626   6.315  12.291  0.2579 -0.4697 -0.3560
 2431TIP3    H128784   5.684   6.357  12.228  1.3606 -0.6768  0.5116
 2431TIP3    H228785   5.564   6.385  12.317  1.1079  0.1930 -0.0894
 2432TIP3   OH228786   6.178   5.161  10.677  0.2087  0.6046  0.1415
 2432TIP3    H128787   6.256   5.164  10.732  1.3651 -0.5987 -1.4047
 2432TIP3    H228788   6.200   5.215  10.601  0.5883 -1.9477 -1.6125
 2433TIP3   OH228789   0.483   6.528  10.472 -0.1249  0.3513  0.1299
 2433TIP3    H128790   0.463   6.455  10.530  1.0514 -0.1130 -0.0501
 2433TIP3    H228791   0.511   6.488  10.390  1.6418  0.9899  0.4068
 2434TIP3   OH228792   6.557   7.209  10.835  0.2523 -0.2936 -0.5110
 2434TIP3    H128793   6.583   7.260  10.759 -0.1595 -0.6945 -0.9251
 2434TIP3    H228794   6.634   7.208  10.892 -0.2798  2.2486  0.3102
 2435TIP3   OH228795   5.054   6.428  10.613 -0.2256 -0.0808  0.6070
 2435TIP3    H128796   5.048   6.335  10.635 -0.0598 -0.0996  0.5711
 2435TIP3    H228797   5.116   6.432  10.540 -2.5247 -0.2972 -1.4370
 2436TIP3   OH228798   6.809   4.876  10.665 -0.0548 -0.4571  0.4412
 2436TIP3    H128799   6.873   4.903  10.731  1.4000  0.0657 -1.1439
 2436TIP3    H228800   6.840   4.916  10.583 -1.8976 -0.9630 -0.5423
 2437TIP3   OH228801   6.663   3.392  10.261  0.5973 -0.1770  0.0530
 2437TIP3    H128802   6.751   3.356  10.255  0.8549  0.2286  1.4948
 2437TIP3    H228803   6.611   3.336  10.202  1.8573 -0.2163 -1.0448
 2438TIP3   OH228804   6.274   3.330   9.916  0.1411 -0.4352  0.3165
 2438TIP3    H128805   6.189   3.298   9.946 -0.2086 -0.6599 -0.8584
 2438TIP3    H228806   6.306   3.261   9.859 -0.2967  0.9510 -1.6806
 2439TIP3   OH228807   6.155   3.452  13.409  0.1538 -0.8014 -0.4968
 2439TIP3    H128808   6.226   3.405  13.365  1.6133 -0.2421  1.2186
 2439TIP3    H228809   6.148   3.535  13.360 -0.0062 -1.2736 -1.2865
 2440TIP3   OH228810   0.458   4.903  11.839  0.1587 -0.2972 -0.1614
 2440TIP3    H128811   0.474   4.973  11.777  1.1586 -0.5912 -0.2337
 2440TIP3    H228812   0.520   4.834  11.815  0.4433 -0.4769  1.0440
 2441TIP3   OH228813   6.043   5.916  10.344  0.0196  0.1222 -0.1238
 2441TIP3    H128814   6.028   6.000  10.300  2.5912 -0.0193 -1.3673
 2441TIP3    H228815   6.029   5.850  10.276 -0.8352 -0.4062  0.5509
 2442TIP3   OH228816   5.321   4.436  11.855  0.4686  0.0367 -0.3633
 2442TIP3    H128817   5.377   4.511  11.833  1.1601 -0.4202 -0.1835
 2442TIP3    H228818   5.234   4.462  11.827  0.8820  0.5146 -1.2198
 2443TIP3   OH228819   6.276   4.089  10.633  0.2125  0.3146 -1.1532
 2443TIP3    H128820   6.231   4.172  10.614  2.4348  2.3450  1.9298
 2443TIP3    H228821   6.368   4.107  10.613  1.1800 -0.3704  2.3469
 2444TIP3   OH228822   5.280   4.069  10.232  0.3789  0.0744  0.0811
 2444TIP3    H128823   5.230   3.988  10.223  0.3488  0.2258 -1.2762
 2444TIP3    H228824   5.303   4.093  10.142  0.8722  1.2648  0.5119
 2445TIP3   OH228825   6.264   3.349  10.516 -0.2546 -0.2576 -0.2629
 2445TIP3    H128826   6.275   3.313  10.428  0.0045 -0.8428  0.0040
 2445TIP3    H228827   6.235   3.439  10.502 -1.1679 -0.6444 -0.9398
 2446TIP3   OH228828   0.423   6.145  11.041 -0.1062  0.4287 -1.0160
 2446TIP3    H128829   0.333   6.121  11.060  0.6723 -3.0770 -1.3610
 2446TIP3    H228830   0.471   6.124  11.122  0.3061  3.0519 -0.5370
 2447TIP3   OH228831   5.273   4.511  11.379 -0.7516  0.3184  0.3677
 2447TIP3    H128832   5.197   4.492  11.435 -1.1017  1.4643  0.3045
 2447TIP3    H228833   5.280   4.607  11.380  0.6451  0.2289  0.2953
 2448TIP3   OH228834   6.283   6.182   9.796 -0.1636 -0.4819 -0.2515
 2448TIP3    H128835   6.238   6.147   9.719 -0.1271 -1.6127  0.2317
 2448TIP3    H228836   6.228   6.255   9.824 -0.1626 -0.0419 -1.3564
 2449TIP3   OH228837   6.763   5.505   9.897  0.3499 -0.2540 -0.4769
 2449TIP3    H128838   6.770   5.590   9.855  2.0678  2.0984  4.2860
 2449TIP3    H228839   6.848   5.464   9.882  0.8874  0.4940  0.4947
 2450TIP3   OH228840   0.506   3.043  12.190  0.7015  0.2512  0.5008
 2450TIP3    H128841   0.463   3.091  12.119 -0.5019 -2.2143 -0.4805
 2450TIP3    H228842   0.592   3.020  12.154  0.8173  0.6105  0.5397
 2451TIP3   OH228843   6.395   3.569  11.035  0.3561  0.4961 -0.2609
 2451TIP3    H128844   6.447   3.597  10.959 -1.1025 -0.5972 -1.6935
 2451TIP3    H228845   6.363   3.482  11.012 -0.2690  0.2164  1.5466
 2452TIP3   OH228846   6.670   3.772  12.419  0.3984  0.0138  0.0536
 2452TIP3    H128847   6.635   3.746  12.335  0.2864 -0.2458  0.1813
 2452TIP3    H228848   6.597   3.763  12.481 -0.2408  2.5678 -0.2495
 2453TIP3   OH228849   7.244   4.999  13.176 -0.0430 -0.4037 -0.1780
 2453TIP3    H128850   7.302   4.927  13.198  1.3880  0.7086 -0.2095
 2453TIP3    H228851   7.163   4.981  13.225  0.1504 -2.1942 -0.4849
 2454TIP3   OH228852   6.740   4.720  10.434  0.1380 -0.0900 -0.0693
 2454TIP3    H128853   6.765   4.784  10.500 -0.0300  0.2954 -0.3741
 2454TIP3    H228854   6.772   4.757  10.351  0.6248 -0.7171 -0.1669
 2455TIP3   OH228855   0.062   2.864  10.680  0.3751 -0.5893  0.0892
 2455TIP3    H128856   0.090   2.940  10.732  1.5811 -0.7096 -0.3659
 2455TIP3    H228857   0.002   2.901  10.616  1.2219  0.0597 -0.3523
 2456TIP3   OH228858   5.647   4.297  10.077  0.3723  0.0751 -0.4007
 2456TIP3    H128859   5.652   4.309   9.982 -1.5574  0.2662 -0.4989
 2456TIP3    H228860   5.662   4.203  10.090  0.3184 -0.0101 -0.9298
 2457TIP3   OH228861   5.340   3.057  11.119  0.3376  0.1438 -0.4874
 2457TIP3    H128862   5.255   3.082  11.082 -0.8610 -0.1957  1.9795
 2457TIP3    H228863   5.366   2.979  11.070 -1.0863 -0.1366 -0.7993
 2458TIP3   OH228864   5.965   2.340  11.168 -0.0828  0.3040 -0.4997
 2458TIP3    H128865   5.919   2.406  11.116  0.3020 -0.4943 -1.8597
 2458TIP3    H228866   5.989   2.387  11.248 -2.0145  1.1194 -0.3592
 2459TIP3   OH228867   6.295   4.379  11.267 -0.1984 -0.0393 -0.1619
 2459TIP3    H128868   6.225   4.385  11.332  0.7444 -1.3206  0.9880
 2459TIP3    H228869   6.335   4.466  11.268  0.0363 -0.1480  1.2531
 2460TIP3   OH228870   6.972   1.079  11.421  0.1697 -0.5975 -0.2092
 2460TIP3    H128871   6.878   1.094  11.424 -0.0607 -1.7264 -1.6704
 2460TIP3    H228872   7.000   1.113  11.337  1.2991  0.8990  0.7423
 2461TIP3   OH228873   5.630   2.283  11.436  0.4513  0.2121  0.3747
 2461TIP3    H128874   5.652   2.206  11.384  1.1669  0.4961  0.2443
 2461TIP3    H228875   5.650   2.259  11.526  0.0823  0.0320  0.4074
 2462TIP3   OH228876   4.080   4.528  10.073 -0.1655  0.3240  0.1022
 2462TIP3    H128877   4.140   4.469  10.029  1.1071 -0.3050  2.5553
 2462TIP3    H228878   4.086   4.610  10.025  3.7093  0.6890  1.0321
 2463TIP3   OH228879   1.357   4.340  10.884 -0.5055 -0.1202  0.4318
 2463TIP3    H128880   1.329   4.338  10.792  0.1868  1.3378  0.1753
 2463TIP3    H228881   1.282   4.375  10.931 -0.7713 -0.6286  0.3891
 2464TIP3   OH228882   6.926   4.190  11.731 -0.1131 -0.5978 -0.0986
 2464TIP3    H128883   6.949   4.115  11.675  2.3791 -1.7191  2.3008
 2464TIP3    H228884   6.860   4.155  11.791 -0.8938 -0.0953 -0.6433
 2465TIP3   OH228885   5.537   5.523  10.292  0.4392  0.0112 -0.2586
 2465TIP3    H128886   5.473   5.566  10.349  0.6637  0.8006 -0.5992
 2465TIP3    H228887   5.569   5.593  10.235 -0.3123 -0.9223 -1.8446
 2466TIP3   OH228888   5.034   4.772  10.517 -0.1071  0.4652 -0.2645
 2466TIP3    H128889   5.119   4.752  10.477  0.0747  0.9527 -0.1274
 2466TIP3    H228890   5.056   4.820  10.596 -0.5077  0.3918 -0.1063
 2467TIP3   OH228891   5.746   4.597  10.636 -0.5393 -0.3429 -0.2712
 2467TIP3    H128892   5.807   4.671  10.634  1.3663 -1.9100 -1.0282
 2467TIP3    H228893   5.780   4.539  10.704 -1.9514 -0.6251  0.2203
 2468TIP3   OH228894   0.185   3.072  13.296  0.5465  0.2851 -0.3337
 2468TIP3    H128895   0.231   3.044  13.217  0.6426  1.2192 -0.6131
 2468TIP3    H228896   0.097   3.094  13.265  0.6576  0.8848 -0.2221
 2469TIP3   OH228897   6.261   6.226  10.108 -0.7716 -0.5663 -0.3818
 2469TIP3    H128898   6.338   6.271  10.073  0.8014 -3.4713 -0.8120
 2469TIP3    H228899   6.235   6.278  10.185  2.5718 -0.4066  0.6952
 2470TIP3   OH228900   0.772   2.103  11.590 -0.8940 -0.7285  0.5814
 2470TIP3    H128901   0.690   2.145  11.566  0.1727 -0.1844 -2.4233
 2470TIP3    H228902   0.788   2.130  11.680 -2.3406  1.9337  0.1006
 2471TIP3   OH228903   5.462   5.874  11.457  0.1926 -0.0610 -0.2483
 2471TIP3    H128904   5.392   5.887  11.521  2.4850 -0.3073  2.4008
 2471TIP3    H228905   5.476   5.779  11.456  1.9834  0.1816  0.9044
 2472TIP3   OH228906   4.542   3.126  12.738  0.4062 -0.0495 -0.4106
 2472TIP3    H128907   4.504   3.040  12.750 -0.3458  0.6265  2.5902
 2472TIP3    H228908   4.468   3.187  12.747  1.5318  1.0785  1.6946
 2473TIP3   OH228909   7.043   2.155  10.721  0.4440  0.3517  0.5916
 2473TIP3    H128910   6.967   2.176  10.775 -0.2971 -0.4164 -0.1396
 2473TIP3    H228911   7.057   2.233  10.668 -1.3809 -0.4148 -1.0517
 2474TIP3   OH228912   6.881   5.247  10.367 -0.4855  0.2207 -0.3062
 2474TIP3    H128913   6.812   5.180  10.369 -0.9332  0.6498 -1.0143
 2474TIP3    H228914   6.868   5.292  10.283  1.3556 -0.4394 -0.9722
 2475TIP3   OH228915   6.077   3.627  11.411  0.0874  0.0684  0.1144
 2475TIP3    H128916   6.168   3.616  11.387  0.0481  1.5336 -0.7883
 2475TIP3    H228917   6.079   3.678  11.492  0.0338  2.2689 -1.2355
 2476TIP3   OH228918   6.828   4.767  11.087 -0.2422  0.0099 -0.3836
 2476TIP3    H128919   6.735   4.759  11.065 -0.4942  0.1680  0.6235
 2476TIP3    H228920   6.851   4.683  11.126  0.2257 -0.2918 -1.3020
 2477TIP3   OH228921   5.696   3.108   9.840 -0.0720 -0.1354 -0.4774
 2477TIP3    H128922   5.714   3.184   9.785  1.1025  0.9468  1.3934
 2477TIP3    H228923   5.615   3.130   9.886 -0.0269 -0.2554 -0.3411
 2478TIP3   OH228924   6.697   4.089   9.932 -0.2039 -0.2214  0.6576
 2478TIP3    H128925   6.716   4.183   9.934  1.4619 -0.5542  0.4315
 2478TIP3    H228926   6.748   4.056   9.858  1.9565 -1.9178  2.8706
 2479TIP3   OH228927   4.926   2.649  13.129 -0.3640 -0.5581 -0.2734
 2479TIP3    H128928   4.929   2.583  13.199 -0.7161  0.1579  0.4251
 2479TIP3    H228929   4.841   2.692  13.141 -0.0884  0.0965 -0.6590
 2480TIP3   OH228930   7.032   5.949  10.599 -0.0610 -0.3647  0.3887
 2480TIP3    H128931   7.101   5.904  10.549  0.4924 -0.3395  1.1114
 2480TIP3    H228932   6.962   5.884  10.607 -1.1799  0.4194 -2.4643
 2481TIP3   OH228933   6.871   5.072  11.554  0.1799 -0.3375  0.5558
 2481TIP3    H128934   6.799   5.019  11.588  0.6255 -1.4825 -0.2458
 2481TIP3    H228935   6.947   5.014  11.558  0.9272  0.6535  0.8173
 2482TIP3   OH228936   0.566   4.429  11.084  0.2618 -0.3212  0.3636
 2482TIP3    H128937   0.572   4.334  11.070  0.8695 -0.1617 -0.4943
 2482TIP3    H228938   0.538   4.464  10.999  1.2764  0.3905  0.3140
 2483TIP3   OH228939   7.260   5.585  10.526  0.4717  0.6267 -0.5818
 2483TIP3    H128940   7.335   5.526  10.522 -0.6099 -0.8589  0.4406
 2483TIP3    H228941   7.247   5.599  10.620 -1.4302 -0.3307 -0.6874
 2484TIP3   OH228942   0.045   5.663  11.305 -0.0291  0.3489  0.0504
 2484TIP3    H128943   0.065   5.606  11.379 -0.3691  0.1045 -0.0428
 2484TIP3    H228944   0.130   5.697  11.278  0.2488 -0.5580 -0.2474
 2485TIP3   OH228945   6.111   5.884  10.719 -0.4701 -0.5052 -0.1375
 2485TIP3    H128946   6.074   5.940  10.652 -2.2470 -0.1383  1.1327
 2485TIP3    H228947   6.119   5.798  10.677  0.2016  0.1596 -1.3912
 2486TIP3   OH228948   6.628   5.305  11.328  0.5642 -0.2222  0.4751
 2486TIP3    H128949   6.662   5.218  11.306  1.2487  0.1805 -0.0560
 2486TIP3    H228950   6.622   5.305  11.423  0.0824 -1.0324  0.4517
 2487TIP3   OH228951   5.563   6.564  10.500 -0.4101 -0.1376 -0.4104
 2487TIP3    H128952   5.506   6.629  10.459 -0.9606  0.2579  0.9650
 2487TIP3    H228953   5.530   6.480  10.469 -1.4516  0.1120 -0.0232
 2488TIP3   OH228954   6.924   2.543  11.755 -0.2409 -0.0192 -0.3344
 2488TIP3    H128955   6.876   2.469  11.717 -0.4625  0.3887 -0.8479
 2488TIP3    H228956   6.999   2.556  11.697 -0.7619  0.8176 -0.8368
 2489TIP3   OH228957   6.238   6.489  10.350 -0.1270  0.3841  0.1156
 2489TIP3    H128958   6.301   6.422  10.377 -0.1445  0.0767 -0.5968
 2489TIP3    H228959   6.168   6.484  10.415 -0.4195 -0.7095 -0.2646
 2490TIP3   OH228960   6.756   2.386  11.108 -0.7144 -0.0426  0.8699
 2490TIP3    H128961   6.835   2.336  11.127  0.3036  0.0334 -2.7472
 2490TIP3    H228962   6.689   2.320  11.091 -0.4135 -0.1540  0.1024
 2491TIP3   OH228963   0.561   5.192  10.616  0.2237 -0.2583 -0.0976
 2491TIP3    H128964   0.556   5.186  10.712  0.6318 -0.9272 -0.1138
 2491TIP3    H228965   0.474   5.221  10.590 -0.3796 -1.5529  0.3851
 2492TIP3   OH228966   4.865   6.195  11.013 -0.3811 -0.1729  0.0930
 2492TIP3    H128967   4.860   6.109  10.970 -0.8812 -0.9657  1.7016
 2492TIP3    H228968   4.775   6.214  11.040 -0.0246  0.1387  1.0957
 2493TIP3   OH228969   6.022   5.447   9.731  0.1456 -0.0760 -1.0872
 2493TIP3    H128970   6.107   5.414   9.762 -0.2894 -0.0766  0.1578
 2493TIP3    H228971   5.964   5.371   9.736 -0.7538  0.7344  1.3765
 2494TIP3   OH228972   6.251   5.941  10.077 -0.2162  0.2060  0.0237
 2494TIP3    H128973   6.160   5.925  10.052 -0.6558  0.7911  1.2059
 2494TIP3    H228974   6.263   6.035  10.065  0.2561  0.1126 -0.2261
 2495TIP3   OH228975   4.882   4.155  11.667 -0.6509 -0.6574  0.4046
 2495TIP3    H128976   4.939   4.155  11.744  1.0641 -0.4325 -0.8111
 2495TIP3    H228977   4.902   4.073  11.622  0.6061  0.5481 -1.3377
 2496TIP3   OH228978   5.793   7.144  10.801  0.3615 -0.3652 -0.0550
 2496TIP3    H128979   5.733   7.083  10.758 -1.1145 -1.3719  3.2582
 2496TIP3    H228980   5.794   7.116  10.892  1.0151  3.5513  1.2169
 2497TIP3   OH228981   7.042   3.426  12.261 -0.0934 -0.6756  0.1238
 2497TIP3    H128982   7.014   3.341  12.227  1.0835 -1.1976  0.4287
 2497TIP3    H228983   6.994   3.490  12.208 -1.0393 -1.5282 -0.0665
 2498TIP3   OH228984   5.951   3.757  11.198 -0.0855  0.1893  0.2105
 2498TIP3    H128985   5.960   3.702  11.276 -2.6231 -0.1510  0.3108
 2498TIP3    H228986   5.965   3.846  11.230  0.4976 -0.0834  0.7360
 2499TIP3   OH228987   0.211   5.672  10.519 -0.4494  0.3964  0.5788
 2499TIP3    H128988   0.251   5.697  10.436  0.7589  0.0263  1.0416
 2499TIP3    H228989   0.178   5.754  10.555  0.2755  0.7745  0.3897
 2500TIP3   OH228990   6.281   4.885   9.777  0.1392  0.8223 -0.0674
 2500TIP3    H128991   6.250   4.942   9.848 -1.0927 -1.0370  0.9152
 2500TIP3    H228992   6.251   4.928   9.697 -0.0026  2.0239  0.6221
 2501TIP3   OH228993   2.804   3.199  11.293  0.1274 -0.4311  0.5585
 2501TIP3    H128994   2.813   3.132  11.225  0.8299  0.2333 -0.0202
 2501TIP3    H228995   2.892   3.235  11.303 -0.3459  0.7878  0.4484
 2502TIP3   OH228996   5.702   5.073  11.354  0.2520  0.2216  0.1738
 2502TIP3    H128997   5.714   5.072  11.259 -0.7378 -0.2280  0.0438
 2502TIP3    H228998   5.631   5.135  11.368  0.3493  0.2302  0.6073
 2503TIP3   OH228999   6.930   4.769  10.162  0.0329  0.4056 -0.4334
 2503TIP3    H129000   6.910   4.799  10.074 -0.7431  0.2588 -0.3110
 2503TIP3    H229001   6.984   4.691  10.149  1.1612  1.2186 -0.7557
 2504TIP3   OH229002   3.660   3.346  12.169  0.1839 -0.2284 -0.0699
 2504TIP3    H129003   3.623   3.303  12.092 -1.1668  1.4782 -0.3974
 2504TIP3    H229004   3.674   3.437  12.143 -0.3243  0.3883  1.6977
 2505TIP3   OH229005   0.778   6.578  10.343 -0.2070 -0.3749  0.5065
 2505TIP3    H129006   0.711   6.510  10.356  1.1038 -1.9129 -0.5035
 2505TIP3    H229007   0.796   6.575  10.249  2.3997 -1.1158  0.9818
 2506TIP3   OH229008   6.134   6.743   9.831 -0.7022 -0.1441  0.5246
 2506TIP3    H129009   6.059   6.792   9.796 -0.0591 -0.0937 -0.8013
 2506TIP3    H229010   6.165   6.797   9.904 -1.1413  0.4965  0.2463
 2507TIP3   OH229011   5.891   4.902  11.084 -0.1294 -0.1563 -0.2544
 2507TIP3    H129012   5.893   4.996  11.066  0.1835 -0.1608 -0.2429
 2507TIP3    H229013   5.818   4.869  11.031 -0.7053  0.2089  0.3082
 2508TIP3   OH229014   0.298   5.241  10.535 -0.0215 -0.3741  0.0274
 2508TIP3    H129015   0.330   5.260  10.447 -2.6619 -0.3432 -0.9744
 2508TIP3    H229016   0.248   5.319  10.560  1.1113 -0.1819  1.7659
 2509TIP3   OH229017   0.923   5.841  11.459 -0.1419  0.3115 -0.2072
 2509TIP3    H129018   1.011   5.802  11.454 -0.4910 -0.5400  0.2576
 2509TIP3    H229019   0.933   5.927  11.418  1.0622  0.4833  0.4214
 2510TIP3   OH229020   6.969   4.921  10.899 -0.2063  0.4834  0.4216
 2510TIP3    H129021   6.897   4.872  10.937 -0.8777  1.4524  0.4239
 2510TIP3    H229022   6.963   5.008  10.938  1.6693  0.2524  1.2983
 2511TIP3   OH229023   6.662   6.388  13.598  0.4362  0.0695 -0.3152
 2511TIP3    H129024   6.713   6.441  13.659  2.6347 -1.7651 -0.4396
 2511TIP3    H229025   6.712   6.392  13.516  0.5213 -1.9495 -0.3898
 2512TIP3   OH229026   5.492   3.235  11.953  0.5558 -0.1283  0.1387
 2512TIP3    H129027   5.416   3.257  12.006  1.2157  0.3989  0.8755
 2512TIP3    H229028   5.561   3.215  12.016  0.6252 -2.0800 -0.5250
 2513TIP3   OH229029   0.480   6.461  11.847  0.3140  0.1541 -0.6686
 2513TIP3    H129030   0.448   6.540  11.891  2.1186  1.4736 -1.6884
 2513TIP3    H229031   0.575   6.470  11.847  0.5279 -1.8795 -1.0874
 2514TIP3   OH229032   7.335   4.160  10.809 -0.2192  0.0881  0.0304
 2514TIP3    H129033   7.352   4.110  10.889 -1.8113  1.6487  1.3709
 2514TIP3    H229034   7.401   4.229  10.809 -0.5376  0.3919  0.2572
 2515TIP3   OH229035   0.703   4.973  11.131  0.1509  0.5027 -0.5965
 2515TIP3    H129036   0.728   4.966  11.039  0.8171  1.0258 -0.4565
 2515TIP3    H229037   0.739   4.894  11.172 -0.4295  0.1070 -0.8470
 2516TIP3   OH229038   6.056   5.022  11.954 -0.4423  0.1864  0.1542
 2516TIP3    H129039   6.111   4.984  11.885 -0.5024 -1.8314  1.1837
 2516TIP3    H229040   5.966   5.003  11.927 -0.5120  0.3341  0.2820
 2517TIP3   OH229041   4.827   1.727  12.333  0.3077 -0.5769  0.1477
 2517TIP3    H129042   4.735   1.749  12.345  0.8876  1.4702  1.1526
 2517TIP3    H229043   4.864   1.803  12.287  1.9715 -0.2606  1.9176
 2518TIP3   OH229044   5.958   3.238  11.353 -0.1387  0.1764 -0.2917
 2518TIP3    H129045   5.959   3.311  11.290 -0.2887  0.6540  0.2540
 2518TIP3    H229046   5.913   3.273  11.430 -1.2847 -0.8644 -0.4650
 2519TIP3   OH229047   6.534   4.751  10.711 -0.3805  0.3881  0.3591
 2519TIP3    H129048   6.614   4.803  10.721 -0.5357  0.5424  0.7937
 2519TIP3    H229049   6.475   4.783  10.779 -0.4925 -0.3331  0.6135
 2520TIP3   OH229050   0.478   4.591  12.035  0.0420 -0.2682 -0.3512
 2520TIP3    H129051   0.530   4.523  11.992 -0.7441 -0.7547 -0.5611
 2520TIP3    H229052   0.501   4.672  11.990 -0.0485 -0.6223 -1.0427
 2521TIP3   OH229053   0.344   6.587  12.826 -0.3177 -1.0023  0.1236
 2521TIP3    H129054   0.336   6.632  12.910  1.9417 -0.3454  0.0083
 2521TIP3    H229055   0.267   6.530  12.822  0.0386 -1.7528  3.0558
 2522TIP3   OH229056   7.304   5.284  10.775  0.2784  0.2177 -0.2048
 2522TIP3    H129057   7.317   5.195  10.743  1.0448  0.3983 -0.3971
 2522TIP3    H229058   7.390   5.326  10.767 -0.5083  1.5622 -1.9184
 2523TIP3   OH229059   2.281   4.101  10.825 -0.3896  0.2331 -0.2198
 2523TIP3    H129060   2.192   4.075  10.850 -0.5863  1.7003  0.6996
 2523TIP3    H229061   2.270   4.187  10.785  0.5323  0.0483 -0.8890
 2524TIP3   OH229062   0.001   4.327  11.709 -0.2483  0.6411  0.0419
 2524TIP3    H129063   0.070   4.287  11.657  1.3956  1.7932  1.2612
 2524TIP3    H229064  -0.042   4.388  11.649 -0.0731  0.0720 -0.6690
 2525TIP3   OH229065   0.600   3.738  13.372  0.1824  0.1037 -0.3495
 2525TIP3    H129066   0.659   3.776  13.438  0.5528  1.2886 -1.3462
 2525TIP3    H229067   0.537   3.808  13.355 -1.3964 -1.0677  0.5335
 2526TIP3   OH229068   0.434   3.629  11.636 -0.3827 -0.0113  0.1812
 2526TIP3    H129069   0.485   3.575  11.696 -0.7922 -2.0389 -1.2282
 2526TIP3    H229070   0.345   3.626  11.671 -0.3228  0.1109  0.3443
 2527TIP3   OH229071   1.812   3.418  12.744  0.5784 -0.4806  0.2950
 2527TIP3    H129072   1.795   3.465  12.826  0.9553 -2.0842  1.3224
 2527TIP3    H229073   1.741   3.444  12.686 -2.0007 -2.4235  2.4983
 2528TIP3   OH229074   6.997   2.268  11.133 -0.8938 -0.1600 -0.3454
 2528TIP3    H129075   7.076   2.315  11.108  0.0541 -1.3766  0.3073
 2528TIP3    H229076   7.029   2.186  11.170 -2.4312 -0.3465  0.6055
 2529TIP3   OH229077   5.277   4.270  10.856  0.1119  0.3998  0.2854
 2529TIP3    H129078   5.243   4.291  10.769  0.1441  1.1152  0.4425
 2529TIP3    H229079   5.325   4.188  10.845  0.0073  0.4255 -0.3393
 2530TIP3   OH229080   4.968   5.319   9.960  0.6411  0.0688 -0.3490
 2530TIP3    H129081   4.874   5.337   9.953  0.6250 -0.1173 -0.6080
 2530TIP3    H229082   5.010   5.397   9.925  0.5681 -0.6573 -2.0704
 2531TIP3   OH229083   1.317   0.153  10.687 -0.1823  0.5319  0.6702
 2531TIP3    H129084   1.278   0.067  10.673 -0.0786  0.8924 -1.9778
 2531TIP3    H229085   1.310   0.197  10.603 -0.1380  3.0999  1.9523
 2532TIP3   OH229086   6.393   7.331  12.048  0.4065  0.1991  0.2099
 2532TIP3    H129087   6.455   7.310  11.979  0.4169 -0.3132  0.3717
 2532TIP3    H229088   6.440   7.391  12.106  0.7793 -0.2575  0.3794
 2533TIP3   OH229089   5.970   4.029  11.233 -0.1806  0.1415 -0.1659
 2533TIP3    H129090   5.879   4.054  11.216 -0.5620 -0.3541  1.0900
 2533TIP3    H229091   6.022   4.094  11.186 -1.1893 -0.6557 -2.4375
 2534TIP3   OH229092   4.587   4.707  12.200  0.3029  0.2201  0.0204
 2534TIP3    H129093   4.666   4.654  12.213 -0.4144 -1.4034 -1.8828
 2534TIP3    H229094   4.620   4.790  12.163  1.0285 -1.1440 -2.5307
 2535TIP3   OH229095   2.754   5.577  11.905 -0.2150  0.0517  0.6335
 2535TIP3    H129096   2.808   5.638  11.954  1.1079 -0.4285 -0.2167
 2535TIP3    H229097   2.739   5.619  11.820  2.2244 -1.5455 -0.6515
 2536TIP3   OH229098   6.273   5.809  10.440  0.4551  0.3846  0.6065
 2536TIP3    H129099   6.294   5.722  10.405  0.1429  0.1808  0.9271
 2536TIP3    H229100   6.212   5.846  10.376  0.3379  0.2417  0.6348
 2537TIP3   OH229101   0.300   4.829  10.054 -0.0522 -0.8450  0.8548
 2537TIP3    H129102   0.376   4.886  10.051  0.0145 -1.0105 -1.3950
 2537TIP3    H229103   0.232   4.881  10.096 -0.0201  0.9526 -1.2108
 2538TIP3   OH229104   6.135   4.219  11.115  0.4695 -0.1112  0.2397
 2538TIP3    H129105   6.194   4.282  11.156  0.0672 -0.3119  1.1305
 2538TIP3    H229106   6.188   4.177  11.048  0.8393  0.9346 -0.1263
 2539TIP3   OH229107   4.349   4.639  10.091  0.0520  0.6792  1.1614
 2539TIP3    H129108   4.393   4.722  10.109  0.7547  0.7784 -0.9520
 2539TIP3    H229109   4.273   4.663  10.038  1.0350 -0.1313 -0.6674
 2540TIP3   OH229110   0.194   2.948   9.659 -0.3244 -0.2839  0.2625
 2540TIP3    H129111   0.219   2.971   9.749  0.5274  0.0015 -0.0467
 2540TIP3    H229112   0.232   3.017   9.605 -3.9719  1.5847  0.0074
 2541TIP3   OH229113   4.632   3.425  10.398  1.0286  0.3411 -0.5963
 2541TIP3    H129114   4.667   3.514  10.389  0.5274  0.5186 -0.8280
 2541TIP3    H229115   4.597   3.404  10.311 -1.3603  0.9948  0.1745
 2542TIP3   OH229116   4.693   4.131   9.979 -0.2650  0.0305  0.1977
 2542TIP3    H129117   4.625   4.170   9.925 -0.3000 -0.0597  0.1743
 2542TIP3    H229118   4.688   4.176  10.063 -1.1584 -0.8097  0.6037
 2543TIP3   OH229119   0.068   6.918  11.102  0.1682 -0.1009 -0.2151
 2543TIP3    H129120   0.012   6.966  11.040  0.3014  1.2334  0.6806
 2543TIP3    H229121   0.156   6.954  11.088  0.5957 -1.3335 -0.7623
 2544TIP3   OH229122   5.983   4.171  12.673  0.0433  0.8642  0.6657
 2544TIP3    H129123   6.034   4.245  12.707  1.1036  1.1001 -1.3448
 2544TIP3    H229124   6.027   4.148  12.590 -0.7144 -1.5312  0.8924
 2545TIP3   OH229125   4.832   4.901  12.947  0.0576 -0.1788 -0.8793
 2545TIP3    H129126   4.892   4.866  12.882 -0.3871 -0.6541 -1.0344
 2545TIP3    H229127   4.762   4.836  12.954  1.4478 -1.4493  2.0321
 2546TIP3   OH229128   5.846   4.071  10.499 -0.1176  0.2387 -0.0466
 2546TIP3    H129129   5.859   4.021  10.580  3.3967  1.0277 -0.0447
 2546TIP3    H229130   5.903   4.028  10.436 -0.0661  1.8354 -1.1117
 2547TIP3   OH229131   6.703   5.600  11.341 -0.0698 -0.6474 -0.0337
 2547TIP3    H129132   6.676   5.512  11.316  2.2172 -1.2124 -0.6180
 2547TIP3    H229133   6.704   5.650  11.260 -0.1618 -0.4149  0.1078
 2548TIP3   OH229134   7.058   3.165  12.411 -0.5228 -0.0817  0.0690
 2548TIP3    H129135   7.069   3.260  12.417 -1.9020  0.0062  1.8405
 2548TIP3    H229136   7.005   3.152  12.332  1.3766  0.4342 -1.3218
 2549TIP3   OH229137   6.446   5.423  12.895 -0.4518 -0.6490 -0.3190
 2549TIP3    H129138   6.540   5.438  12.902 -0.4683 -1.0282  0.8681
 2549TIP3    H229139   6.407   5.486  12.956 -0.8800 -1.3629  0.1540
 2550TIP3   OH229140   6.069   6.643  12.753 -0.1076 -0.2702 -0.0853
 2550TIP3    H129141   6.144   6.669  12.806 -0.5933 -0.3228  0.6248
 2550TIP3    H229142   6.062   6.711  12.686 -0.6669  0.7988  1.0621
 2551TIP3   OH229143   6.889   5.628  11.526  0.0159  0.3361  0.2334
 2551TIP3    H129144   6.912   5.535  11.534  0.1174  0.3815  0.4796
 2551TIP3    H229145   6.815   5.630  11.466  0.1831  0.1190  0.0168
 2552TIP3   OH229146   1.045   5.513  10.694 -0.3968  0.2062 -0.5921
 2552TIP3    H129147   1.002   5.565  10.763 -0.0366 -0.4707  0.1511
 2552TIP3    H229148   0.995   5.432  10.692 -1.2867  0.7740 -2.1209
 2553TIP3   OH229149   0.256   5.294  11.611  0.3893  0.0331 -0.0558
 2553TIP3    H129150   0.260   5.199  11.601  0.2027  0.1735 -1.6698
 2553TIP3    H229151   0.348   5.321  11.616  0.4902 -0.1223 -0.9290
 2554TIP3   OH229152   4.555   7.088  11.030  0.0864  0.2209 -0.3331
 2554TIP3    H129153   4.645   7.061  11.050 -0.7004 -1.3029  1.3478
 2554TIP3    H229154   4.549   7.082  10.934  1.4350 -0.8230 -0.3704
 2555TIP3   OH229155   6.365   0.017  10.974 -0.3648 -0.0368  0.6443
 2555TIP3    H129156   6.395   0.098  10.933 -1.2993  0.5982  1.2021
 2555TIP3    H229157   6.426  -0.050  10.943  0.9113  1.0229  0.8536
 2556TIP3   OH229158   4.707   6.314  11.297  0.0369 -0.0189  0.2259
 2556TIP3    H129159   4.748   6.392  11.260  0.5160 -0.3507  0.0543
 2556TIP3    H229160   4.717   6.324  11.391  0.9371 -0.3285  0.1646
 2557TIP3   OH229161   6.550   4.255  10.720 -0.2011 -0.2616 -0.1517
 2557TIP3    H129162   6.600   4.336  10.714  1.2077 -0.7947  3.2027
 2557TIP3    H229163   6.608   4.194  10.767 -2.7458 -1.9013  1.0024
 2558TIP3   OH229164   6.206   5.619  13.011  0.8170  0.0540  0.5144
 2558TIP3    H129165   6.154   5.699  13.000  0.8896  0.3474  2.1691
 2558TIP3    H229166   6.142   5.551  13.029  0.7475 -0.2914 -1.0032
 2559TIP3   OH229167   6.537   3.270  10.045 -0.0395  0.2104  0.1368
 2559TIP3    H129168   6.578   3.329   9.982  0.7277  0.4848  0.8830
 2559TIP3    H229169   6.469   3.225   9.995  0.5959  0.3759 -0.9023
 2560TIP3   OH229170   6.595   3.453  10.564 -0.6651 -0.0154 -0.2588
 2560TIP3    H129171   6.599   3.462  10.469  0.9663  1.3896 -0.0800
 2560TIP3    H229172   6.685   3.435  10.591 -0.5525  2.4853  1.2527
 2561TIP3   OH229173   5.792   4.858  10.362 -0.3146  0.1390  0.0104
 2561TIP3    H129174   5.850   4.785  10.382  0.4082  0.4920 -0.7741
 2561TIP3    H229175   5.829   4.933  10.410 -1.8443 -0.2994  1.9475
 2562TIP3   OH229176   5.571   4.965  11.036 -0.7555 -0.0157  0.1435
 2562TIP3    H129177   5.487   5.004  11.062 -0.5575 -0.2386  1.1507
 2562TIP3    H229178   5.632   5.039  11.038 -0.4714 -0.2858  1.6157
 2563TIP3   OH229179   1.441   5.686  10.091 -0.5852 -0.0923  0.1939
 2563TIP3    H129180   1.463   5.753  10.154  0.8699  0.8978 -1.3215
 2563TIP3    H229181   1.525   5.647  10.066 -1.1331 -0.5680 -0.9889
 2564TIP3   OH229182   6.279   4.078  10.894  0.0791 -0.5191  0.1583
 2564TIP3    H129183   6.294   4.096  10.801  1.5776 -0.3043  0.4244
 2564TIP3    H229184   6.256   3.985  10.897 -0.8558 -0.3120 -0.5139
 2565TIP3   OH229185   5.702   4.004  13.176  0.2927  0.9733 -0.7117
 2565TIP3    H129186   5.625   3.989  13.121  0.1849  0.5109 -0.4460
 2565TIP3    H229187   5.734   3.916  13.197  0.2878  1.1381  0.0176
 2566TIP3   OH229188   6.210   4.986  10.173 -0.2829 -0.0596  0.2865
 2566TIP3    H129189   6.294   4.939  10.170 -0.4521 -0.2900 -1.1534
 2566TIP3    H229190   6.204   5.030  10.088 -1.2900  0.5398  0.6616
 2567TIP3   OH229191   0.502   3.534  10.741  0.2997  0.0471  0.1435
 2567TIP3    H129192   0.479   3.578  10.659  1.1497 -1.4928 -0.9402
 2567TIP3    H229193   0.495   3.603  10.807 -1.4587  1.0570 -1.0357
 2568TIP3   OH229194   1.276   6.973  11.021 -0.9999 -0.2132 -0.7858
 2568TIP3    H129195   1.234   6.934  11.097  0.0468 -0.4683 -0.3323
 2568TIP3    H229196   1.361   6.929  11.014 -0.3339  1.0608 -1.0215
 2569TIP3   OH229197   1.770   4.630  11.413  0.0152 -0.0873 -0.4215
 2569TIP3    H129198   1.809   4.576  11.345 -1.2511  0.1414 -1.3522
 2569TIP3    H229199   1.844   4.678  11.450  0.7407 -0.2526 -1.6060
 2570TIP3   OH229200   1.068   0.071  10.900  0.5832 -0.4665  0.1775
 2570TIP3    H129201   1.081  -0.018  10.933  1.9327 -0.1845  0.4523
 2570TIP3    H229202   1.136   0.123  10.942 -1.4170  1.1194  1.5616
 2571TIP3   OH229203   2.442   6.724  10.873 -0.2617 -0.2183 -0.1663
 2571TIP3    H129204   2.474   6.698  10.787 -1.5008  0.1571 -0.7555
 2571TIP3    H229205   2.427   6.641  10.919  2.5188 -0.3950  0.5218
 2572TIP3   OH229206   0.331   4.649  10.463 -0.0294  0.0099  0.2287
 2572TIP3    H129207   0.302   4.735  10.492 -0.1016  0.4011 -0.9748
 2572TIP3    H229208   0.278   4.588  10.514 -0.4914  0.6813  0.5613
 2573TIP3   OH229209   0.575   0.074  11.903  0.2508  0.0208  0.2073
 2573TIP3    H129210   0.639   0.007  11.879  0.5547  0.3259  0.1634
 2573TIP3    H229211   0.524   0.089  11.824  2.9249  2.9099 -1.0673
 2574TIP3   OH229212   2.044   5.199  11.664 -0.2043  0.0191 -0.4311
 2574TIP3    H129213   2.076   5.215  11.753 -0.1920 -2.2761  0.0212
 2574TIP3    H229214   1.966   5.144  11.676 -1.8037  1.9073 -1.7347
 2575TIP3   OH229215   7.309   0.292  11.019  0.6653 -0.1839 -0.2134
 2575TIP3    H129216   7.372   0.348  11.065  1.4696 -0.3820 -1.0660
 2575TIP3    H229217   7.271   0.238  11.088  1.7711 -0.3839  0.2439
 2576TIP3   OH229218   0.127   0.918  10.558  0.4606 -0.2609  0.3869
 2576TIP3    H129219   0.086   0.832  10.565  0.5911 -0.2796  0.9974
 2576TIP3    H229220   0.167   0.932  10.644  0.3537  0.4511  0.3257
 2577TIP3   OH229221   2.315   4.738  13.601 -0.0239 -0.0705  0.4899
 2577TIP3    H129222   2.379   4.677  13.565 -1.1588 -0.7599 -0.3948
 2577TIP3    H229223   2.317   4.723  13.695  0.8013 -0.3732  0.4322
 2578TIP3   OH229224   6.186   4.494  11.723  0.0076  0.6334 -0.9726
 2578TIP3    H129225   6.276   4.460  11.714  0.5934  2.2242 -1.1850
 2578TIP3    H229226   6.179   4.519  11.815 -0.5900 -0.4667 -0.7033
 2579TIP3   OH229227   0.457   4.722  12.508  0.0828  0.3936 -0.1869
 2579TIP3    H129228   0.378   4.745  12.557  0.4865 -0.2218  0.7666
 2579TIP3    H229229   0.516   4.684  12.574  1.1188  0.7234 -0.9192
 2580TIP3   OH229230   6.943   0.451  10.846  0.2787  0.3462  0.2001
 2580TIP3    H129231   6.987   0.378  10.800 -1.3097 -2.7413  3.3838
 2580TIP3    H229232   7.011   0.488  10.902  0.4124 -0.3892  0.5242
 2581TIP3   OH229233   6.337   6.670  11.333  0.1104  0.8759 -0.4038
 2581TIP3    H129234   6.415   6.616  11.320  1.0028  2.1791 -0.6292
 2581TIP3    H229235   6.285   6.623  11.398  1.6468  0.5525  0.6263
 2582TIP3   OH229236   2.657   0.132  10.724 -0.1979 -0.2049 -0.0767
 2582TIP3    H129237   2.692   0.147  10.636 -0.3891 -0.6569 -0.2320
 2582TIP3    H229238   2.566   0.159  10.718 -0.5052 -1.2441 -0.3190
 2583TIP3   OH229239   0.304   5.428  11.204  0.2487 -0.1492 -0.6083
 2583TIP3    H129240   0.384   5.386  11.170 -0.2396 -0.7460 -1.0260
 2583TIP3    H229241   0.323   5.443  11.297  0.3027 -1.6437 -0.3571
 2584TIP3   OH229242   4.917   1.279  11.387 -0.2987  0.1366 -0.4959
 2584TIP3    H129243   4.967   1.211  11.431  0.6950  0.7462 -0.6815
 2584TIP3    H229244   4.825   1.258  11.407 -0.0640 -1.9246 -1.5262
 2585TIP3   OH229245   1.092   1.329  10.896  0.4729  0.3417 -0.1348
 2585TIP3    H129246   1.051   1.333  10.810 -0.9968  1.7109  0.5939
 2585TIP3    H229247   1.186   1.323  10.879  0.0668 -1.2514 -1.8325
 2586TIP3   OH229248   0.397   5.262  10.123  0.2855 -0.2724  0.0877
 2586TIP3    H129249   0.432   5.176  10.101  0.3511  0.4428 -2.7991
 2586TIP3    H229250   0.314   5.268  10.077  0.9164  1.7090 -0.8847
 2587TIP3   OH229251   6.705   4.119  11.129  0.2736  0.5632  0.2004
 2587TIP3    H129252   6.631   4.180  11.124 -0.6401 -0.2430  3.0065
 2587TIP3    H229253   6.742   4.134  11.216  2.1581 -0.5114 -0.3970
 2588TIP3   OH229254   2.311   6.293  10.859  0.4173 -0.8631  0.6733
 2588TIP3    H129255   2.236   6.233  10.865  1.4935 -2.0085  3.4262
 2588TIP3    H229256   2.372   6.248  10.801 -0.1494 -0.9022  0.0974
 2589TIP3   OH229257   1.259   6.339  10.682 -0.4885  0.1557 -0.5075
 2589TIP3    H129258   1.316   6.264  10.664  0.3835  0.4236  1.0276
 2589TIP3    H229259   1.175   6.301  10.707  0.3431 -0.3888  1.6080
 2590TIP3   OH229260   1.924   6.309  10.803 -0.2468 -0.5989 -0.1052
 2590TIP3    H129261   1.961   6.229  10.840 -1.9703 -1.1000  0.6018
 2590TIP3    H229262   1.955   6.379  10.861  0.3907 -0.8786 -0.1066
 2591TIP3   OH229263   3.092   7.141  11.188  0.5017  0.4352 -0.8839
 2591TIP3    H129264   3.045   7.096  11.118 -0.2051  1.4144 -1.0415
 2591TIP3    H229265   3.181   7.150  11.154  0.3318  0.2850 -1.3725
 2592TIP3   OH229266   1.203   5.306  11.135  0.3100 -0.5208 -0.5918
 2592TIP3    H129267   1.175   5.368  11.203  0.6952 -0.6409 -0.3215
 2592TIP3    H229268   1.168   5.222  11.164  0.8303 -0.6460 -0.3271
 2593TIP3   OH229269   2.103   0.201  10.229  0.3457 -0.0447 -0.4252
 2593TIP3    H129270   2.156   0.129  10.265 -0.8309 -1.2738 -1.0860
 2593TIP3    H229271   2.028   0.207  10.289 -0.4908 -0.6158 -1.3866
 2594TIP3   OH229272   0.884   5.950  10.172  0.2134  0.0529  0.4454
 2594TIP3    H129273   0.813   5.969  10.233 -0.3296 -1.3469  0.2643
 2594TIP3    H229274   0.841   5.935  10.088  0.5832 -2.1307  0.6257
 2595TIP3   OH229275   3.890   1.619  11.540 -0.0323  0.3960  0.4391
 2595TIP3    H129276   3.973   1.620  11.587  0.5046  0.5318 -0.4967
 2595TIP3    H229277   3.855   1.707  11.551 -0.0619  0.3323  0.8537
 2596TIP3   OH229278   6.028   6.267  11.461 -0.9289  0.2058 -0.1350
 2596TIP3    H129279   6.050   6.359  11.477 -1.2593  0.2342  0.1684
 2596TIP3    H229280   6.112   6.221  11.466 -1.0086  0.2153  1.7547
 2597TIP3   OH229281   1.846   1.715  11.144  0.4939  0.4302  0.6234
 2597TIP3    H129282   1.926   1.760  11.169  1.9885 -1.8990  0.2675
 2597TIP3    H229283   1.850   1.710  11.048  1.1107 -1.6526  0.7136
 2598TIP3   OH229284   1.577   0.779  10.361 -0.3351 -0.1637  0.1150
 2598TIP3    H129285   1.540   0.738  10.283 -1.2569  1.0916 -0.1329
 2598TIP3    H229286   1.626   0.854  10.328 -0.2888  0.0709  0.7002
 2599TIP3   OH229287   2.073   6.998  10.517 -0.5782  0.1174  0.5556
 2599TIP3    H129288   2.048   6.966  10.430 -0.6333 -0.0530  0.6338
 2599TIP3    H229289   2.169   6.999  10.516 -0.5818  0.2526  0.4440
 2600TIP3   OH229290   0.621   7.061  10.487 -0.1967  0.2869  0.0943
 2600TIP3    H129291   0.621   6.980  10.436 -0.1996  1.6227 -2.0668
 2600TIP3    H229292   0.551   7.114  10.449 -0.7814  0.9741  2.0635
 2601TIP3   OH229293   0.917   0.265  10.390 -0.3670 -0.1532 -0.6313
 2601TIP3    H129294   0.948   0.180  10.424 -1.3048 -1.2611 -2.4868
 2601TIP3    H229295   0.963   0.330  10.444 -1.6077 -1.8250  2.6371
 2602TIP3   OH229296   3.763   0.065  10.388  0.7244 -0.0232  0.0080
 2602TIP3    H129297   3.724   0.034  10.307  0.4099 -1.1159  0.5652
 2602TIP3    H229298   3.823   0.134  10.361  1.3357 -1.0236 -1.2488
 2603TIP3   OH229299   6.799   1.904  10.761  0.4836  0.6739  0.3367
 2603TIP3    H129300   6.813   1.836  10.695 -0.7501  0.0797  0.6724
 2603TIP3    H229301   6.727   1.871  10.815  0.1285  2.0723  0.7440
 2604TIP3   OH229302   0.788   6.581  10.071 -0.3375  0.0222 -0.0901
 2604TIP3    H129303   0.710   6.566  10.017 -1.2380  0.2364  1.1300
 2604TIP3    H229304   0.856   6.529  10.028 -1.5412 -1.4538 -0.2948
 2605TIP3   OH229305   2.132   6.580   9.691  0.5821  0.2731 -0.7857
 2605TIP3    H129306   2.072   6.630   9.636 -0.4982 -0.7999 -0.5951
 2605TIP3    H229307   2.142   6.496   9.645  0.5577 -0.2031  0.0709
 2606TIP3   OH229308   6.487   6.031  11.054  0.5692 -0.7799 -0.2269
 2606TIP3    H129309   6.471   6.064  10.965  0.1061  0.1474  0.1936
 2606TIP3    H229310   6.553   5.962  11.042 -0.6327 -1.7484 -1.4793
 2607TIP3   OH229311   2.969   0.577  10.215  0.2782  0.3781  0.2141
 2607TIP3    H129312   2.959   0.637  10.140 -1.2306 -0.4211 -0.2473
 2607TIP3    H229313   3.042   0.521  10.191 -0.4854 -0.1708 -0.8965
 2608TIP3   OH229314   0.053   0.623  11.050  0.4560 -0.2646 -0.3951
 2608TIP3    H129315  -0.031   0.658  11.021 -0.0187 -1.7911 -0.9183
 2608TIP3    H229316   0.115   0.649  10.982  0.3913  0.7185 -0.0930
 2609TIP3   OH229317   0.639   6.797  10.842  0.2235  1.1664  0.2131
 2609TIP3    H129318   0.608   6.788  10.752  0.8913 -0.9691  0.1674
 2609TIP3    H229319   0.715   6.739  10.847 -1.9702 -1.5860  3.1365
 2610TIP3   OH229320   0.273   6.523   9.801 -0.6032 -0.6016 -0.1940
 2610TIP3    H129321   0.306   6.559   9.719  1.2722 -0.4467  0.5890
 2610TIP3    H229322   0.282   6.429   9.792  1.0982 -0.5164  0.4087
 2611TIP3   OH229323   6.509   5.480  12.568 -0.1722 -0.5899 -0.1199
 2611TIP3    H129324   6.593   5.508  12.605 -1.1238  1.6501  0.4140
 2611TIP3    H229325   6.532   5.436  12.487  1.4520  1.2365 -0.6716
 2612TIP3   OH229326   7.141   6.555  10.341 -0.0341 -0.0312 -0.0384
 2612TIP3    H129327   7.211   6.538  10.404  0.9763 -2.2285 -1.6709
 2612TIP3    H229328   7.153   6.647  10.317 -1.3625  1.3002  3.9861
 2613TIP3   OH229329   3.060   0.197  12.439 -0.1299  0.3084  0.3721
 2613TIP3    H129330   3.100   0.114  12.411 -0.4964  0.0400  0.6497
 2613TIP3    H229331   3.036   0.240  12.357 -1.4400 -0.5939  0.2560
 2614TIP3   OH229332   2.235   6.340  12.047  0.6350  0.2602  0.0369
 2614TIP3    H129333   2.191   6.425  12.038 -1.2844 -0.8207 -1.2696
 2614TIP3    H229334   2.166   6.276  12.030  1.4813 -1.6553  3.3495
 2615TIP3   OH229335   1.918   6.610  10.257  0.2363  0.6634 -0.3144
 2615TIP3    H129336   1.916   6.687  10.200 -0.1259  1.6438  0.9998
 2615TIP3    H229337   1.829   6.604  10.292  0.4838  0.1332  0.2328
 2616TIP3   OH229338   1.746   0.072  10.629  0.7140 -0.5513 -0.3847
 2616TIP3    H129339   1.694   0.067  10.549  2.3403  1.4649 -1.6353
 2616TIP3    H229340   1.820   0.014  10.613  2.0329  1.2786 -1.1871
 2617TIP3   OH229341   1.032   4.500  10.701  0.2802  0.2168 -0.1239
 2617TIP3    H129342   1.109   4.551  10.673 -0.4681  1.2013 -0.4102
 2617TIP3    H229343   0.960   4.534  10.647 -0.0876 -1.6956 -0.8907
 2618TIP3   OH229344   0.982   4.002  12.238  1.1181 -0.1781  0.6921
 2618TIP3    H129345   1.020   4.087  12.215  1.4813 -0.4947  0.1097
 2618TIP3    H229346   0.897   4.024  12.275  1.8540  0.5440  2.0020
 2619TIP3   OH229347   0.986   5.465  10.330  0.4016 -0.0097  0.0772
 2619TIP3    H129348   0.903   5.427  10.359  0.2162  0.8212  0.6733
 2619TIP3    H229349   0.967   5.498  10.242 -0.1219  0.8104  0.4823
 2620TIP3   OH229350   1.531   5.401  13.211  0.2316 -0.3410 -0.4145
 2620TIP3    H129351   1.626   5.399  13.225 -0.1472  0.6155  2.8824
 2620TIP3    H229352   1.509   5.312  13.185  2.0805 -0.4618 -1.6563
 2621TIP3   OH229353   0.057   6.307  13.525  0.0542 -0.8050 -0.1220
 2621TIP3    H129354   0.071   6.369  13.596 -0.6879 -1.0814  0.2638
 2621TIP3    H229355   0.145   6.280  13.499  0.2856 -2.5166  2.2825
 2622TIP3   OH229356   2.126   6.477  10.401  0.0162 -0.6284 -0.2680
 2622TIP3    H129357   2.113   6.405  10.463 -1.1905 -0.7091 -0.5939
 2622TIP3    H229358   2.038   6.513  10.388  0.5779  0.7528 -0.2889
 2623TIP3   OH229359   6.367   0.489  11.507 -1.0186 -0.0828 -0.6586
 2623TIP3    H129360   6.374   0.442  11.590 -1.3439  0.4891 -0.3047
 2623TIP3    H229361   6.429   0.561  11.515 -1.9123  0.6742 -0.4283
 2624TIP3   OH229362   7.133   0.968  13.710 -0.4522 -0.4317  0.0144
 2624TIP3    H129363   7.218   0.935  13.738  0.3048 -0.4190 -2.1347
 2624TIP3    H229364   7.129   1.057  13.744 -0.7155 -1.2888  2.2773
 2625TIP3   OH229365   1.321   4.724  10.248 -0.4092 -0.3033 -0.0237
 2625TIP3    H129366   1.400   4.719  10.302  0.0131  0.4920 -0.5626
 2625TIP3    H229367   1.331   4.653  10.185 -0.3173 -0.4588  0.1656
 2626TIP3   OH229368   3.623   5.829  11.125  0.2660 -0.4802  0.0751
 2626TIP3    H129369   3.641   5.919  11.097  0.0518 -0.0211  1.3531
 2626TIP3    H229370   3.610   5.836  11.220 -0.8138 -1.6972  0.0336
 2627TIP3   OH229371   7.162   5.469  11.806 -0.4472  0.1388  0.5964
 2627TIP3    H129372   7.214   5.474  11.886 -0.3011  3.1991  0.3986
 2627TIP3    H229373   7.077   5.506  11.830 -0.6161  0.4890 -0.4878
 2628TIP3   OH229374   0.250   5.733  12.173 -0.0643 -0.2380  0.2063
 2628TIP3    H129375   0.344   5.746  12.160 -0.0832  0.3249  0.6402
 2628TIP3    H229376   0.213   5.821  12.175 -0.5067 -0.4355  0.7418
 2629TIP3   OH229377   1.253   5.126  10.074 -0.1503  0.2959 -0.0359
 2629TIP3    H129378   1.219   5.193  10.134  0.9725  2.6924 -2.0020
 2629TIP3    H229379   1.201   5.048  10.095 -1.9109  1.8948  1.9148
 2630TIP3   OH229380   1.344   7.121  10.437 -0.4274 -0.1262 -0.9203
 2630TIP3    H129381   1.310   7.196  10.485  0.0510  0.0876 -0.9114
 2630TIP3    H229382   1.394   7.159  10.365  3.2500 -0.3178  1.3769
 2631TIP3   OH229383   7.263   5.361  12.066 -0.1456 -0.7571 -0.1660
 2631TIP3    H129384   7.177   5.318  12.062 -0.3038 -0.3639 -1.1403
 2631TIP3    H229385   7.250   5.436  12.123 -0.2172 -1.2147  0.4260
 2632TIP3   OH229386   7.071   6.195  10.514  0.1016  0.0043  0.5661
 2632TIP3    H129387   7.002   6.191  10.448  0.4838  0.9937  0.0851
 2632TIP3    H229388   7.064   6.113  10.562 -1.0013 -0.1740  0.1134
 2633TIP3   OH229389   0.388   7.324  10.978 -0.7747  0.0713 -0.0827
 2633TIP3    H129390   0.394   7.388  10.907 -0.0843  0.0189 -0.0809
 2633TIP3    H229391   0.407   7.373  11.057  1.2207 -0.4054 -0.2348
 2634TIP3   OH229392   0.517   6.373  11.280 -0.0358  0.1207  0.0651
 2634TIP3    H129393   0.428   6.398  11.304 -0.1742 -0.2989  0.0035
 2634TIP3    H229394   0.571   6.397  11.355 -0.3897 -0.7530  0.6116
 2635TIP3   OH229395   6.892   6.225  10.295  0.4115 -0.4933  0.3621
 2635TIP3    H129396   6.810   6.254  10.255  0.7298 -0.6157 -0.3986
 2635TIP3    H229397   6.910   6.141  10.252  1.0994 -0.3099  0.2924
 2636TIP3   OH229398   4.592   0.392  10.741  0.2431 -0.0109  0.3720
 2636TIP3    H129399   4.601   0.312  10.688  0.6601 -0.8969  1.7520
 2636TIP3    H229400   4.666   0.446  10.715 -0.4712  0.2724 -1.1404
 2637TIP3   OH229401   1.485   6.098  10.088 -0.4343 -0.1854  0.3784
 2637TIP3    H129402   1.411   6.091  10.028  0.0946  0.1959 -0.3349
 2637TIP3    H229403   1.487   6.189  10.115  0.2140 -0.0119 -0.2055
 2638TIP3   OH229404   2.106   0.602  10.293  0.3515  0.2258  0.2504
 2638TIP3    H129405   2.166   0.591  10.218  0.7705  0.1720  0.5888
 2638TIP3    H229406   2.148   0.552  10.363 -0.2845 -0.1151  0.3842
 2639TIP3   OH229407   2.341   6.970  10.936 -0.2407  0.1566 -0.4066
 2639TIP3    H129408   2.254   6.961  10.973  0.1868  0.5595  0.7539
 2639TIP3    H229409   2.377   6.881  10.935 -1.2214 -0.2357 -2.3491
 2640TIP3   OH229410   2.508   7.281  13.478 -0.4454 -0.1983  0.2938
 2640TIP3    H129411   2.484   7.334  13.554 -1.5960  0.5629 -0.5808
 2640TIP3    H229412   2.424   7.251  13.442  0.1278 -1.3255 -0.1337
 2641TIP3   OH229413   2.610   0.002  10.988  0.3127  0.0122 -0.3767
 2641TIP3    H129414   2.634  -0.019  10.897 -0.2365 -0.9751 -0.3117
 2641TIP3    H229415   2.515  -0.012  10.990  0.5145 -1.3029  0.6941
 2642TIP3   OH229416   0.624   6.083  10.695 -0.0815  0.0860  0.7641
 2642TIP3    H129417   0.556   6.015  10.687 -0.4007  0.5781 -0.6978
 2642TIP3    H229418   0.704   6.041  10.665 -0.3626  0.4825 -0.5509
 2643TIP3   OH229419   7.143   6.100  10.955  0.6981  0.1286 -0.1410
 2643TIP3    H129420   7.164   6.186  10.918  2.2186  0.2245  0.8986
 2643TIP3    H229421   7.114   6.119  11.044  1.3268 -0.4599  0.1917
 2644TIP3   OH229422   2.413   6.992  12.051 -0.3070 -0.6923  0.4204
 2644TIP3    H129423   2.502   6.989  12.087  0.2166 -0.1368 -0.8051
 2644TIP3    H229424   2.393   6.902  12.028  1.2569 -0.3556 -2.4236
 2645TIP3   OH229425   0.588   6.398  10.271  0.4708 -0.6496 -0.6291
 2645TIP3    H129426   0.609   6.305  10.277 -0.5753 -0.9486 -1.4118
 2645TIP3    H229427   0.558   6.410  10.181 -0.1209  0.3011 -0.3136
 2646TIP3   OH229428   0.598   0.903   9.967 -0.2063  0.2494  0.2620
 2646TIP3    H129429   0.663   0.833   9.977 -0.0343  0.4217  0.3348
 2646TIP3    H229430   0.604   0.928   9.875  0.1621  0.5938  0.3799
 2647TIP3   OH229431   5.548   1.141  11.143 -0.7470  0.1305  0.0485
 2647TIP3    H129432   5.542   1.139  11.238  0.4542 -0.9935  0.1147
 2647TIP3    H229433   5.560   1.234  11.122  2.9350  0.0185  1.2985
 2648TIP3   OH229434   1.739   6.091   9.964 -0.3122  0.0787  0.0737
 2648TIP3    H129435   1.650   6.069   9.988 -0.5223  0.4750 -0.3294
 2648TIP3    H229436   1.773   6.012   9.922 -0.5841  0.0378 -0.0703
 2649TIP3   OH229437   0.729   1.524  10.681 -0.6192  0.3924 -0.0251
 2649TIP3    H129438   0.744   1.443  10.730  0.5272  0.2797 -0.5471
 2649TIP3    H229439   0.754   1.594  10.742 -1.1893  0.3464  0.2705
 2650TIP3   OH229440   1.717   6.655  11.035  0.2472 -1.3321 -0.4634
 2650TIP3    H129441   1.702   6.606  10.954 -0.0022 -2.2026  0.1084
 2650TIP3    H229442   1.643   6.633  11.090  1.6041 -2.5702  0.8960
 2651TIP3   OH229443   6.756   6.757  10.396 -0.2472  0.7968  0.1987
 2651TIP3    H129444   6.668   6.732  10.368 -0.6252  0.8487  1.3007
 2651TIP3    H229445   6.811   6.682  10.374 -0.4890  0.9442 -0.8966
 2652TIP3   OH229446   2.516   6.972  12.670 -0.0053  0.0745 -0.0734
 2652TIP3    H129447   2.533   7.025  12.592 -1.4870 -0.1873 -0.6007
 2652TIP3    H229448   2.466   7.030  12.728  0.1302 -0.0885  0.2087
 2653TIP3   OH229449   2.775   2.044  13.074 -0.4562  0.4230 -0.1123
 2653TIP3    H129450   2.833   2.006  13.141  0.0815 -0.2945 -0.9803
 2653TIP3    H229451   2.749   1.970  13.020 -1.7826  0.8303 -0.0422
 2654TIP3   OH229452   1.207   0.942  11.349  0.2165 -0.1039 -0.0869
 2654TIP3    H129453   1.256   1.009  11.398  2.5836 -2.1025  0.4047
 2654TIP3    H229454   1.176   0.882  11.417 -0.6121 -0.3277 -0.6597
 2655TIP3   OH229455   6.544   0.119  10.279 -0.1685  0.2473  0.2324
 2655TIP3    H129456   6.470   0.141  10.221  0.1961  1.9047  0.3873
 2655TIP3    H229457   6.508   0.054  10.339 -1.4235  0.8332  0.1288
 2656TIP3   OH229458   0.960   6.765  11.094 -0.1163  0.1080  0.1749
 2656TIP3    H129459   0.870   6.737  11.106 -0.3944  0.7670 -0.3581
 2656TIP3    H229460   0.981   6.743  11.004 -0.0909  0.8923 -0.0210
 2657TIP3   OH229461   1.465   6.712  12.206 -0.0394 -0.2727  0.0242
 2657TIP3    H129462   1.447   6.778  12.139  1.5288  0.1944  0.0387
 2657TIP3    H229463   1.499   6.762  12.280 -0.6694 -0.9069  0.7400
 2658TIP3   OH229464   0.295   5.582  13.326  0.1642 -0.0634  0.5169
 2658TIP3    H129465   0.250   5.637  13.261 -0.9063  0.4123  1.6425
 2658TIP3    H229466   0.317   5.642  13.397 -0.0414 -0.8748  1.2742
 2659TIP3   OH229467   1.143   4.986  11.537  0.3045 -0.1093 -0.2129
 2659TIP3    H129468   1.078   4.917  11.556  3.4628 -3.0300  0.4815
 2659TIP3    H229469   1.175   4.965  11.449  1.2651  0.4737 -0.0053
 2660TIP3   OH229470   1.348   0.246  11.233  0.5519  0.6982  0.0417
 2660TIP3    H129471   1.298   0.271  11.155  1.7358  0.6422 -0.7431
 2660TIP3    H229472   1.403   0.322  11.251  1.8008 -0.0841 -0.4235
 2661TIP3   OH229473   7.339   4.924  12.669 -0.4378 -0.3883  0.2837
 2661TIP3    H129474   7.294   4.963  12.744 -0.3634 -0.0920  0.1727
 2661TIP3    H229475   7.299   4.838  12.660 -0.1031 -0.6157  0.9698
 2662TIP3   OH229476   7.282   5.085  12.035 -0.2363  0.2981 -0.2576
 2662TIP3    H129477   7.299   5.036  12.115  0.0813  0.2536 -0.3523
 2662TIP3    H229478   7.256   5.172  12.065  1.4293  0.7721 -0.1365
 2663TIP3   OH229479   1.349   6.597  10.269  0.8784 -0.0347 -0.8478
 2663TIP3    H129480   1.298   6.645  10.204  0.3869 -0.0082 -0.4415
 2663TIP3    H229481   1.356   6.657  10.343  1.3785 -0.0928 -0.8425
 2664TIP3   OH229482   1.131   4.798  11.321  0.0407  0.1003  0.3693
 2664TIP3    H129483   1.094   4.769  11.405 -0.7009  0.0536  0.0277
 2664TIP3    H229484   1.119   4.723  11.263  1.5341 -0.2560  0.5117
 2665TIP3   OH229485   0.663   0.890  10.266  0.1819 -0.0533 -0.1186
 2665TIP3    H129486   0.711   0.952  10.321 -1.4676  1.0870  0.0931
 2665TIP3    H229487   0.703   0.898  10.180  0.5675  0.6534  0.1161
 2666TIP3   OH229488   0.417   6.705  10.021  0.1080 -0.2110  0.4693
 2666TIP3    H129489   0.376   6.620  10.007 -0.5362 -0.0455  1.2606
 2666TIP3    H229490   0.496   6.703   9.968 -1.0914 -0.4205 -1.3664
 2667TIP3   OH229491   7.232   0.089  10.811  0.6234  0.3058 -0.2906
 2667TIP3    H129492   7.320   0.066  10.782  0.6117 -1.1454  0.7698
 2667TIP3    H229493   7.245   0.160  10.874  0.9699  0.6153 -0.7102
 2668TIP3   OH229494   0.910   1.807  10.979  0.1751  0.7039  0.4285
 2668TIP3    H129495   0.830   1.854  10.957 -1.2211 -1.1752  1.3595
 2668TIP3    H229496   0.926   1.830  11.071 -0.5325 -0.6230  0.8975
 2669TIP3   OH229497   2.474   1.395  11.840 -0.0518 -0.1982 -0.2616
 2669TIP3    H129498   2.550   1.451  11.858 -1.0406  1.4364 -1.0613
 2669TIP3    H229499   2.507   1.327  11.781  0.9019  0.1941 -0.1805
 2670TIP3   OH229500   2.334   0.188  11.421  0.2887  0.2617 -0.1698
 2670TIP3    H129501   2.399   0.165  11.355 -0.7789  0.4784 -1.3276
 2670TIP3    H229502   2.265   0.233  11.372 -1.4001 -1.1826  0.7817
 2671TIP3   OH229503   0.954   0.175  13.328  0.1536  0.0641  0.2182
 2671TIP3    H129504   0.871   0.158  13.374  0.5395  0.6520  1.1565
 2671TIP3    H229505   0.928   0.209  13.243 -0.5752 -0.0635  0.3867
 2672TIP3   OH229506   0.974   3.877  10.028 -0.0924 -0.2583 -0.1393
 2672TIP3    H129507   1.003   3.952   9.977 -1.4444 -0.7823 -1.7162
 2672TIP3    H229508   0.879   3.889  10.038  0.0728 -0.3811  1.9038
 2673TIP3   OH229509   6.144   6.541  12.020 -0.2670 -0.3551  0.0091
 2673TIP3    H129510   6.188   6.601  12.081 -1.2262 -0.5633  0.9206
 2673TIP3    H229511   6.185   6.559  11.935  0.0348  1.0157  0.4293
 2674TIP3   OH229512   0.733   6.264  11.093  0.2687  0.6137  0.0207
 2674TIP3    H129513   0.827   6.281  11.084  0.1065  1.6429  0.1361
 2674TIP3    H229514   0.697   6.347  11.126 -1.0623  1.1872 -2.6674
 2675TIP3   OH229515   0.679   0.404  10.016 -0.1576 -0.5046  0.0596
 2675TIP3    H129516   0.739   0.460  10.066  1.3859  0.3211 -2.6256
 2675TIP3    H229517   0.592   0.429  10.047  0.7329  0.2842  2.0144
 2676TIP3   OH229518   1.648   6.534  10.816  0.1094 -0.0735  0.7064
 2676TIP3    H129519   1.562   6.571  10.797  0.1220 -1.4817 -2.3284
 2676TIP3    H229520   1.664   6.473  10.745  3.9273  0.6540  0.8430
 2677TIP3   OH229521   0.936   0.345  13.108  0.4661 -0.1177  0.7093
 2677TIP3    H129522   0.899   0.428  13.137  1.0008 -0.2913  1.8830
 2677TIP3    H229523   1.030   0.359  13.106  0.5364 -0.5977  0.5915
 2678TIP3   OH229524   7.057   7.028  11.337 -0.0815 -0.5790  0.2565
 2678TIP3    H129525   7.131   7.002  11.282  0.1196  0.9231 -0.2218
 2678TIP3    H229526   7.080   7.115  11.369 -2.3652  0.6616 -1.3022
 2679TIP3   OH229527   5.094   5.858  11.192  0.2458 -0.3863  0.6507
 2679TIP3    H129528   5.083   5.921  11.264 -0.4708 -2.0895  2.0504
 2679TIP3    H229529   5.173   5.887  11.147 -0.9895  2.5224  0.2421
 2680TIP3   OH229530   5.664   0.162  11.289 -0.8414 -0.2729 -0.3099
 2680TIP3    H129531   5.742   0.152  11.344 -1.1464 -1.1479 -0.0233
 2680TIP3    H229532   5.651   0.256  11.282 -1.5021 -0.1551  2.0853
 2681TIP3   OH229533   1.929   6.859  12.029 -0.0738 -0.0089 -0.3963
 2681TIP3    H129534   1.856   6.879  11.971 -1.4592  0.2006  1.3923
 2681TIP3    H229535   1.933   6.763  12.031  1.0895 -0.0205 -2.1731
 2682TIP3   OH229536   5.437   1.073  12.379 -0.1779  0.3264  0.1176
 2682TIP3    H129537   5.476   1.124  12.309 -2.2313 -0.8692 -1.9880
 2682TIP3    H229538   5.471   0.984  12.366  0.0425  0.2618  1.1141
 2683TIP3   OH229539   2.311   6.972  11.244 -0.1232  0.7298  0.1354
 2683TIP3    H129540   2.363   7.050  11.225  0.0574  0.8573  1.1524
 2683TIP3    H229541   2.235   6.980  11.185 -0.1103  1.6699  0.2309
 2684TIP3   OH229542   0.739   6.825  13.707 -0.0159 -0.2204  0.6721
 2684TIP3    H129543   0.667   6.766  13.732  0.7943 -2.3272 -1.6669
 2684TIP3    H229544   0.696   6.909  13.690 -1.4382 -0.5329  2.5715
 2685TIP3   OH229545   6.026   6.457  10.550 -0.6103  0.0817 -0.1754
 2685TIP3    H129546   5.951   6.516  10.555 -0.9917 -0.4114 -0.0671
 2685TIP3    H229547   6.050   6.441  10.641  0.1217  0.8603 -0.2221
 2686TIP3   OH229548   1.734   6.223  11.781 -0.2041  0.2476  0.0621
 2686TIP3    H129549   1.806   6.190  11.727  0.0877  0.7864  0.1223
 2686TIP3    H229550   1.657   6.215  11.725  0.5872  3.7747 -1.6156
 2687TIP3   OH229551   3.444   5.687  12.299  0.0916  0.5133  0.0023
 2687TIP3    H129552   3.506   5.614  12.300  0.1568  0.5681 -0.0101
 2687TIP3    H229553   3.403   5.686  12.385 -1.2675 -0.7014 -0.6334
 2688TIP3   OH229554   2.070   5.955  13.524  0.0049  0.4222 -0.4396
 2688TIP3    H129555   2.051   5.918  13.610 -0.5959  2.0681  0.1562
 2688TIP3    H229556   1.992   5.936  13.472  0.0530  0.0991 -0.3939
 2689TIP3   OH229557   6.847   4.048  11.369  0.8302  0.2498 -0.7469
 2689TIP3    H129558   6.912   4.001  11.422  1.2351  1.3359 -0.2703
 2689TIP3    H229559   6.853   4.139  11.398 -1.1944  0.3058 -0.4063
 2690TIP3   OH229560   7.068   6.919  11.621  0.6092  0.6423 -0.6028
 2690TIP3    H129561   6.974   6.924  11.643  0.7348  1.0105 -0.1295
 2690TIP3    H229562   7.079   6.985  11.552  0.5200  0.6074 -0.6513
 2691TIP3   OH229563   0.264   7.198  11.254  0.5576  0.7923 -0.1925
 2691TIP3    H129564   0.253   7.135  11.182 -1.2006  1.2730 -0.3636
 2691TIP3    H229565   0.358   7.218  11.254  0.8048 -0.2708 -1.4522
 2692TIP3   OH229566   7.337   4.758  11.944 -0.5035  0.2760  0.1092
 2692TIP3    H129567   7.414   4.808  11.973 -0.6692  0.1086  0.8610
 2692TIP3    H229568   7.333   4.772  11.850  0.1815  0.6651  0.1350
 2693TIP3   OH229569   6.516   6.757  11.645  0.1077 -0.1743  0.0351
 2693TIP3    H129570   6.577   6.705  11.592  0.9547 -0.3868  1.1867
 2693TIP3    H229571   6.465   6.692  11.693 -1.0775  0.0029 -0.9524
 2694TIP3   OH229572   1.751   0.214  11.395  0.0774  0.1683  0.5523
 2694TIP3    H129573   1.819   0.152  11.422  0.2979  0.8379  1.5830
 2694TIP3    H229574   1.716   0.178  11.314  2.7889  0.6315 -0.9002
 2695TIP3   OH229575   0.809   5.973  10.566  0.2595 -0.1217 -0.2390
 2695TIP3    H129576   0.899   5.959  10.596  0.3873 -2.5015 -1.6069
 2695TIP3    H229577   0.776   5.885  10.547 -2.6239  0.6555  0.9383
 2696TIP3   OH229578   1.382   6.399   9.877 -0.4529 -0.0255 -0.4233
 2696TIP3    H129579   1.343   6.373   9.793  2.5709 -1.3896 -1.4854
 2696TIP3    H229580   1.370   6.323   9.934 -1.4058  0.4432  0.0205
 2697TIP3   OH229581   4.361   5.213  10.205  0.1649  0.2551 -0.2073
 2697TIP3    H129582   4.434   5.275  10.200 -1.8269  2.5691 -1.3478
 2697TIP3    H229583   4.332   5.217  10.296  0.0654  0.9664 -0.2713
 2698TIP3   OH229584   1.029   1.041  12.206 -0.5059 -0.2188  0.0493
 2698TIP3    H129585   0.946   1.002  12.234 -0.3567  0.9428  2.2884
 2698TIP3    H229586   1.015   1.136  12.215  0.1689  0.1290 -2.2402
 2699TIP3   OH229587   0.881   5.617  11.162  0.1610 -0.4653  1.0123
 2699TIP3    H129588   0.791   5.645  11.181  0.6568  0.6533  1.7660
 2699TIP3    H229589   0.922   5.611  11.248  0.9244 -0.5651  0.6399
 2700TIP3   OH229590   0.922   5.623  10.121 -0.4274 -0.9641 -0.0629
 2700TIP3    H129591   0.910   5.718  10.128  0.3747 -0.9253  1.0472
 2700TIP3    H229592   0.906   5.603  10.029  0.3588  0.4000 -0.5089
 2701TIP3   OH229593   2.335   6.642   9.861  0.3542 -0.7603  0.2274
 2701TIP3    H129594   2.271   6.711   9.881  0.6255 -1.2436  3.0751
 2701TIP3    H229595   2.299   6.598   9.784 -2.4634 -0.6119  1.3641
 2702TIP3   OH229596   2.329   7.206  12.261 -0.2947  0.2330 -0.0343
 2702TIP3    H129597   2.345   7.300  12.247 -0.6653  0.5489  1.5019
 2702TIP3    H229598   2.402   7.163  12.218  1.6708  1.3943  2.0230
 2703TIP3   OH229599   1.403   6.088   9.528 -0.7218  0.1929 -0.4738
 2703TIP3    H129600   1.499   6.087   9.523 -0.7306  1.8186 -1.1907
 2703TIP3    H229601   1.381   6.005   9.570  1.1976  1.3256  2.9727
 2704TIP3   OH229602   4.359   0.700  12.410  0.1846  0.1852 -0.2482
 2704TIP3    H129603   4.289   0.765  12.411  0.1385  0.1470  1.6871
 2704TIP3    H229604   4.435   0.746  12.446  0.4899 -0.4503 -0.0643
 2705TIP3   OH229605   1.142   0.807  10.133 -0.0531 -0.5862  0.1445
 2705TIP3    H129606   1.089   0.774  10.206 -1.3399  0.2213 -0.4032
 2705TIP3    H229607   1.122   0.748  10.060 -0.3339 -0.1672 -0.1151
 2706TIP3   OH229608   2.121   4.197  10.068 -0.2994  0.0067 -0.2583
 2706TIP3    H129609   2.209   4.230  10.046  0.1046 -0.3717  0.7875
 2706TIP3    H229610   2.082   4.174   9.983 -0.3465  2.5607 -0.9741
 2707TIP3   OH229611   1.093   6.793  11.969  0.2188 -0.4637  0.1385
 2707TIP3    H129612   1.150   6.717  11.959 -0.5790 -1.2704  1.6310
 2707TIP3    H229613   1.073   6.820  11.879  0.9523 -1.6633 -0.3919
 2708TIP3   OH229614   1.662   6.550  11.439  0.7202 -0.3357 -0.3838
 2708TIP3    H129615   1.734   6.603  11.471 -0.0451 -1.2179  3.0415
 2708TIP3    H229616   1.697   6.461  11.436 -0.3244 -0.8517  1.8080
 2709TIP3   OH229617   0.227   6.050  12.300  0.4625  0.2196  0.5648
 2709TIP3    H129618   0.268   6.014  12.379 -0.8674 -2.8787 -0.0771
 2709TIP3    H229619   0.136   6.066  12.325  0.0044 -0.8926 -0.3318
 2710TIP3   OH229620   6.276   3.262  11.318 -0.2514 -0.1556 -0.8375
 2710TIP3    H129621   6.287   3.171  11.291 -0.6038 -0.5905  0.4288
 2710TIP3    H229622   6.182   3.277  11.314 -0.2521 -0.0418 -0.4606
 2711TIP3   OH229623   0.927   5.419  10.967  0.4890 -0.2627  0.3780
 2711TIP3    H129624   0.980   5.381  11.037  1.5847  2.1830  0.9167
 2711TIP3    H229625   0.882   5.493  11.009  0.1796  0.4475 -1.1876
 2712TIP3   OH229626   2.729   3.487  10.517 -0.2364 -0.3890  0.0694
 2712TIP3    H129627   2.644   3.507  10.479 -0.2851  0.5255  0.6293
 2712TIP3    H229628   2.784   3.562  10.493 -0.5736  0.7462  2.7165
 2713TIP3   OH229629   6.753   5.210  10.693  0.0658 -0.4270 -0.3445
 2713TIP3    H129630   6.738   5.295  10.652  1.3075 -0.5858 -1.1669
 2713TIP3    H229631   6.702   5.149  10.640 -0.0490 -0.3336 -0.3409
 2714TIP3   OH229632   4.614   7.082  10.735 -0.5973 -0.0059  0.5443
 2714TIP3    H129633   4.629   7.160  10.682  1.8395  0.1178  1.3242
 2714TIP3    H229634   4.617   7.009  10.673  2.1475  0.1415  0.4403
 2715TIP3   OH229635   2.353   1.222  11.574 -0.1346 -0.2799 -0.2284
 2715TIP3    H129636   2.328   1.295  11.518 -2.5813 -1.4210 -0.7359
 2715TIP3    H229637   2.373   1.151  11.514 -2.6153 -1.4622  0.2597
 2716TIP3   OH229638   0.868   4.227  10.692 -0.8454 -0.3767 -0.0678
 2716TIP3    H129639   0.913   4.307  10.721 -0.9326 -0.2071 -0.3984
 2716TIP3    H229640   0.936   4.160  10.692 -0.8483 -0.3836  0.5459
 2717TIP3   OH229641   7.056   6.844  10.767  0.2015 -0.5592 -0.3226
 2717TIP3    H129642   7.113   6.798  10.829  2.4123  1.5274 -0.7297
 2717TIP3    H229643   7.092   6.824  10.681  0.4151  0.8736 -0.5800
 2718TIP3   OH229644   1.081   5.053  11.176 -0.4447  0.0286  0.0959
 2718TIP3    H129645   1.072   5.003  11.094 -1.9025  1.7041 -0.7979
 2718TIP3    H229646   1.075   4.987  11.244 -2.2305 -1.0860 -1.0776
 2719TIP3   OH229647   1.622   4.358  12.002 -0.3551  0.5378  0.5776
 2719TIP3    H129648   1.549   4.313  11.959  1.9375 -0.9581 -1.8544
 2719TIP3    H229649   1.622   4.445  11.963 -0.1135  0.1525 -0.2872
 2720TIP3   OH229650   7.122   0.624  13.161 -0.4425 -0.1567  0.2539
 2720TIP3    H129651   7.036   0.637  13.120 -0.7276  0.9469  1.1569
 2720TIP3    H229652   7.121   0.533  13.191 -1.8518  0.2330  1.4773
 2721TIP3   OH229653   2.084   4.330  10.304  0.5315 -0.4221 -0.0927
 2721TIP3    H129654   2.018   4.291  10.361 -0.6848  1.7531  0.0463
 2721TIP3    H229655   2.071   4.286  10.220  0.4040 -1.5773  0.5162
 2722TIP3   OH229656   0.853   3.993  11.044 -0.4701 -0.2574 -0.3325
 2722TIP3    H129657   0.825   3.909  11.082 -0.3211  0.0193  0.4116
 2722TIP3    H229658   0.780   4.052  11.064 -0.1428  0.0272  0.0080
 2723TIP3   OH229659   1.048   5.800  11.020 -0.0992  0.3660 -0.0729
 2723TIP3    H129660   1.026   5.714  11.055 -0.4233  0.9116  1.0606
 2723TIP3    H229661   1.002   5.803  10.936 -1.1801 -0.0393  0.4932
 2724TIP3   OH229662   7.312   6.334  11.336  0.2453 -0.1452  0.0884
 2724TIP3    H129663   7.263   6.381  11.403  0.5194  0.0907  0.1228
 2724TIP3    H229664   7.254   6.333  11.260 -0.6556 -1.6698  0.7813
 2725TIP3   OH229665   1.535   0.266  10.094  0.1197 -0.3323 -0.4323
 2725TIP3    H129666   1.467   0.209  10.059  0.6246 -1.5659  0.5781
 2725TIP3    H229667   1.499   0.355  10.085 -1.3607 -0.9257 -0.4558
 2726TIP3   OH229668   0.448   0.098  11.259  0.3012 -0.4874  0.1141
 2726TIP3    H129669   0.398   0.176  11.286  1.6008  0.2313  0.4734
 2726TIP3    H229670   0.523   0.096  11.318 -0.6744 -3.0794  1.3282
 2727TIP3   OH229671   2.045   6.214  11.426 -0.1331  0.6763  0.3168
 2727TIP3    H129672   2.094   6.243  11.349  1.1958  0.4633  1.0721
 2727TIP3    H229673   2.052   6.119  11.425 -1.6424  0.5471 -0.2783
 2728TIP3   OH229674   6.420   5.685  11.102 -0.1261  0.6071  0.3636
 2728TIP3    H129675   6.506   5.709  11.136 -0.5475  0.5961  1.4605
 2728TIP3    H229676   6.424   5.706  11.009  0.5771  1.9450  0.6926
 2729TIP3   OH229677   0.975   6.875  11.648 -0.5032  0.2149  0.0366
 2729TIP3    H129678   0.926   6.935  11.704 -0.9524 -0.1346  0.0234
 2729TIP3    H229679   0.919   6.864  11.571 -0.8015 -0.8546  0.3953
 2730TIP3   OH229680   1.702   7.166  10.488  0.0220  0.0143 -0.2850
 2730TIP3    H129681   1.774   7.207  10.536 -0.5243  0.6951 -0.0436
 2730TIP3    H229682   1.677   7.230  10.422 -1.5214  0.5253  0.7685
 2731TIP3   OH229683   2.399   6.041  11.389 -0.7557  0.1711 -0.1990
 2731TIP3    H129684   2.410   6.132  11.362 -0.8013  0.2379  0.0140
 2731TIP3    H229685   2.488   6.010  11.406 -0.8264  0.4878  0.7700
 2732TIP3   OH229686   2.273   6.054  10.360 -0.0959  0.4879  0.2333
 2732TIP3    H129687   2.305   6.068  10.270  1.7456 -0.0940  0.7639
 2732TIP3    H229688   2.259   6.142  10.394  1.1439  0.7746  0.0355
 2733TIP3   OH229689   3.417   7.118  11.325  0.5665  0.3375 -0.0153
 2733TIP3    H129690   3.481   7.170  11.277 -0.5981  1.7276 -0.0829
 2733TIP3    H229691   3.407   7.162  11.409 -0.1452  0.0138  0.0751
 2734TIP3   OH229692   1.770   4.085  12.830  0.0549  0.3896 -0.4911
 2734TIP3    H129693   1.787   4.160  12.774  0.6336  0.4629 -0.2171
 2734TIP3    H229694   1.852   4.071  12.878 -0.1362 -0.2401 -0.3370
 2735TIP3   OH229695   1.801   0.503  12.782 -0.1320 -0.2233  0.2585
 2735TIP3    H129696   1.762   0.536  12.864 -2.9042 -1.7255 -0.3983
 2735TIP3    H229697   1.765   0.561  12.714 -1.0965 -1.4938 -0.3309
 2736TIP3   OH229698   1.696   5.469  10.590 -0.1805 -0.3051 -0.2973
 2736TIP3    H129699   1.709   5.416  10.512  0.9249 -0.9697  0.3296
 2736TIP3    H229700   1.615   5.518  10.572 -0.4342 -1.1224 -1.4667
 2737TIP3   OH229701   1.496   5.888  10.286 -0.0692 -0.1069 -0.1880
 2737TIP3    H129702   1.403   5.904  10.303  0.3063  1.2605  0.6938
 2737TIP3    H229703   1.521   5.956  10.223  0.6072  0.2666  0.4805
 2738TIP3   OH229704   3.572   6.086  10.234 -0.2270  0.3607 -0.2677
 2738TIP3    H129705   3.515   6.012  10.213  0.2452 -0.1047  0.0795
 2738TIP3    H229706   3.564   6.145  10.159 -1.1674  0.3021 -0.2211
 2739TIP3   OH229707   5.525   5.605  11.438  0.2407  0.2453  0.5829
 2739TIP3    H129708   5.603   5.556  11.409 -0.1185  0.3288 -0.5730
 2739TIP3    H229709   5.453   5.565  11.389 -0.3046  0.7814  0.9451
 2740TIP3   OH229710   3.842   6.343  12.400 -0.4240 -0.4319 -0.4352
 2740TIP3    H129711   3.793   6.352  12.318  2.0801 -0.8710 -2.0421
 2740TIP3    H229712   3.859   6.249  12.406  0.6248 -0.2233 -0.1591
 2741TIP3   OH229713   1.875   4.669  10.853 -0.1136  0.1705 -0.0061
 2741TIP3    H129714   1.861   4.754  10.896 -0.8951 -0.7027  1.5066
 2741TIP3    H229715   1.969   4.668  10.833  0.1041  0.9498  0.9303
 2742TIP3   OH229716   1.871   4.142  10.354  0.1693  0.4823 -0.0375
 2742TIP3    H129717   1.930   4.106  10.420 -0.7492 -0.5905  0.2237
 2742TIP3    H229718   1.784   4.138  10.396 -0.3335  0.3186 -1.0845
 2743TIP3   OH229719   5.298   4.384  10.070  0.2631 -0.3866 -0.1522
 2743TIP3    H129720   5.213   4.377  10.027  0.1266  0.1842  0.0268
 2743TIP3    H229721   5.324   4.293  10.085 -0.6930 -0.5538  0.5221
 2744TIP3   OH229722   2.847   4.830  11.031  0.0177 -0.5988 -0.4147
 2744TIP3    H129723   2.779   4.896  11.013  1.8707  0.9040 -2.2171
 2744TIP3    H229724   2.840   4.768  10.958  1.3273  0.2264 -1.2661
 2745TIP3   OH229725   2.140   5.561  10.578  0.6956  0.1343 -0.0277
 2745TIP3    H129726   2.123   5.476  10.617 -0.1703  0.7630  1.0111
 2745TIP3    H229727   2.122   5.623  10.649 -0.2716  1.2741 -1.2533
 2746TIP3   OH229728   4.754   2.558  11.820 -0.0436 -0.2216  0.0841
 2746TIP3    H129729   4.719   2.504  11.749  0.2862  1.3800 -1.3563
 2746TIP3    H229730   4.846   2.532  11.826  0.4402  1.0563 -1.4892
 2747TIP3   OH229731   4.667   6.282  12.498 -0.0357  0.4154  0.1674
 2747TIP3    H129732   4.744   6.339  12.493 -0.4726  0.9341 -0.8449
 2747TIP3    H229733   4.610   6.326  12.561  0.0315  0.6140  0.0940
 2748TIP3   OH229734   3.047   5.935  10.390 -0.4324  0.2402 -0.6282
 2748TIP3    H129735   3.113   6.001  10.369  0.2217 -0.9745 -2.6377
 2748TIP3    H229736   3.025   5.950  10.481  4.1935 -0.5933  0.7747
 2749TIP3   OH229737   3.079   0.377  13.483 -0.2367  0.0300 -0.3636
 2749TIP3    H129738   3.095   0.309  13.417  1.2045 -0.7650  0.7746
 2749TIP3    H229739   3.071   0.329  13.565  0.0125  1.1727  0.3327
 2750TIP3   OH229740   2.679   0.393  11.553  0.2106 -0.1927  0.1179
 2750TIP3    H129741   2.632   0.454  11.610 -0.3950 -1.0380  0.5393
 2750TIP3    H229742   2.676   0.434  11.467 -0.8424  0.0174  0.2456
 2751TIP3   OH229743   1.552   5.711  11.782  0.0386  0.2519 -0.2191
 2751TIP3    H129744   1.640   5.725  11.747 -0.0203  1.1514  0.0085
 2751TIP3    H229745   1.540   5.780  11.846 -1.8132  1.7286 -2.0873
 2752TIP3   OH229746   3.875   6.226  11.526  0.1504  0.0248  0.7981
 2752TIP3    H129747   3.888   6.136  11.495 -1.5192 -0.4479  1.4134
 2752TIP3    H229748   3.812   6.218  11.598  0.7254  1.5813  1.5037
 2753TIP3   OH229749   1.619   6.894  10.599  0.5581  0.2655 -0.1697
 2753TIP3    H129750   1.645   6.971  10.548  1.3412 -0.2489 -0.5619
 2753TIP3    H229751   1.611   6.926  10.688  0.1806  0.9600 -0.4496
 2754TIP3   OH229752   3.677   5.665  10.926  0.1306  0.0577  0.0769
 2754TIP3    H129753   3.661   5.742  10.872  1.5501  0.6852  0.5192
 2754TIP3    H229754   3.675   5.698  11.016 -1.1573 -0.7809  0.3658
 2755TIP3   OH229755   4.814   6.578  11.756 -0.1950 -0.6601 -0.2400
 2755TIP3    H129756   4.861   6.525  11.819  0.8012  0.2870 -0.1658
 2755TIP3    H229757   4.857   6.664  11.759 -2.0800  0.3198  0.0225
 2756TIP3   OH229758   2.330   4.025  13.219 -0.1124 -0.0105  0.8229
 2756TIP3    H129759   2.414   3.980  13.226  0.1920  0.3358 -0.3625
 2756TIP3    H229760   2.268   3.956  13.195  0.2092  0.0464 -0.2224
 2757TIP3   OH229761   3.605   6.083  11.385  0.7694 -0.8070 -0.1883
 2757TIP3    H129762   3.606   6.125  11.299 -0.4554  0.8914  0.6081
 2757TIP3    H229763   3.557   6.001  11.370 -0.3669 -0.0367 -0.9282
 2758TIP3   OH229764   2.445   4.482  10.346 -0.1648 -0.0340 -0.0618
 2758TIP3    H129765   2.365   4.535  10.347 -0.8397 -1.0383 -0.0253
 2758TIP3    H229766   2.470   4.479  10.253 -0.7604 -0.5971 -0.2051
 2759TIP3   OH229767   2.521   2.469  12.998 -0.0441 -0.1169  0.2645
 2759TIP3    H129768   2.580   2.514  12.938 -1.4383 -0.6464 -1.5655
 2759TIP3    H229769   2.558   2.381  13.007 -1.1383 -0.8286 -1.8189
 2760TIP3   OH229770   4.161   5.575  11.792  0.3174  0.1403  0.2643
 2760TIP3    H129771   4.073   5.560  11.758  0.4845 -1.7216  0.6254
 2760TIP3    H229772   4.147   5.612  11.879 -0.1704 -3.1503  1.6645
 2761TIP3   OH229773   2.819   5.716  11.210  0.4145  0.3107 -0.6522
 2761TIP3    H129774   2.909   5.686  11.200 -0.0796 -1.2408 -0.6087
 2761TIP3    H229775   2.824   5.812  11.204  1.9669  0.1955 -1.2924
 2762TIP3   OH229776   4.082   7.340  10.348  0.3087  0.4982 -0.0241
 2762TIP3    H129777   4.036   7.415  10.309  0.9452  0.2862 -1.1984
 2762TIP3    H229778   4.148   7.317  10.284 -0.7757 -1.9472 -0.3084
 2763TIP3   OH229779   3.381   5.666  11.203 -0.3500  0.2967  0.3733
 2763TIP3    H129780   3.441   5.684  11.130 -1.2356 -0.1193 -0.4580
 2763TIP3    H229781   3.423   5.595  11.252 -1.4625 -1.8458 -1.7323
 2764TIP3   OH229782   4.191   0.931  11.274 -0.0659 -0.0859  0.2699
 2764TIP3    H129783   4.158   0.849  11.309 -0.1776 -1.4921 -2.9124
 2764TIP3    H229784   4.149   0.939  11.188  1.6162  2.1818 -0.3920
 2765TIP3   OH229785   0.700   6.152  10.358 -0.1681 -0.3222  0.1221
 2765TIP3    H129786   0.646   6.092  10.306 -0.0363 -1.2367  1.0245
 2765TIP3    H229787   0.677   6.131  10.448 -0.0668  0.9499  0.4494
 2766TIP3   OH229788   3.324   6.530  10.841  0.1396  0.3035 -0.4861
 2766TIP3    H129789   3.228   6.532  10.838 -0.0024 -2.2270  1.4002
 2766TIP3    H229790   3.348   6.604  10.897 -0.7037  0.7357 -0.6797
 2767TIP3   OH229791   3.742   0.561  11.275  1.0668  0.2755 -0.1655
 2767TIP3    H129792   3.817   0.521  11.231  2.8302  1.9790  1.1813
 2767TIP3    H229793   3.759   0.547  11.368  1.1887  3.1434  0.2916
 2768TIP3   OH229794   0.723   1.259  11.121 -0.1309  0.2140  0.1714
 2768TIP3    H129795   0.802   1.308  11.145 -1.1979  1.9425  0.2126
 2768TIP3    H229796   0.753   1.169  11.111  1.5405  0.5491  1.8563
 2769TIP3   OH229797   2.292   7.095  10.341  0.2843 -0.4271 -0.5197
 2769TIP3    H129798   2.262   7.026  10.283  1.3026 -1.9184  0.6788
 2769TIP3    H229799   2.387   7.100  10.326  0.5023 -0.5921  0.7272
 2770TIP3   OH229800   1.703   6.938  11.826  0.2106 -0.2434  0.3476
 2770TIP3    H129801   1.689   6.989  11.747 -0.1140 -0.4675  0.2576
 2770TIP3    H229802   1.636   6.870  11.823  0.2476 -0.3035  0.7736
 2771TIP3   OH229803   3.262   6.261  11.384 -1.0977  0.6744  0.4031
 2771TIP3    H129804   3.215   6.253  11.467 -1.8178  1.2134  0.0437
 2771TIP3    H229805   3.207   6.317  11.329 -0.5166  0.5116 -0.3638
 2772TIP3   OH229806   2.056   7.084   9.766 -0.2506  0.5279 -0.1844
 2772TIP3    H129807   2.013   7.002   9.790 -0.8848  0.2905 -2.0595
 2772TIP3    H229808   2.149   7.062   9.764 -0.5196 -0.5201 -2.0430
 2773TIP3   OH229809   3.199   7.174  10.429  0.1842  0.2432 -0.1470
 2773TIP3    H129810   3.200   7.079  10.414 -1.2575  0.2701 -0.5186
 2773TIP3    H229811   3.136   7.186  10.500  0.0412  0.9665 -0.3941
 2774TIP3   OH229812   3.784   1.322  12.965 -0.1413  0.4594  0.4194
 2774TIP3    H129813   3.705   1.334  12.912  0.5726  0.3723 -0.6784
 2774TIP3    H229814   3.856   1.334  12.903  0.7077  0.5241  1.4145
 2775TIP3   OH229815   0.845   0.697  10.963  0.6473 -0.4077 -0.1343
 2775TIP3    H129816   0.773   0.716  11.024  0.1831 -0.6653 -0.6011
 2775TIP3    H229817   0.837   0.604  10.945  0.2653 -0.1582 -1.2511
 2776TIP3   OH229818   2.861   6.324  11.383 -0.1833  0.4907 -0.2050
 2776TIP3    H129819   2.820   6.243  11.354 -1.0020  1.1581 -0.9580
 2776TIP3    H229820   2.942   6.330  11.331  0.9289 -0.8530  1.3207
 2777TIP3   OH229821   3.571   2.239  10.305 -0.3606  0.0344  0.6414
 2777TIP3    H129822   3.506   2.169  10.308  0.0184 -0.3565 -0.0429
 2777TIP3    H229823   3.527   2.315  10.344 -0.6500 -0.6788  1.7247
 2778TIP3   OH229824   1.012   4.362  11.385 -0.3752  0.5664  0.0696
 2778TIP3    H129825   0.943   4.388  11.447 -0.1708  0.3433  0.3941
 2778TIP3    H229826   1.073   4.311  11.438 -0.6736 -0.4098 -0.5064
 2779TIP3   OH229827   3.418   6.918  11.780  0.1151 -0.3139 -0.1760
 2779TIP3    H129828   3.383   7.003  11.754  0.0504 -0.2098  0.2566
 2779TIP3    H229829   3.415   6.866  11.699 -0.6658 -0.1801 -0.2402
 2780TIP3   OH229830   2.091   6.947  11.069 -0.4569  0.6029  0.2965
 2780TIP3    H129831   2.054   6.867  11.106  1.8204 -1.4127 -1.6290
 2780TIP3    H229832   2.039   6.963  10.990 -1.6015  1.6596  1.2473
 2781TIP3   OH229833   2.907   4.920  11.326 -0.2399  0.1492  0.2605
 2781TIP3    H129834   2.925   4.897  11.235  1.7695  0.0772  0.6587
 2781TIP3    H229835   2.987   4.961  11.357 -0.2783 -1.3422  2.4943
 2782TIP3   OH229836   1.811   6.610  11.913 -0.5413  0.2855  0.3187
 2782TIP3    H129837   1.859   6.615  11.830  1.6936  0.5284  1.5728
 2782TIP3    H229838   1.720   6.626  11.890 -0.3096 -2.0071 -2.4204
 2783TIP3   OH229839   2.643   6.645   9.801 -0.3336 -0.2861  0.7136
 2783TIP3    H129840   2.666   6.575   9.862 -0.8409 -1.1484 -0.0737
 2783TIP3    H229841   2.554   6.624   9.773 -0.6345  0.8874  0.7701
 2784TIP3   OH229842   3.633   7.317  10.181  0.3972 -0.1491  0.1551
 2784TIP3    H129843   3.638   7.241  10.123  0.2344  0.7104 -0.9923
 2784TIP3    H229844   3.543   7.317  10.212 -0.2696  0.9184 -1.6961
 2785TIP3   OH229845   4.094   6.632  10.845  0.2087 -0.2466 -0.7508
 2785TIP3    H129846   4.149   6.689  10.899  1.6080 -2.8029  0.6345
 2785TIP3    H229847   4.119   6.652  10.755  1.8686  0.1614 -0.2132
 2786TIP3   OH229848   3.224   0.330  10.418  0.6599 -0.0808 -0.0186
 2786TIP3    H129849   3.266   0.251  10.452  0.1478 -0.3622 -0.0433
 2786TIP3    H229850   3.255   0.337  10.328  0.6052 -0.3211 -0.0563
 2787TIP3   OH229851   0.600   4.738  10.414 -0.1717  0.4827 -0.3998
 2787TIP3    H129852   0.516   4.692  10.418  0.8364 -1.3440  0.4388
 2787TIP3    H229853   0.627   4.731  10.322 -0.4983  0.2634 -0.4799
 2788TIP3   OH229854   2.396   6.337  10.256 -0.9918 -0.1859  0.1310
 2788TIP3    H129855   2.424   6.258  10.209 -0.2317  1.0103 -1.4325
 2788TIP3    H229856   2.407   6.408  10.194 -1.8329  1.1587  1.4837
 2789TIP3   OH229857   2.689   3.991  10.142 -0.3991 -0.0285 -0.1167
 2789TIP3    H129858   2.669   4.040  10.221  0.1554  1.3816 -0.8337
 2789TIP3    H229859   2.784   3.976  10.145 -0.4762 -0.5592 -0.1851
 2790TIP3   OH229860   4.526   4.374  11.673  0.2888 -0.8900 -0.4481
 2790TIP3    H129861   4.570   4.290  11.681 -0.5865 -1.2692  0.4339
 2790TIP3    H229862   4.521   4.407  11.762  0.1376 -0.1485 -0.7267
 2791TIP3   OH229863   0.983   6.986  11.269  0.1382  0.0567  0.4780
 2791TIP3    H129864   0.997   6.936  11.188  0.6985 -1.0371  1.2426
 2791TIP3    H229865   0.923   6.932  11.320 -1.1681  1.3121  0.3053
 2792TIP3   OH229866   0.852   6.848  10.078  0.5112  0.1528 -0.1513
 2792TIP3    H129867   0.850   6.758  10.110  0.9488  0.4640  0.7965
 2792TIP3    H229868   0.821   6.843   9.988 -2.6719 -0.4929  0.9074
 2793TIP3   OH229869   4.176   4.981  12.742  0.3880  0.2916  0.5723
 2793TIP3    H129870   4.138   4.987  12.830 -1.4734  1.4538 -0.2776
 2793TIP3    H229871   4.107   4.940  12.690  1.6170 -0.6991 -0.2861
 2794TIP3   OH229872   3.681   6.761  11.344 -0.2753 -0.7482 -0.1947
 2794TIP3    H129873   3.590   6.743  11.364 -0.3968  0.4962  0.4120
 2794TIP3    H229874   3.678   6.822  11.271  0.0344  0.4299  0.7610
 2795TIP3   OH229875   2.164   6.623  12.050 -0.2558  0.7422 -0.3535
 2795TIP3    H129876   2.154   6.652  11.960 -0.2199  0.1592 -0.5425
 2795TIP3    H229877   2.258   6.633  12.068 -0.5119  2.4711  0.1727
 2796TIP3   OH229878   2.480   5.886  10.308 -0.7984  0.0597 -0.2953
 2796TIP3    H129879   2.545   5.925  10.367 -1.0164 -0.9462  0.6310
 2796TIP3    H229880   2.405   5.945  10.313 -0.8593 -0.0747  0.5494
 2797TIP3   OH229881   2.575   5.436  10.652 -0.8444 -0.5906 -0.2941
 2797TIP3    H129882   2.618   5.474  10.728 -2.0167  1.4221 -0.5864
 2797TIP3    H229883   2.565   5.343  10.673 -0.6402 -0.1704  1.7531
 2798TIP3   OH229884   2.494   6.490  10.054 -0.2005 -0.0276  0.0915
 2798TIP3    H129885   2.581   6.525  10.076 -0.2700 -0.7127  1.5283
 2798TIP3    H229886   2.452   6.559  10.004  1.6126 -0.1397 -1.6510
 2799TIP3   OH229887   2.569   5.325  11.856  0.1601  0.0802 -0.1164
 2799TIP3    H129888   2.476   5.342  11.838  0.4959  1.7767 -0.2975
 2799TIP3    H229889   2.598   5.401  11.906  2.2076  1.0590 -2.6852
 2800TIP3   OH229890   3.528   0.512  11.136 -0.2093  0.1776 -0.1982
 2800TIP3    H129891   3.620   0.532  11.153  0.0958 -1.8078  0.6829
 2800TIP3    H229892   3.488   0.596  11.118  1.4477  1.2627  1.0486
 2801TIP3   OH229893   0.894   7.144  12.001 -0.2903 -0.1416  0.8453
 2801TIP3    H129894   0.930   7.078  12.060 -0.7747 -1.0704  0.1102
 2801TIP3    H229895   0.964   7.163  11.940 -0.8579 -1.5937 -0.2875
 2802TIP3   OH229896   2.115   5.656  10.334 -0.2060 -0.0411 -0.0215
 2802TIP3    H129897   2.091   5.739  10.376  1.3349  0.1177  0.5429
 2802TIP3    H229898   2.124   5.594  10.406 -2.2053 -0.9453 -0.5031
 2803TIP3   OH229899   1.973   7.266  10.640 -0.1931  0.0124 -0.2956
 2803TIP3    H129900   2.030   7.302  10.709 -0.6650  1.5531 -0.6886
 2803TIP3    H229901   2.014   7.183  10.617  1.7867  0.9808 -0.4212
 2804TIP3   OH229902   5.075   1.164  11.560 -0.0375  0.4448 -0.2379
 2804TIP3    H129903   5.089   1.256  11.585 -0.1589  0.2414  0.5922
 2804TIP3    H229904   5.129   1.114  11.621 -1.6383 -0.1546  0.6987
 2805TIP3   OH229905   4.064   6.430  11.465  0.1244  0.2213  0.3108
 2805TIP3    H129906   3.992   6.367  11.464 -0.2180  0.5646  1.7088
 2805TIP3    H229907   4.140   6.379  11.493 -0.0290  0.2847  0.8650
 2806TIP3   OH229908   2.357   6.579  11.643  0.3475 -0.6422  1.0720
 2806TIP3    H129909   2.306   6.582  11.562 -0.2439  4.2773  1.4999
 2806TIP3    H229910   2.400   6.493  11.641 -2.5902 -2.1596 -2.5792
 2807TIP3   OH229911   3.876   4.489  10.252  0.4695  0.6259  0.1467
 2807TIP3    H129912   3.948   4.483  10.189  0.3409  0.5809  0.0029
 2807TIP3    H229913   3.800   4.512  10.199  0.5379  1.4472  0.4093
 2808TIP3   OH229914   4.486   6.979  11.662  0.2503  0.4309 -0.4160
 2808TIP3    H129915   4.486   6.884  11.646  0.9892  0.5349 -1.0444
 2808TIP3    H229916   4.396   6.998  11.690  0.2043 -0.5162  0.1084
 2809TIP3   OH229917   3.517   0.165  10.761  0.0348 -0.3508 -0.1348
 2809TIP3    H129918   3.538   0.086  10.711 -0.8443 -0.5719 -0.1558
 2809TIP3    H229919   3.585   0.228  10.735  0.0766 -0.7315 -0.9687
 2810TIP3   OH229920   2.703   7.318  11.262 -0.0781  0.2390  0.3520
 2810TIP3    H129921   2.686   7.340  11.170  1.7345 -0.9735 -0.3081
 2810TIP3    H229922   2.760   7.388  11.293  2.5951 -1.4139 -0.6520
 2811TIP3   OH229923   2.614   5.604  10.244 -0.3547  0.2504  0.4278
 2811TIP3    H129924   2.672   5.680  10.253  0.0376  0.2071 -1.6001
 2811TIP3    H229925   2.654   5.537  10.299 -0.0055  1.0998  1.2263
 2812TIP3   OH229926   1.444   5.545  10.475  0.0732 -0.4412 -0.6114
 2812TIP3    H129927   1.472   5.477  10.414  1.1294 -1.1078  0.6022
 2812TIP3    H229928   1.369   5.587  10.431  0.8332 -0.8767 -2.3755
 2813TIP3   OH229929   3.826   6.406  10.068 -0.1048 -0.2135 -0.5614
 2813TIP3    H129930   3.865   6.484  10.108 -1.5148 -0.1913  0.8035
 2813TIP3    H229931   3.866   6.333  10.115  0.8644 -0.3229 -1.5227
 2814TIP3   OH229932   2.905   5.900  10.691  0.6940  0.2044  0.5735
 2814TIP3    H129933   2.996   5.924  10.707  1.2216 -1.6575  0.4926
 2814TIP3    H229934   2.901   5.807  10.713 -1.0325  0.1084 -0.0995
 2815TIP3   OH229935   2.244   0.808  11.588 -0.3026  0.2344 -0.0130
 2815TIP3    H129936   2.266   0.734  11.531  1.1317  0.2827  0.4700
 2815TIP3    H229937   2.328   0.843  11.617 -0.9802  1.5107  0.4849
 2816TIP3   OH229938   3.283   5.921  11.195 -0.0122 -0.2431 -0.0115
 2816TIP3    H129939   3.328   5.837  11.187  0.5577  0.0530  0.0187
 2816TIP3    H229940   3.353   5.986  11.186 -0.0654  0.1992  2.3880
 2817TIP3   OH229941   5.296   6.728  13.405 -0.3347 -0.4730 -0.2946
 2817TIP3    H129942   5.282   6.821  13.392 -0.5229 -0.2387  1.5121
 2817TIP3    H229943   5.390   6.715  13.392 -0.3649 -0.1067 -0.9008
 2818TIP3   OH229944   2.844   0.724  11.292 -0.1603  0.3014 -0.4037
 2818TIP3    H129945   2.850   0.641  11.245  0.0553  0.6935 -1.0779
 2818TIP3    H229946   2.862   0.702  11.383 -0.1503 -0.3969 -0.5761
 2819TIP3   OH229947   3.144   6.866   9.890  0.1892 -0.1334 -0.4099
 2819TIP3    H129948   3.110   6.947   9.927  1.1401 -0.6067  1.5817
 2819TIP3    H229949   3.066   6.812   9.875 -0.2565  0.2242  0.5740
 2820TIP3   OH229950   2.510   1.265  12.925  0.8231 -0.5904 -0.5474
 2820TIP3    H129951   2.479   1.354  12.943 -0.2488 -1.1723  0.5536
 2820TIP3    H229952   2.591   1.277  12.875  0.6017  0.9953 -0.5466
 2821TIP3   OH229953   2.444   0.387  10.215 -0.1769 -0.1367  0.4294
 2821TIP3    H129954   2.374   0.406  10.277  0.3648 -0.7862  1.2508
 2821TIP3    H229955   2.426   0.299  10.184 -0.4970  0.2210 -0.4106
 2822TIP3   OH229956   1.484   4.187  11.321 -0.1525 -0.5355 -0.6328
 2822TIP3    H129957   1.517   4.248  11.256  0.6147 -2.0409 -1.6782
 2822TIP3    H229958   1.561   4.139  11.350 -0.8177 -1.3337 -0.1556
 2823TIP3   OH229959   3.199   6.111  10.252  0.1735  0.4190 -0.0591
 2823TIP3    H129960   3.173   6.190  10.205 -0.3159 -0.7906 -1.8581
 2823TIP3    H229961   3.233   6.053  10.185  3.2380  0.1557  1.6212
 2824TIP3   OH229962   3.164   5.660   9.949 -0.2344  0.1194 -0.2569
 2824TIP3    H129963   3.090   5.685  10.006  0.4944  1.2432  0.2050
 2824TIP3    H229964   3.176   5.735   9.891  1.4025  0.5082  0.5566
 2825TIP3   OH229965   3.494   7.270  11.832 -0.5735 -0.2302  0.6598
 2825TIP3    H129966   3.471   7.358  11.863 -1.0039  0.2576 -0.9962
 2825TIP3    H229967   3.585   7.258  11.860  0.9903  2.5283 -2.9020
 2826TIP3   OH229968   3.334   4.762  10.880 -0.5188 -0.1121  0.3375
 2826TIP3    H129969   3.388   4.744  10.803  1.1061 -1.0490  1.6428
 2826TIP3    H229970   3.394   4.751  10.954 -1.7509  1.8938  1.6907
 2827TIP3   OH229971   3.625   6.106  11.098  0.0640 -0.2679 -0.3510
 2827TIP3    H129972   3.547   6.143  11.058 -0.1143  0.5613  0.7326
 2827TIP3    H229973   3.694   6.121  11.034 -0.5958 -0.7289 -1.1795
 2828TIP3   OH229974   4.428   5.477  10.594  0.3452  0.6026  0.0844
 2828TIP3    H129975   4.490   5.530  10.646 -1.6160  1.7117  1.3602
 2828TIP3    H229976   4.448   5.499  10.503  0.9134  2.0084  0.5329
 2829TIP3   OH229977   3.732   6.867   9.644  0.2766  0.1065 -0.7403
 2829TIP3    H129978   3.697   6.885   9.557 -0.1859 -0.8850 -0.7621
 2829TIP3    H229979   3.657   6.878   9.703  0.9310  2.3073 -0.2725
 2830TIP3   OH229980   2.323   5.885   9.664  0.1386  0.2419  0.2904
 2830TIP3    H129981   2.342   5.974   9.694  0.6916  0.1612  0.1710
 2830TIP3    H229982   2.401   5.835   9.686  0.9170  0.3740 -2.0960
 2831TIP3   OH229983   2.069   5.577  12.931 -0.2046  0.1390  0.1360
 2831TIP3    H129984   2.116   5.550  13.010  1.0735 -0.0894 -0.6860
 2831TIP3    H229985   1.977   5.564  12.952  0.1672 -0.6817  1.3050
 2832TIP3   OH229986   1.851   7.015  11.279 -0.5541  0.2687  0.1048
 2832TIP3    H129987   1.879   6.934  11.236 -1.4424  0.1419 -0.2515
 2832TIP3    H229988   1.926   7.041  11.332  0.3464  0.1065 -1.0712
 2833TIP3   OH229989   2.038   1.407  10.080 -0.4655  0.2241 -0.1941
 2833TIP3    H129990   2.031   1.375  10.170  1.2318  0.5859  0.0900
 2833TIP3    H229991   2.131   1.398  10.059 -0.8530  0.1480 -1.9104
 2834TIP3   OH229992   5.168   6.613  11.811  0.2450 -0.0580 -0.2867
 2834TIP3    H129993   5.196   6.675  11.878 -0.2515  0.2812 -0.3945
 2834TIP3    H229994   5.128   6.667  11.742  1.0351 -0.3745 -1.0048
 2835TIP3   OH229995   2.945   6.696  10.747  0.1238  0.4592  0.5787
 2835TIP3    H129996   2.877   6.665  10.806  0.7387  2.8971  2.6759
 2835TIP3    H229997   2.993   6.617  10.721 -1.7048 -0.9424  1.3689
 2836TIP3   OH229998   1.782   1.805   9.987  0.4322 -0.1555 -0.1834
 2836TIP3    H129999   1.872   1.834   9.976 -0.0598  0.7002 -2.3725
 2836TIP3    H230000   1.730   1.877   9.950 -1.0855 -1.1055  0.0791
 2837TIP3   OH230001   2.027   5.923  11.438  0.1194 -0.3565 -0.1671
 2837TIP3    H130002   2.098   5.859  11.438 -0.5664 -1.1610 -2.0470
 2837TIP3    H230003   1.948   5.872  11.458 -0.5194 -0.2427 -2.2497
 2838TIP3   OH230004   1.802   5.032  11.746  0.4357 -0.4372 -0.1547
 2838TIP3    H130005   1.784   4.973  11.674  2.6048 -0.0083 -1.0980
 2838TIP3    H230006   1.826   4.975  11.819 -0.2689 -0.8064 -0.2040
 2839TIP3   OH230007   2.432   7.253  11.871 -1.2735 -0.1029  0.2880
 2839TIP3    H130008   2.415   7.234  11.779  1.3958  1.4012 -0.5925
 2839TIP3    H230009   2.455   7.169  11.910 -2.4608 -0.7528 -0.4134
 2840TIP3   OH230010   3.553   1.067  10.424 -0.4027 -0.2971  0.5263
 2840TIP3    H130011   3.635   1.073  10.376 -0.6034 -2.8881 -0.2401
 2840TIP3    H230012   3.494   1.128  10.380  1.0993  1.6211  1.1248
 2841TIP3   OH230013   3.666   7.300  10.618  0.2336 -0.3364 -0.4902
 2841TIP3    H130014   3.652   7.215  10.577 -1.3313  1.1634 -3.2115
 2841TIP3    H230015   3.700   7.356  10.547  0.8441  1.4314  1.1340
 2842TIP3   OH230016   3.337   6.762  10.633 -0.5202 -0.3380  0.0991
 2842TIP3    H130017   3.345   6.668  10.653 -0.3314 -0.4013 -0.2721
 2842TIP3    H230018   3.280   6.796  10.702  0.1892 -0.5426  0.7873
 2843TIP3   OH230019   1.355   6.487  12.114 -0.0910  0.4981  0.2996
 2843TIP3    H130020   1.424   6.422  12.101 -0.0281  0.2134  1.9762
 2843TIP3    H230021   1.399   6.561  12.154 -0.6417  0.5421  0.8387
 2844TIP3   OH230022   4.426   5.775  12.095 -0.8260 -0.6170 -0.6348
 2844TIP3    H130023   4.418   5.743  12.005  0.9776 -2.2819 -0.2385
 2844TIP3    H230024   4.519   5.793  12.105 -1.2991  1.3448  0.3271
 2845TIP3   OH230025   1.398   6.756  10.463 -0.7526  0.3594  0.7228
 2845TIP3    H130026   1.400   6.732  10.555 -0.2863  0.9643  0.8711
 2845TIP3    H230027   1.436   6.843  10.460  0.1335 -0.0492 -0.1638
 2846TIP3   OH230028   3.533   0.051  14.098  1.3623 -0.0654  0.2844
 2846TIP3    H130029   3.541   0.018  14.187  0.2239  0.7353  0.7008
 2846TIP3    H230030   3.440   0.041  14.077  1.7395 -0.8449 -1.0471
 2847TIP3   OH230031   3.160   6.709  11.168  0.5142  0.2602 -0.2013
 2847TIP3    H130032   3.244   6.728  11.125 -0.4645  0.9129 -1.8600
 2847TIP3    H230033   3.094   6.739  11.106 -0.9641 -0.5573  0.9489
 2848TIP3   OH230034   3.731   5.771  14.192  0.0354  0.0132  0.4437
 2848TIP3    H130035   3.733   5.676  14.183  1.6080 -0.1661  2.3631
 2848TIP3    H230036   3.732   5.787  14.286  1.1686  1.9460  0.1476
 2849TIP3   OH230037   1.916   7.176  11.916  0.4300  0.0218 -0.1141
 2849TIP3    H130038   1.866   7.187  11.835  0.1336  1.7476  0.2859
 2849TIP3    H230039   1.969   7.098  11.901 -0.3904 -0.2666 -1.5788
 2850TIP3   OH230040   3.973   6.308  10.815 -0.6105  0.4118 -0.4278
 2850TIP3    H130041   3.957   6.348  10.730 -0.3168  0.5950 -0.4000
 2850TIP3    H230042   4.055   6.260  10.803 -0.0586  1.2369  0.0266
 2851TIP3   OH230043   3.060   5.297  10.621 -0.2032 -0.4982 -0.1889
 2851TIP3    H130044   3.149   5.280  10.650 -0.8560 -1.2858  1.3905
 2851TIP3    H230045   3.005   5.256  10.687 -1.7525  1.0912 -0.4772
 2852TIP3   OH230046   3.897   5.576  11.742  0.0708  0.5083 -0.3425
 2852TIP3    H130047   3.824   5.513  11.744 -0.0995  0.7172  0.4321
 2852TIP3    H230048   3.895   5.616  11.829  0.4924  1.2308 -0.6662
 2853TIP3   OH230049   4.730   4.902  12.073 -0.4209  0.4099  0.1672
 2853TIP3    H130050   4.717   4.848  11.995  2.1791  0.3747 -0.2857
 2853TIP3    H230051   4.766   4.984  12.039  1.0792  0.2527  1.3497
 2854TIP3   OH230052   2.035   5.766  10.794 -0.1956 -0.2891 -0.3583
 2854TIP3    H130053   1.969   5.754  10.726  0.5682 -0.7219 -1.0265
 2854TIP3    H230054   2.024   5.691  10.852 -1.9584  0.9289  0.9578
 2855TIP3   OH230055   1.906   5.334  12.666  0.4472 -0.3943  0.2768
 2855TIP3    H130056   1.996   5.358  12.687 -0.2956  0.5027  2.5468
 2855TIP3    H230057   1.859   5.417  12.660 -0.5226 -0.9101  0.5488
 2856TIP3   OH230058   2.884   7.131   9.859 -0.4517  0.3657 -0.1669
 2856TIP3    H130059   2.930   7.197   9.808  0.7505  0.8055  1.4246
 2856TIP3    H230060   2.943   7.113   9.933 -1.4885 -1.2969  0.2798
 2857TIP3   OH230061   2.313   6.735  10.445 -0.0162 -0.0821  1.1233
 2857TIP3    H130062   2.253   6.660  10.446 -1.1097  0.7776  0.7536
 2857TIP3    H230063   2.310   6.766  10.354 -1.0082  1.5443  1.6951
 2858TIP3   OH230064   3.058   7.066  10.045 -0.2040  0.0129  0.3645
 2858TIP3    H130065   3.111   7.141  10.073 -0.5489  0.4185 -0.0534
 2858TIP3    H230066   3.026   7.028  10.126  1.1018 -0.5145  0.6507
 2859TIP3   OH230067   4.592   0.020   9.819 -0.0945  0.2190  0.1274
 2859TIP3    H130068   4.568   0.032   9.911 -1.1562 -1.1641  0.0353
 2859TIP3    H230069   4.567  -0.069   9.798 -1.3128  1.0086 -1.9466
 2860TIP3   OH230070   4.219   0.374  13.009 -0.1378 -0.5402 -0.2743
 2860TIP3    H130071   4.142   0.393  13.063  0.7389 -0.2203  0.8926
 2860TIP3    H230072   4.291   0.416  13.056  0.8137 -1.2241 -1.1184
 2861TIP3   OH230073   1.437   5.813  11.527  0.4226 -0.2296  0.5188
 2861TIP3    H130074   1.471   5.831  11.615  0.6650 -0.7445  0.5354
 2861TIP3    H230075   1.515   5.816  11.471 -0.0446  2.3717 -0.0524
 2862TIP3   OH230076   4.036   5.303  11.101 -0.4212 -0.8006  0.1908
 2862TIP3    H130077   4.028   5.208  11.091  0.4320 -0.7552 -1.0276
 2862TIP3    H230078   4.127   5.316  11.128 -0.1724 -0.2461 -0.8911
 2863TIP3   OH230079   3.496   5.274  10.188  0.1103  0.3044  0.1536
 2863TIP3    H130080   3.466   5.359  10.157  0.4154  0.6431  0.7801
 2863TIP3    H230081   3.543   5.236  10.114  1.5817  1.4719  0.4811
 2864TIP3   OH230082   3.937   6.594  10.241  0.3373 -0.0957 -0.0129
 2864TIP3    H130083   3.926   6.687  10.219  1.8289  0.6101  2.0818
 2864TIP3    H230084   3.927   6.591  10.336  0.7761 -2.0267 -0.0138
 2865TIP3   OH230085   2.370   1.940  11.173 -0.0356 -0.2306  0.2237
 2865TIP3    H130086   2.319   1.896  11.240 -0.3643 -1.5315 -0.8537
 2865TIP3    H230087   2.311   1.946  11.098  0.5821  0.4816 -0.2215
 2866TIP3   OH230088   3.474   6.101  11.642  0.0250  0.0352  0.1338
 2866TIP3    H130089   3.476   6.128  11.550  1.3232 -2.1213 -0.5073
 2866TIP3    H230090   3.457   6.007  11.639  1.4887 -0.3211  2.0234
 2867TIP3   OH230091   5.567   6.397  12.943  0.0452 -0.1748  0.0262
 2867TIP3    H130092   5.586   6.345  12.864  1.5331 -1.3850  1.1514
 2867TIP3    H230093   5.543   6.483  12.909  1.9377 -0.2947 -1.7318
 2868TIP3   OH230094   2.640   6.962   9.884  0.0353 -0.6007  0.4928
 2868TIP3    H130095   2.658   6.895   9.818  0.0200  0.4519 -0.6036
 2868TIP3    H230096   2.714   7.022   9.878  0.3520 -0.8342  1.8928
 2869TIP3   OH230097   2.938   5.552   9.758 -0.1736  0.0592  0.9476
 2869TIP3    H130098   3.021   5.551   9.806  0.6469  0.7955 -0.4121
 2869TIP3    H230099   2.871   5.567   9.825  0.6067 -2.2061  2.2999
 2870TIP3   OH230100   2.459   0.207  11.767  0.1017  0.4491 -1.2375
 2870TIP3    H130101   2.427   0.121  11.795  0.4627  0.7537  0.1463
 2870TIP3    H230102   2.549   0.190  11.740 -0.0827  0.2473 -1.7303
 2871TIP3   OH230103   1.212   6.786  10.120  0.4040 -0.0789  0.5101
 2871TIP3    H130104   1.182   6.847  10.187  2.4380 -0.0244  1.3949
 2871TIP3    H230105   1.246   6.841  10.050 -0.4268 -0.1574  0.0428
 2872TIP3   OH230106   5.056   3.884  11.679 -0.2446 -0.1638  0.7225
 2872TIP3    H130107   5.087   3.969  11.708 -0.7504  1.2536 -2.6306
 2872TIP3    H230108   5.068   3.885  11.584  0.5776 -4.1930  0.6733
 2873TIP3   OH230109   6.228   7.129  12.095  0.2047  0.0956  0.1496
 2873TIP3    H130110   6.289   7.201  12.077 -1.3838  1.2175 -0.8690
 2873TIP3    H230111   6.246   7.104  12.186  0.7797  1.8007  0.5154
 2874TIP3   OH230112   0.226   0.627  10.381 -0.3773  0.1884 -0.1441
 2874TIP3    H130113   0.282   0.690  10.336  0.4177 -0.7493 -0.4916
 2874TIP3    H230114   0.174   0.588  10.311 -1.6973  1.2857  0.2190
 2875TIP3   OH230115   3.243   6.249  12.502 -0.0005  0.3892 -0.1453
 2875TIP3    H130116   3.303   6.208  12.440 -1.4506  0.7128 -1.8178
 2875TIP3    H230117   3.201   6.175  12.547  1.4931  0.1641  0.8952
 2876TIP3   OH230118   1.260   6.129   9.921  0.2366  0.5928  0.3650
 2876TIP3    H130119   1.262   6.047   9.872 -0.3107  0.0313  1.2785
 2876TIP3    H230120   1.208   6.188   9.866 -0.9633 -0.2395  0.5832
 2877TIP3   OH230121   1.657   5.259  10.780  0.0064 -0.4007  0.7090
 2877TIP3    H130122   1.604   5.207  10.720  0.8806 -1.8045  1.1223
 2877TIP3    H230123   1.660   5.346  10.740 -0.3965 -1.0024 -0.6793
 2878TIP3   OH230124   3.166   6.749  11.840 -0.0978 -0.0982 -0.0793
 2878TIP3    H130125   3.169   6.656  11.819  1.6787  0.0141 -0.4521
 2878TIP3    H230126   3.233   6.789  11.783 -0.7170  1.3737  0.1879
 2879TIP3   OH230127   2.762   6.122  10.780  0.3610 -0.1755 -0.1976
 2879TIP3    H130128   2.707   6.113  10.857  0.0776  0.5460 -0.3103
 2879TIP3    H230129   2.803   6.036  10.769  1.7251  0.1808  1.7613
 2880TIP3   OH230130   2.529   5.773  12.150  0.8878 -0.1017 -0.0808
 2880TIP3    H130131   2.491   5.757  12.063 -0.4657 -0.0511  0.4928
 2880TIP3    H230132   2.575   5.857  12.141  0.4923  0.0530 -0.6625
 2881TIP3   OH230133   3.526   0.216  10.470  0.1572  0.3605  0.2748
 2881TIP3    H130134   3.456   0.172  10.518 -0.0596  1.0994  0.6427
 2881TIP3    H230135   3.581   0.145  10.437  0.5136 -0.1490  1.9163
 2882TIP3   OH230136   3.295   5.734  10.286  0.1528  0.1535  0.2198
 2882TIP3    H130137   3.375   5.772  10.250  0.4091 -0.7508 -0.1551
 2882TIP3    H230138   3.225   5.785  10.246  0.5495  1.3985  1.0617
 2883TIP3   OH230139   0.807   5.990  13.356 -0.1171 -0.1890 -0.3449
 2883TIP3    H130140   0.766   5.904  13.355  0.9445 -0.7230  1.3577
 2883TIP3    H230141   0.740   6.048  13.319 -2.0411 -1.2078  1.4430
 2884TIP3   OH230142   2.665   5.971  10.513 -0.2354  0.1920 -0.6081
 2884TIP3    H130143   2.733   6.034  10.536  0.9063 -0.7127 -1.4489
 2884TIP3    H230144   2.671   5.903  10.580  1.3749 -1.1425 -2.0587
 2885TIP3   OH230145   4.027   5.571   9.827  0.0168 -0.2503 -0.1689
 2885TIP3    H130146   4.057   5.619   9.903  0.6869  0.4698 -0.8765
 2885TIP3    H230147   4.086   5.598   9.756 -1.5933  0.3367 -1.3228
 2886TIP3   OH230148   2.037   4.854   9.756  0.7839 -0.2694  0.5116
 2886TIP3    H130149   2.022   4.936   9.802 -0.2182 -0.7850  1.1396
 2886TIP3    H230150   1.952   4.810   9.758  1.2578 -1.2275  0.0080
 2887TIP3   OH230151   3.820   6.100  10.915 -0.1222  0.1940 -0.1823
 2887TIP3    H130152   3.874   6.031  10.955 -0.3639 -0.3754 -0.8490
 2887TIP3    H230153   3.882   6.171  10.899  0.2820 -0.1635 -0.2239
 2888TIP3   OH230154   3.378   5.444  10.646  0.2831 -0.2556 -0.3735
 2888TIP3    H130155   3.325   5.484  10.577  0.0510  0.8563  0.4365
 2888TIP3    H230156   3.431   5.379  10.600  0.1802  0.5108 -1.6162
 2889TIP3   OH230157   2.546   6.356  10.513 -0.4040 -0.0911 -0.9244
 2889TIP3    H130158   2.512   6.298  10.581  0.6096  0.6030  0.1913
 2889TIP3    H230159   2.493   6.336  10.436 -2.0546 -0.3887  0.2547
 2890TIP3   OH230160   0.535   5.659  11.114 -0.1707  0.6418  0.5248
 2890TIP3    H130161   0.587   5.680  11.191  0.3406  1.7207 -0.1110
 2890TIP3    H230162   0.480   5.586  11.142  0.3356  0.7223  1.7682
 2891TIP3   OH230163   5.459   4.627  10.037 -0.4563  0.0335 -0.5032
 2891TIP3    H130164   5.424   4.655   9.953 -0.7609  0.6167 -0.1930
 2891TIP3    H230165   5.411   4.547  10.058 -1.9639  1.0655  0.1280
 2892TIP3   OH230166   4.847   5.460  10.957  0.3791 -0.4271  0.0251
 2892TIP3    H130167   4.910   5.444  10.887  0.0300  1.0527 -0.6485
 2892TIP3    H230168   4.874   5.543  10.996  0.7239 -1.3521  1.8356
 2893TIP3   OH230169   3.554   1.304  11.834  0.1215 -0.2942 -0.1859
 2893TIP3    H130170   3.605   1.373  11.793  1.2566 -1.7394 -1.2961
 2893TIP3    H230171   3.595   1.291  11.919  2.8533 -2.6234 -1.7219
 2894TIP3   OH230172   2.966   0.341  10.950 -0.6842 -0.3882  0.7133
 2894TIP3    H130173   2.965   0.316  10.858 -1.2828 -1.0005  0.8858
 2894TIP3    H230174   3.040   0.294  10.987 -1.5818 -1.6220  0.9559
 2895TIP3   OH230175   2.096   6.281  12.623 -0.0409  0.1547  0.1332
 2895TIP3    H130176   2.165   6.251  12.682 -0.7057 -0.7316  0.4704
 2895TIP3    H230177   2.098   6.377  12.630 -0.1702  0.0488  1.6537
 2896TIP3   OH230178   4.505   4.631  11.080 -0.2506 -0.7723 -0.8572
 2896TIP3    H130179   4.533   4.556  11.132 -1.1070 -0.4615  0.0618
 2896TIP3    H230180   4.423   4.603  11.038 -0.2790 -0.5495 -0.9559
 2897TIP3   OH230181   4.739   0.544  11.402 -0.2662  0.0329 -0.5227
 2897TIP3    H130182   4.701   0.599  11.471  1.3658 -0.0930  0.5070
 2897TIP3    H230183   4.803   0.601  11.359  1.2575 -0.9640  0.3913
 2898TIP3   OH230184   3.537   6.296  10.026 -0.9968  0.3253 -0.3475
 2898TIP3    H130185   3.621   6.339  10.044 -0.2754 -0.6341 -1.3326
 2898TIP3    H230186   3.516   6.321   9.936 -0.9769 -0.7040 -0.6437
 2899TIP3   OH230187   2.649   0.025  10.000 -0.5862 -0.4482 -0.1562
 2899TIP3    H130188   2.594  -0.019   9.935 -2.2340 -0.0356  0.9240
 2899TIP3    H230189   2.642   0.118   9.978 -0.0850 -0.4104 -0.1709
 2900TIP3   OH230190   4.644   6.579  10.022  0.7719 -0.2614 -0.5563
 2900TIP3    H130191   4.585   6.632   9.968 -0.5182 -0.1209  0.9470
 2900TIP3    H230192   4.680   6.640  10.086 -0.3931 -1.0614  0.9135
 2901TIP3   OH230193   5.832   4.328  10.408 -0.0599  0.1637  0.3443
 2901TIP3    H130194   5.739   4.334  10.389  0.5223  1.4851 -2.4247
 2901TIP3    H230195   5.851   4.234  10.409 -1.7350 -0.1779  2.7807
 2902TIP3   OH230196   7.214   6.021  12.582  0.4886 -0.7551  0.2879
 2902TIP3    H130197   7.309   6.026  12.598  0.3584 -0.3985  0.9734
 2902TIP3    H230198   7.178   5.993  12.666 -0.1130  0.0979  0.3175
 2903TIP3   OH230199   5.772   5.844  10.506  0.0393 -0.3181  0.5933
 2903TIP3    H130200   5.845   5.859  10.446  0.3917 -2.3002  0.4923
 2903TIP3    H230201   5.694   5.862  10.454  0.3987 -0.1654  0.1086
 2904TIP3   OH230202   6.280   6.238  11.509 -0.3638  0.6382 -0.3835
 2904TIP3    H130203   6.303   6.252  11.600 -1.3285 -1.3315  0.1800
 2904TIP3    H230204   6.341   6.170  11.479 -0.8318  0.4196 -0.8546
 2905TIP3   OH230205   2.264   5.015  12.184 -1.1284  0.6958  0.2278
 2905TIP3    H130206   2.308   5.068  12.118 -0.8349 -1.8057 -1.6567
 2905TIP3    H230207   2.171   5.032  12.169 -0.9771  2.4684  1.2031
 2906TIP3   OH230208   5.494   5.806  11.778  0.2816 -0.3834  0.3014
 2906TIP3    H130209   5.495   5.786  11.872  0.7418 -1.4795  0.0671
 2906TIP3    H230210   5.536   5.731  11.737 -1.6671 -0.8127 -0.9499
 2907TIP3   OH230211   0.655   5.991  11.773  0.5429  0.3014  0.1712
 2907TIP3    H130212   0.682   6.013  11.863 -0.5666  2.4909  0.0095
 2907TIP3    H230213   0.674   6.070  11.723 -0.5017 -0.2845 -1.1722
 2908TIP3   OH230214   5.795   6.174  12.045  0.4379  0.2419 -0.0782
 2908TIP3    H130215   5.765   6.116  11.975 -0.2315  0.4607  0.0211
 2908TIP3    H230216   5.858   6.232  12.003  1.4463 -0.8346 -0.0808
 2909TIP3   OH230217   4.585   6.961   9.901 -0.9286 -0.1753  0.2170
 2909TIP3    H130218   4.560   7.000   9.817  0.5852 -0.6185 -0.4525
 2909TIP3    H230219   4.532   6.881   9.907 -2.0416  0.5559  0.3347
 2910TIP3   OH230220   3.869   6.671  10.502 -0.5128  0.4097  0.3693
 2910TIP3    H130221   3.787   6.719  10.512 -0.2404  0.6166  1.8611
 2910TIP3    H230222   3.850   6.584  10.539  0.2895  0.8844  1.9591
 2911TIP3   OH230223   4.330   7.226  10.952  0.0342  0.3410  0.0982
 2911TIP3    H130224   4.322   7.299  11.014  0.6225  1.9254 -1.6675
 2911TIP3    H230225   4.404   7.175  10.985  0.0144  0.8781  0.9978
 2912TIP3   OH230226   4.142   6.007  10.926  0.1854  0.2609  0.0722
 2912TIP3    H130227   4.207   5.996  10.857  0.8939 -1.3264  0.9693
 2912TIP3    H230228   4.102   5.920  10.936 -1.1720  0.9032  0.4377
 2913TIP3   OH230229   2.817   6.292  12.833  0.1910  0.7348  0.0656
 2913TIP3    H130230   2.894   6.236  12.840 -0.6871 -0.4965 -0.0880
 2913TIP3    H230231   2.853   6.381  12.837  1.4696  0.1793  1.6647
 2914TIP3   OH230232   4.905   5.943  11.963  0.0877 -0.0090 -0.1140
 2914TIP3    H130233   4.855   6.022  11.948  0.5933  0.2513 -0.4463
 2914TIP3    H230234   4.842   5.881  12.000 -0.8495 -0.2025 -1.9779
 2915TIP3   OH230235   6.130   4.740  10.545  0.5311  0.2810  0.2564
 2915TIP3    H130236   6.084   4.684  10.482 -0.5553  1.0057  0.3989
 2915TIP3    H230237   6.141   4.684  10.622  1.8155 -0.5916 -0.5160
 2916TIP3   OH230238   6.279   5.991  13.945 -0.0550 -0.4008 -0.1838
 2916TIP3    H130239   6.304   6.071  13.898 -1.3539 -1.0032 -1.9779
 2916TIP3    H230240   6.281   6.015  14.037 -1.3426  1.9794 -0.7341
 2917TIP3   OH230241   3.415   6.838  11.339  0.1202  0.2508 -0.0910
 2917TIP3    H130242   3.440   6.929  11.323 -0.0363  0.3118  0.0061
 2917TIP3    H230243   3.376   6.839  11.426 -0.8356  0.2817 -0.5109
 2918TIP3   OH230244   6.530   0.222  12.844  0.1653  0.3362  0.0385
 2918TIP3    H130245   6.601   0.200  12.784  0.9112  1.6912  0.4109
 2918TIP3    H230246   6.554   0.308  12.879 -1.0274  0.2373  1.1168
 2919TIP3   OH230247   3.174   6.028  10.803 -0.3714  0.6895 -0.1931
 2919TIP3    H130248   3.224   6.109  10.794  2.2231 -0.5982  1.9345
 2919TIP3    H230249   3.145   6.028  10.895  0.6738 -1.3214  0.1574
 2920TIP3   OH230250   6.927   4.386  12.294  0.0212 -0.2948  0.1505
 2920TIP3    H130251   6.965   4.445  12.230 -1.3106 -0.1680 -0.5497
 2920TIP3    H230252   6.933   4.300  12.254 -1.4005 -0.1317 -0.4541
 2921TIP3   OH230253   5.293   6.451  10.004  0.4190 -0.1941  0.2974
 2921TIP3    H130254   5.242   6.391  10.059  1.4379 -1.5129 -0.1807
 2921TIP3    H230255   5.329   6.396   9.934  4.2264  0.2695  1.7647
 2922TIP3   OH230256   4.272   7.219   9.755 -0.8338 -0.2100 -0.0200
 2922TIP3    H130257   4.266   7.313   9.736  0.5146 -0.1414 -0.1712
 2922TIP3    H230258   4.183   7.193   9.778 -1.6554  0.6461 -2.1045
 2923TIP3   OH230259   0.060   6.166  11.764 -0.1005 -0.1190 -0.3742
 2923TIP3    H130260   0.064   6.257  11.795 -1.3030 -0.1381 -0.1418
 2923TIP3    H230261  -0.007   6.167  11.695 -2.2663 -1.3977  1.6599
 2924TIP3   OH230262   6.390   6.916  11.473 -0.2169  0.4739  0.1299
 2924TIP3    H130263   6.365   6.836  11.426 -0.1556  1.2513 -1.2550
 2924TIP3    H230264   6.431   6.884  11.554  1.0636 -0.9173 -1.0401
 2925TIP3   OH230265   4.313   5.215  10.504 -0.1993  0.0631  0.7534
 2925TIP3    H130266   4.282   5.305  10.495 -0.8752 -0.4780 -2.7937
 2925TIP3    H230267   4.407   5.224  10.521  0.1558  1.4163 -1.7191
 2926TIP3   OH230268   4.563   5.996  10.503 -0.5999  0.1322  0.1579
 2926TIP3    H130269   4.527   6.026  10.420 -0.7435  1.7979  0.8013
 2926TIP3    H230270   4.612   6.072  10.537 -0.0320 -0.7250  1.2948
 2927TIP3   OH230271   2.583   4.674  11.708  0.0528  0.4815  0.2071
 2927TIP3    H130272   2.541   4.744  11.758  0.4331 -0.1537  1.4345
 2927TIP3    H230273   2.588   4.600  11.769 -0.6887 -0.7463 -1.1916
 2928TIP3   OH230274   5.020   5.803  11.661 -0.0480  0.2869  0.1817
 2928TIP3    H130275   5.013   5.888  11.704  0.4513  1.2961 -1.6466
 2928TIP3    H230276   4.952   5.805  11.594  0.9797 -0.1253 -0.8861
 2929TIP3   OH230277   1.053   1.549  13.082 -0.6342  1.0412  0.4431
 2929TIP3    H130278   1.035   1.635  13.043 -1.7611  1.5600  2.0780
 2929TIP3    H230279   1.105   1.568  13.160 -1.1093  0.2556  0.9572
 2930TIP3   OH230280   3.321   6.259  10.795  0.2942 -0.0405 -0.1407
 2930TIP3    H130281   3.241   6.290  10.753 -0.1194  1.6092  1.8015
 2930TIP3    H230282   3.375   6.337  10.804  0.9166 -0.6168  1.2002
 2931TIP3   OH230283   4.770   6.810  10.321 -0.2024 -0.0129 -0.3925
 2931TIP3    H130284   4.813   6.728  10.344 -0.3532  0.1146  0.3405
 2931TIP3    H230285   4.778   6.815  10.226 -1.1185 -1.3911 -0.5589
 2932TIP3   OH230286   3.177   2.563  13.831 -0.3391  0.5170 -0.4301
 2932TIP3    H130287   3.122   2.535  13.904  0.2180  0.3655 -0.0694
 2932TIP3    H230288   3.155   2.655  13.818 -0.2719  0.6052  0.0774
 2933TIP3   OH230289   3.291   5.951  10.030  0.4535 -0.1051  0.5337
 2933TIP3    H130290   3.359   5.895  10.069  0.8184 -0.3756 -0.4782
 2933TIP3    H230291   3.321   5.966   9.941 -1.2007 -0.8361 -0.1659
 2934TIP3   OH230292   4.487   5.520  10.321  0.1230 -0.2197  0.3424
 2934TIP3    H130293   4.429   5.552  10.252  3.0686 -0.3391 -2.3332
 2934TIP3    H230294   4.533   5.598  10.351  1.4544 -0.6995 -0.4182
 2935TIP3   OH230295   2.240   6.982  12.406  0.0858  0.5607 -0.0495
 2935TIP3    H130296   2.300   6.910  12.385 -1.6796 -0.8612 -0.3483
 2935TIP3    H230297   2.277   7.057  12.360  1.2579 -0.4467 -0.7992
 2936TIP3   OH230298   6.489   6.486  12.622 -0.0043  0.2402  0.6698
 2936TIP3    H130299   6.413   6.476  12.564 -1.4019 -1.6813  2.7627
 2936TIP3    H230300   6.541   6.556  12.581 -2.4172  0.9663 -1.2910
 2937TIP3   OH230301   4.651   7.218  10.173  0.5776 -0.1521  0.1655
 2937TIP3    H130302   4.715   7.194  10.105 -0.1204 -0.0407 -0.5377
 2937TIP3    H230303   4.603   7.292  10.136  0.1761 -0.0989  0.7783
 2938TIP3   OH230304   6.099   5.294  13.482 -0.1018  0.8091 -0.0787
 2938TIP3    H130305   6.127   5.337  13.562  0.1430  2.2130 -0.8991
 2938TIP3    H230306   6.023   5.241  13.508  1.2380 -0.3970  1.4725
 2939TIP3   OH230307   2.337   5.382  12.123  0.2902  0.2224  0.7522
 2939TIP3    H130308   2.275   5.455  12.120 -1.5320 -1.2824  0.9048
 2939TIP3    H230309   2.422   5.423  12.139 -0.7167  2.2945  0.9181
 2940TIP3   OH230310   5.440   4.945  10.171  0.3620 -0.2899  0.6724
 2940TIP3    H130311   5.472   4.883  10.106  0.1218  2.1613 -1.8636
 2940TIP3    H230312   5.496   5.022  10.162 -1.4374  1.1552  1.4088
 2941TIP3   OH230313   4.556   2.747  10.650 -0.1873  0.2760 -0.2894
 2941TIP3    H130314   4.528   2.699  10.728 -1.2284  1.0552 -0.1668
 2941TIP3    H230315   4.624   2.693  10.611  0.1646 -0.2391  1.0307
 2942TIP3   OH230316   6.705   4.898  11.687 -0.3164 -0.4866 -0.2601
 2942TIP3    H130317   6.689   4.807  11.662 -1.5970 -0.4708  0.4249
 2942TIP3    H230318   6.757   4.892  11.767  0.3730 -0.6070 -0.7232
 2943TIP3   OH230319   3.865   6.904  10.887 -0.2248 -0.8292  0.7274
 2943TIP3    H130320   3.886   6.951  10.968 -1.0213 -1.6627  1.4308
 2943TIP3    H230321   3.776   6.871  10.901 -1.5622  1.5468 -1.6819
 2944TIP3   OH230322   3.560   0.433  11.447  0.8692  0.4713  0.1924
 2944TIP3    H130323   3.605   0.464  11.368  0.3355 -1.2768 -0.8438
 2944TIP3    H230324   3.610   0.356  11.474 -0.2919 -0.3163  0.1788
 2945TIP3   OH230325   5.367   6.659  10.219  0.3183  0.2515  0.7472
 2945TIP3    H130326   5.418   6.605  10.159 -0.6039  0.1374  0.0514
 2945TIP3    H230327   5.373   6.748  10.183 -0.5897  0.1124  0.2289
 2946TIP3   OH230328   4.336   6.569  10.395 -0.3070  0.3992  0.3366
 2946TIP3    H130329   4.319   6.608  10.309  0.8451  2.2847  0.9102
 2946TIP3    H230330   4.364   6.643  10.449 -2.1403 -0.5550  2.6761
 2947TIP3   OH230331   3.232   5.493  10.422 -0.8184  0.5458 -0.0704
 2947TIP3    H130332   3.143   5.522  10.442 -0.5486  1.4277 -0.1474
 2947TIP3    H230333   3.264   5.554  10.356 -0.2389  0.0897 -0.2167
 2948TIP3   OH230334   4.103   5.401  10.855  0.1981  0.0686  0.4478
 2948TIP3    H130335   4.081   5.366  10.942 -1.4475  0.1706  0.1013
 2948TIP3    H230336   4.019   5.431  10.821  1.1615  1.8625 -0.3748
 2949TIP3   OH230337   5.219   6.804  10.561  0.2834 -0.2666 -0.5624
 2949TIP3    H130338   5.301   6.776  10.520 -0.0671  0.8496 -2.0772
 2949TIP3    H230339   5.169   6.843  10.489 -1.2856 -0.3131  0.4963
 2950TIP3   OH230340   5.449   6.614  10.759 -0.2988  0.2528 -0.3643
 2950TIP3    H130341   5.362   6.619  10.721 -0.6984 -0.5284  0.4146
 2950TIP3    H230342   5.508   6.604  10.684 -0.8277  1.2319 -0.9168
 2951TIP3   OH230343   5.660   5.284  10.502  0.9034 -0.9091 -0.1719
 2951TIP3    H130344   5.625   5.197  10.483 -1.2160 -0.3367  0.9488
 2951TIP3    H230345   5.614   5.311  10.582  3.6290  0.0695  1.1293
 2952TIP3   OH230346   3.971   5.329   9.989 -0.1159  0.1746  0.1610
 2952TIP3    H130347   3.984   5.399   9.925 -0.2233  0.3361  0.3127
 2952TIP3    H230348   3.975   5.374  10.074  0.3111 -0.0818  0.2762
 2953TIP3   OH230349   5.033   0.674  10.623 -0.1405 -0.1280  0.6356
 2953TIP3    H130350   5.063   0.751  10.575  0.7428 -0.2625  0.9633
 2953TIP3    H230351   5.063   0.600  10.571  1.0126 -0.2777  1.5018
 2954TIP3   OH230352   0.659   5.576  12.365 -0.0927  0.2474 -0.0279
 2954TIP3    H130353   0.710   5.588  12.444 -0.8009  0.9955  0.3252
 2954TIP3    H230354   0.720   5.597  12.294 -0.1146  1.8573  0.4155
 2955TIP3   OH230355   5.534   1.910  12.121 -0.0250 -0.0819  0.1641
 2955TIP3    H130356   5.487   1.892  12.040  1.3157  0.7070 -0.8100
 2955TIP3    H230357   5.483   1.978  12.164 -0.7090 -0.4626 -0.0528
 2956TIP3   OH230358   5.240   7.294  11.128  0.3207  0.3703  0.2270
 2956TIP3    H130359   5.204   7.369  11.176 -1.4979 -0.4510  0.1695
 2956TIP3    H230360   5.318   7.329  11.085  0.7145  1.6919  1.9377
 2957TIP3   OH230361   3.125   6.390  11.183  0.8714  0.5876  0.4911
 2957TIP3    H130362   3.061   6.369  11.115  0.0636  1.4714  0.9587
 2957TIP3    H230363   3.105   6.480  11.208  2.0720  0.7538  0.9069
 2958TIP3   OH230364   5.019   6.948  14.938 -0.4375  0.6485 -0.2726
 2958TIP3    H130365   5.063   6.900  14.868 -0.7852  0.7087 -0.5372
 2958TIP3    H230366   5.082   6.950  15.009  1.3463  3.8556 -1.8686
 2959TIP3   OH230367   5.125   5.835  12.094 -0.0781 -0.2173  0.3734
 2959TIP3    H130368   5.177   5.889  12.154  0.2907 -1.9903  1.7160
 2959TIP3    H230369   5.077   5.897  12.040 -0.0554  1.4404  2.2145
 2960TIP3   OH230370   2.828   0.249  11.330 -0.1835 -0.2415 -0.5699
 2960TIP3    H130371   2.765   0.320  11.320  1.9820  2.1314  1.9166
 2960TIP3    H230372   2.874   0.245  11.246  2.3339  4.0560  0.4585
 2961TIP3   OH230373   6.300   5.685  10.126 -0.6326 -0.3915 -0.3247
 2961TIP3    H130374   6.300   5.781  10.122 -0.7153 -0.4464 -2.1086
 2961TIP3    H230375   6.229   5.659  10.066 -1.9406 -1.5246  1.6704
 2962TIP3   OH230376   5.764   5.911  10.888  0.3791 -0.0704  0.1500
 2962TIP3    H130377   5.848   5.878  10.919  0.9212 -0.1377 -1.3683
 2962TIP3    H230378   5.786   5.983  10.829 -0.6116 -0.2557 -0.4570
 2963TIP3   OH230379   7.308   5.928  11.276  0.1711  0.0983  0.6455
 2963TIP3    H130380   7.318   5.833  11.266  1.3331  0.1989  0.8189
 2963TIP3    H230381   7.251   5.937  11.353  2.0568 -0.4372  2.1456
 2964TIP3   OH230382   5.260   1.426   9.928 -0.2710 -0.1727  0.0127
 2964TIP3    H130383   5.219   1.388   9.851 -0.2727 -0.5098  0.1785
 2964TIP3    H230384   5.352   1.435   9.905 -0.1429 -0.9216  0.2176
 2965TIP3   OH230385   2.523   6.301  11.947  0.5087  0.4329  0.1311
 2965TIP3    H130386   2.589   6.319  12.014  0.9316  0.2877 -0.2492
 2965TIP3    H230387   2.440   6.303  11.995  0.7568  0.9441  0.5450
 2966TIP3   OH230388   2.508   6.443  10.902  0.5497  0.1273 -0.2392
 2966TIP3    H130389   2.425   6.403  10.877 -1.0409  2.4368  1.2037
 2966TIP3    H230390   2.542   6.386  10.971 -0.6867  0.0943  0.3627
 2967TIP3   OH230391   5.308   6.417  10.929  0.0245 -0.2562 -0.3769
 2967TIP3    H130392   5.316   6.357  10.855 -1.4080 -0.2632 -0.5330
 2967TIP3    H230393   5.344   6.500  10.897  2.8115 -1.2240  0.1120
 2968TIP3   OH230394   6.908   0.713  11.161 -0.0490  0.4620  0.6245
 2968TIP3    H130395   6.895   0.726  11.067  0.6826 -0.9118  0.3176
 2968TIP3    H230396   6.991   0.758  11.180  0.6563 -0.6534  0.2679
 2969TIP3   OH230397   5.286   5.841  10.964  0.0792  0.7310  0.4953
 2969TIP3    H130398   5.290   5.892  10.883 -0.9727  1.8552  1.1314
 2969TIP3    H230399   5.375   5.845  11.000  0.4387  0.6020 -0.3728
 2970TIP3   OH230400   3.338   1.291  10.727 -0.3420  0.2278  0.1834
 2970TIP3    H130401   3.318   1.318  10.816  0.0165  0.8561  0.0746
 2970TIP3    H230402   3.392   1.362  10.691  0.1759 -0.3872 -0.2712
 2971TIP3   OH230403   4.139   5.969  11.826  0.0322  0.2174  0.0542
 2971TIP3    H130404   4.122   5.945  11.917  1.3459  2.0900  0.8327
 2971TIP3    H230405   4.054   5.997  11.792 -0.3221  0.2430  0.9476
 2972TIP3   OH230406   4.890   6.923  12.898  0.3270  0.1661 -0.1319
 2972TIP3    H130407   4.978   6.893  12.875  0.5371  1.6938 -1.4303
 2972TIP3    H230408   4.841   6.919  12.816 -0.2074  1.3453  0.1169
 2973TIP3   OH230409   4.369   5.180  11.707 -0.4941  0.6525 -0.5570
 2973TIP3    H130410   4.361   5.116  11.636 -0.5408 -0.7326  0.6696
 2973TIP3    H230411   4.426   5.137  11.771  0.9995  2.6009 -0.5478
 2974TIP3   OH230412   5.260   7.083  10.067 -0.3970  0.7761  0.0644
 2974TIP3    H130413   5.338   7.028  10.059 -0.2557  1.1229 -1.0748
 2974TIP3    H230414   5.294   7.171  10.082 -0.5622  0.9237 -0.4116
 2975TIP3   OH230415   4.789   6.882  10.052 -0.3358 -0.0414  0.3186
 2975TIP3    H130416   4.875   6.906  10.019 -0.5381  0.3266  0.0447
 2975TIP3    H230417   4.730   6.901   9.978 -0.6069 -0.5659  0.4046
 2976TIP3   OH230418   6.053   4.838  12.363 -0.0556 -0.4727 -0.1903
 2976TIP3    H130419   5.993   4.908  12.338 -0.1313  0.6703  2.9591
 2976TIP3    H230420   6.130   4.852  12.308 -0.1791  1.9618  0.2012
 2977TIP3   OH230421   4.659   6.113   9.972  0.3373  0.3381 -0.5570
 2977TIP3    H130422   4.663   6.021   9.995 -2.9504  0.6106  1.4398
 2977TIP3    H230423   4.598   6.116   9.898 -0.5181  1.0100  0.1636
 2978TIP3   OH230424   4.960   6.549  11.466 -0.6073  0.4155 -0.3400
 2978TIP3    H130425   4.917   6.633  11.479 -2.4650 -0.3082 -1.5346
 2978TIP3    H230426   4.905   6.486  11.513  0.0760 -0.3001 -0.4746
 2979TIP3   OH230427   6.046   5.683  12.190  0.1396 -0.6048  0.4817
 2979TIP3    H130428   6.125   5.725  12.222 -0.1407 -0.1268  0.5511
 2979TIP3    H230429   6.053   5.592  12.220  1.1958 -0.8528 -0.4748
 2980TIP3   OH230430   0.506   0.035  12.410 -0.4810  0.0859 -0.0760
 2980TIP3    H130431   0.593  -0.004  12.413  1.3992  3.9661 -0.1163
 2980TIP3    H230432   0.481   0.034  12.318 -0.0642 -0.2249 -0.1842
 2981TIP3   OH230433   4.000   0.032  10.019  0.6207  0.4605  0.5988
 2981TIP3    H130434   3.996  -0.045   9.963  0.6195  1.7502 -1.2004
 2981TIP3    H230435   4.091   0.036  10.048  0.1086 -1.4986  2.5589
 2982TIP3   OH230436   3.819   6.567  11.184 -0.1319  0.0856  0.4109
 2982TIP3    H130437   3.797   6.545  11.094  0.2445 -1.4529  0.6741
 2982TIP3    H230438   3.757   6.635  11.208 -1.9019 -1.2660 -0.2017
 2983TIP3   OH230439   4.090   6.625  11.242  0.0250 -0.2383 -0.8323
 2983TIP3    H130440   4.001   6.603  11.216 -0.1719 -1.3071  0.6441
 2983TIP3    H230441   4.103   6.578  11.324  1.5280  0.9007 -0.3953
 2984TIP3   OH230442   5.399   6.949  11.517 -0.8159  0.0838 -0.5546
 2984TIP3    H130443   5.492   6.967  11.535 -0.9175  1.1135 -1.0452
 2984TIP3    H230444   5.352   7.000  11.582 -1.0507 -0.1162 -0.5678
 2985TIP3   OH230445   4.476   0.343  10.357  0.6997 -0.3969  0.2648
 2985TIP3    H130446   4.510   0.415  10.303  0.1771 -0.4416 -0.1404
 2985TIP3    H230447   4.429   0.287  10.294  0.1446 -0.4887  0.7511
 2986TIP3   OH230448   4.984   0.358   9.473  0.0331 -0.1106 -0.0917
 2986TIP3    H130449   4.916   0.311   9.521  0.3904  0.6365  1.1665
 2986TIP3    H230450   5.025   0.414   9.538  0.6031  0.8519 -1.2509
 2987TIP3   OH230451   5.066   6.155  10.676 -0.2028  0.5225  0.4549
 2987TIP3    H130452   5.141   6.128  10.728 -1.3614 -1.7871  1.0107
 2987TIP3    H230453   5.089   6.134  10.586  0.7133  1.9651  0.3423
 2988TIP3   OH230454   2.076   5.348  10.709 -0.3032  0.2210 -0.1376
 2988TIP3    H130455   2.114   5.266  10.678  0.1801 -0.3799  1.9949
 2988TIP3    H230456   2.039   5.328  10.795 -1.0637  1.9974 -0.0154
 2989TIP3   OH230457   6.764   7.079  11.998  0.3493 -0.1006 -0.6062
 2989TIP3    H130458   6.847   7.035  11.978  1.0575  0.4961  0.9397
 2989TIP3    H230459   6.718   7.081  11.914  1.9555 -0.3210 -1.5274
 2990TIP3   OH230460   6.123   6.440  10.818 -0.3210  0.4291  0.1386
 2990TIP3    H130461   6.212   6.474  10.825  0.2380 -0.7076 -1.1921
 2990TIP3    H230462   6.119   6.370  10.883 -0.8229  1.6514  1.4457
 2991TIP3   OH230463   2.153   6.701  11.779 -0.4103 -0.4248  0.5869
 2991TIP3    H130464   2.105   6.752  11.713  1.8138  0.6340 -0.2709
 2991TIP3    H230465   2.198   6.634  11.729 -2.9243 -3.0464  1.6632
 2992TIP3   OH230466   5.248   5.215  11.823  0.0492  0.3740  0.0375
 2992TIP3    H130467   5.164   5.254  11.803 -0.9568 -1.7248 -0.0164
 2992TIP3    H230468   5.309   5.288  11.826 -1.9289  2.0236  0.9422
 2993TIP3   OH230469   5.873   6.718  10.667 -0.2989  0.1311  0.5247
 2993TIP3    H130470   5.799   6.670  10.705 -1.3551  1.1612 -0.2101
 2993TIP3    H230471   5.929   6.739  10.742 -1.3977  0.4748  1.2503
 2994TIP3   OH230472   4.809   5.308  11.559  0.2402 -0.0177 -0.2633
 2994TIP3    H130473   4.776   5.234  11.507 -0.4846 -0.1734  0.4119
 2994TIP3    H230474   4.746   5.377  11.545  2.3146  1.4099 -3.0503
 2995TIP3   OH230475   3.122   0.088  10.758  0.0600  0.1343 -0.0413
 2995TIP3    H130476   3.038   0.049  10.779  0.0115  0.0272 -0.4239
 2995TIP3    H230477   3.103   0.181  10.744 -0.5092 -0.3802 -3.0016
 2996TIP3   OH230478   4.690   4.686  11.902  0.4553 -0.5493 -0.1477
 2996TIP3    H130479   4.596   4.696  11.909  0.6797  2.5052 -0.8266
 2996TIP3    H230480   4.702   4.622  11.832 -1.0916 -0.4209 -0.5469
 2997TIP3   OH230481   6.423   4.751  11.828 -0.0696  0.2656  0.6808
 2997TIP3    H130482   6.448   4.842  11.844  1.7425 -0.2432  0.8413
 2997TIP3    H230483   6.505   4.708  11.804 -1.1630 -0.9950 -0.9168
 2998TIP3   OH230484   3.530   2.598  13.501  0.2473 -0.2843  0.0502
 2998TIP3    H130485   3.456   2.657  13.511  0.2360  0.1688 -2.4319
 2998TIP3    H230486   3.605   2.656  13.488  0.4540 -0.7847 -1.0205
 2999TIP3   OH230487   3.461   5.731  12.010 -0.1077 -0.3158  0.1083
 2999TIP3    H130488   3.433   5.729  12.101  0.0991  1.8495  0.2385
 2999TIP3    H230489   3.387   5.693  11.961 -0.7588 -0.2443  1.0347
 3000TIP3   OH230490   6.967   6.276  10.788 -0.1433  0.1432 -0.1187
 3000TIP3    H130491   7.044   6.309  10.834 -1.1729 -1.1808  2.6644
 3000TIP3    H230492   7.003   6.225  10.715  1.6819 -0.8146  1.3932
 3001TIP3   OH230493   6.946   5.601  11.814  0.1061  0.3000  0.3404
 3001TIP3    H130494   6.911   5.613  11.725 -0.1721 -1.0321  0.2495
 3001TIP3    H230495   6.950   5.689  11.851 -1.3780  0.6971 -0.4008
 3002TIP3   OH230496   5.437   5.757  10.445 -0.8299 -0.2126 -0.5672
 3002TIP3    H130497   5.363   5.794  10.397 -0.4927  1.7885  0.3995
 3002TIP3    H230498   5.510   5.815  10.424 -0.1091 -0.7393  0.4433
 3003TIP3   OH230499   6.523   2.832  12.732  0.3346 -0.0225 -0.2261
 3003TIP3    H130500   6.460   2.866  12.795 -0.6299 -1.4615 -0.3847
 3003TIP3    H230501   6.530   2.739  12.753  3.4288  0.3490  0.6491
 3004TIP3   OH230502   4.531   6.605  13.148 -0.2207  0.3670 -0.2537
 3004TIP3    H130503   4.561   6.539  13.085  0.5600  0.2907  0.1755
 3004TIP3    H230504   4.529   6.687  13.099  0.6024  0.3497 -0.3292
 3005TIP3   OH230505   4.892   3.808  11.905  0.0921 -0.2324  0.2063
 3005TIP3    H130506   4.876   3.887  11.957 -0.2166  1.0882 -1.8067
 3005TIP3    H230507   4.966   3.831  11.849  0.0338 -1.4022 -0.3681
 3006TIP3   OH230508   5.830   6.184  12.553 -0.5422  0.4433  0.0217
 3006TIP3    H130509   5.734   6.187  12.554 -0.5878 -0.4995  2.2291
 3006TIP3    H230510   5.857   6.267  12.593 -0.5069 -0.1837  1.3376
 3007TIP3   OH230511   2.481   1.074  12.208 -0.3426 -0.2353 -0.0727
 3007TIP3    H130512   2.452   1.161  12.236  2.0788  0.6244 -0.1686
 3007TIP3    H230513   2.419   1.050  12.139 -0.8700  1.5480 -0.2608
 3008TIP3   OH230514   6.518   6.821  13.894  0.2722 -0.1672  0.5936
 3008TIP3    H130515   6.582   6.796  13.960  0.0761 -1.2021  0.3947
 3008TIP3    H230516   6.434   6.795  13.931 -0.0145  0.8897  0.7096
 3009TIP3   OH230517   4.898   7.286  10.021  0.3143 -0.2448  0.7001
 3009TIP3    H130518   4.922   7.226   9.950 -0.3824  0.5628 -0.2315
 3009TIP3    H230519   4.981   7.328  10.044  0.2072  0.9835 -1.0542
 3010TIP3   OH230520   4.106   6.931  10.707  0.7312 -0.3918 -0.0231
 3010TIP3    H130521   4.017   6.939  10.742  1.4918 -0.2104  1.9581
 3010TIP3    H230522   4.111   6.841  10.675 -0.0314 -0.5453  0.2739
 3011TIP3   OH230523   4.104   0.219  11.327  1.1716  0.2579 -0.3822
 3011TIP3    H130524   4.100   0.123  11.325  0.9947 -0.0374  5.8238
 3011TIP3    H230525   4.186   0.240  11.282  1.7751 -2.8340 -0.8483
 3012TIP3   OH230526   5.326   6.403  11.675  0.0217  0.0615 -0.6844
 3012TIP3    H130527   5.264   6.460  11.722 -2.1569 -1.5517 -1.5167
 3012TIP3    H230528   5.301   6.412  11.583  0.4687 -1.2860 -0.9347
 3013TIP3   OH230529   3.368   6.196  11.130  0.5521 -0.2269 -0.1221
 3013TIP3    H130530   3.348   6.198  11.223  2.1224 -0.4252  0.2260
 3013TIP3    H230531   3.352   6.285  11.099  1.3209  0.1601  0.6055
 3014TIP3   OH230532   6.677   4.644  13.044  0.5872 -0.0231  0.0369
 3014TIP3    H130533   6.630   4.712  12.996  1.0196 -0.4715 -1.0422
 3014TIP3    H230534   6.716   4.689  13.119  0.8185  0.8983 -0.6367
 3015TIP3   OH230535   5.918   5.423  11.087 -0.4747 -0.2324 -0.3167
 3015TIP3    H130536   6.007   5.420  11.051 -0.1851 -1.2335  0.4516
 3015TIP3    H230537   5.926   5.478  11.166 -0.4408 -0.7012  0.0071
 3016TIP3   OH230538   4.172   6.141  11.158 -0.1433 -0.2203  0.2001
 3016TIP3    H130539   4.151   6.223  11.114  3.4943  0.7981  0.1838
 3016TIP3    H230540   4.184   6.078  11.088  1.6522  0.4173 -0.0979
 3017TIP3   OH230541   4.745   5.390  10.363  0.1103 -0.0346 -0.2126
 3017TIP3    H130542   4.786   5.467  10.325 -1.7152  0.8373 -0.4446
 3017TIP3    H230543   4.665   5.423  10.404 -0.5466 -1.7572 -0.0681
 3018TIP3   OH230544   5.328   5.951  10.717 -0.3234  0.3670 -0.0087
 3018TIP3    H130545   5.312   5.969  10.624 -0.9238  1.5906  0.3217
 3018TIP3    H230546   5.421   5.967  10.729 -0.0508 -0.7322 -0.6059
 3019TIP3   OH230547   4.000   3.950  10.440 -0.3853 -0.1568  0.1627
 3019TIP3    H130548   4.027   3.867  10.400 -0.6968  0.1176 -0.6346
 3019TIP3    H230549   3.925   3.978  10.387  0.1746  0.9975 -0.0123
 3020TIP3   OH230550   5.168   5.567  11.765 -0.7752 -0.0251  0.3122
 3020TIP3    H130551   5.104   5.506  11.802 -0.2783  0.2154  1.5905
 3020TIP3    H230552   5.116   5.636  11.726 -1.3219 -0.6842 -0.1420
 3021TIP3   OH230553   5.993   7.272  10.909 -0.5400 -0.4499 -0.3749
 3021TIP3    H130554   5.927   7.244  10.845 -0.4409 -2.1466  0.2392
 3021TIP3    H230555   5.947   7.335  10.964 -0.9608  0.1684 -1.4298
 3022TIP3   OH230556   7.064   7.085   9.903 -0.1520 -0.0681 -0.1438
 3022TIP3    H130557   7.000   7.018   9.882 -1.9601  0.7509  2.5063
 3022TIP3    H230558   7.108   7.054   9.982  0.3416  0.9706  0.0098
 3023TIP3   OH230559   4.134   4.334  10.700 -0.0040 -0.2215 -0.4227
 3023TIP3    H130560   4.086   4.316  10.781 -0.6379 -1.2415 -1.0177
 3023TIP3    H230561   4.067   4.366  10.640  0.6669  1.7012 -0.1840
 3024TIP3   OH230562   4.813   3.316  11.962 -0.1716 -0.7633  0.1584
 3024TIP3    H130563   4.862   3.240  11.994  1.1085 -0.1374 -0.2742
 3024TIP3    H230564   4.776   3.355  12.041  0.5732 -0.8740  0.5667
 3025TIP3   OH230565   4.258   4.068  12.300 -0.6041 -0.0930 -0.7213
 3025TIP3    H130566   4.205   4.138  12.261 -1.3366 -0.8690 -1.1317
 3025TIP3    H230567   4.195   4.004  12.330  0.0717 -0.5963 -0.3670
 3026TIP3   OH230568   5.688   6.762  12.335 -0.3592 -0.4366  0.0447
 3026TIP3    H130569   5.643   6.794  12.257 -0.4880  0.2465  0.3926
 3026TIP3    H230570   5.751   6.698  12.302 -1.1547 -0.9371 -0.5055
 3027TIP3   OH230571   5.271   1.242  10.554  0.2237  0.0467  0.3762
 3027TIP3    H130572   5.283   1.147  10.563 -1.2509 -0.3470 -1.5021
 3027TIP3    H230573   5.185   1.259  10.592 -0.0784  0.4183 -0.4581
 3028TIP3   OH230574   4.364   6.690  12.023  0.2922  0.4022 -0.5658
 3028TIP3    H130575   4.285   6.744  12.014 -0.2809 -0.4862 -0.9271
 3028TIP3    H230576   4.433   6.743  11.984 -0.6649  0.0120 -2.9073
 3029TIP3   OH230577   5.334   0.346  12.694 -0.2448  0.1830 -0.3715
 3029TIP3    H130578   5.315   0.252  12.688  0.7102 -0.1230  1.0997
 3029TIP3    H230579   5.320   0.367  12.786 -1.8499  1.8170 -0.9623
 3030TIP3   OH230580   6.956   0.294   9.850  0.0811  0.2521  0.2175
 3030TIP3    H130581   7.018   0.317   9.782 -0.6944 -0.4105 -0.7165
 3030TIP3    H230582   6.994   0.218   9.894 -0.2948 -0.4511 -0.6670
 3031TIP3   OH230583   5.904   3.739  10.915 -0.4980 -0.1304 -0.1035
 3031TIP3    H130584   5.892   3.760  11.007 -2.9876 -1.7216 -0.0042
 3031TIP3    H230585   5.961   3.661  10.915  0.4629  0.5637  0.0119
 3032TIP3   OH230586   4.464   5.919  11.167  0.2971 -0.2693 -0.5754
 3032TIP3    H130587   4.536   5.896  11.108 -0.8040 -0.0070 -2.0721
 3032TIP3    H230588   4.398   5.851  11.152 -0.4234  0.3897 -0.4319
 3033TIP3   OH230589   6.022   4.426  11.387 -0.0938 -0.0589 -0.1052
 3033TIP3    H130590   6.079   4.500  11.409 -0.9554  0.3446  0.8237
 3033TIP3    H230591   6.018   4.375  11.468  0.3443 -1.0288 -0.6878
 3034TIP3   OH230592   5.539   4.115  10.309  0.7859 -0.1105  0.6105
 3034TIP3    H130593   5.551   4.110  10.214  0.2724  0.6639  0.4990
 3034TIP3    H230594   5.445   4.128  10.321  1.1467  2.4796  1.0867
 3035TIP3   OH230595   4.696   5.349   9.912 -0.1774 -0.4446 -0.2790
 3035TIP3    H130596   4.672   5.340   9.820  3.3673 -1.4416 -1.1956
 3035TIP3    H230597   4.697   5.443   9.928  2.7516 -0.0548 -2.3616
 3036TIP3   OH230598   5.422   7.028  10.538 -0.1719 -0.3160 -0.0876
 3036TIP3    H130599   5.425   6.989  10.626 -3.6536  0.1386  0.2871
 3036TIP3    H230600   5.367   7.105  10.548  0.5354  0.5280 -2.4207
 3037TIP3   OH230601   6.460   5.150  10.852  0.0165  0.1803  0.8069
 3037TIP3    H130602   6.525   5.172  10.784 -0.0744  0.7575  0.9102
 3037TIP3    H230603   6.512   5.115  10.924  0.2544  1.0227  1.0501
 3038TIP3   OH230604   3.817   0.462  11.547  0.0396 -0.2594  0.3149
 3038TIP3    H130605   3.874   0.492  11.619  0.4775  0.4623 -0.3193
 3038TIP3    H230606   3.853   0.378  11.521  0.5657 -0.0009  0.2000
 3039TIP3   OH230607   5.384   4.651  13.675 -0.0117  0.1307 -0.3238
 3039TIP3    H130608   5.363   4.557  13.675  0.2547  0.0608 -1.9618
 3039TIP3    H230609   5.436   4.664  13.596  2.2573  1.1753  1.3045
 3040TIP3   OH230610   7.207   5.695  12.682 -0.4821  0.0384  0.3710
 3040TIP3    H130611   7.238   5.679  12.592  0.7637 -1.4230  1.0286
 3040TIP3    H230612   7.217   5.610  12.725 -0.1603  0.9744  2.1605
 3041TIP3   OH230613   0.128   5.723  11.924  0.3709  0.2128  0.3828
 3041TIP3    H130614   0.126   5.665  11.848 -3.1508 -0.7798  1.1560
 3041TIP3    H230615   0.179   5.675  11.990 -0.2004 -0.8061  0.0837
 3042TIP3   OH230616   6.318   6.568  10.109 -0.2182 -0.1663 -0.0811
 3042TIP3    H130617   6.300   6.528  10.194 -1.1245 -0.3931 -0.3689
 3042TIP3    H230618   6.400   6.527  10.080 -1.0105 -1.6737 -0.2712
 3043TIP3   OH230619   5.663   6.268  11.157 -0.4350  0.2446 -0.6651
 3043TIP3    H130620   5.611   6.187  11.153  0.8091 -0.6699  1.0266
 3043TIP3    H230621   5.609   6.328  11.209 -1.5088  0.6318 -2.2016
 3044TIP3   OH230622   5.969   0.149  11.427 -0.6027  0.9784  0.1847
 3044TIP3    H130623   6.060   0.148  11.395 -0.8012 -1.0571 -0.4157
 3044TIP3    H230624   5.977   0.170  11.520  0.5307  0.4917  0.2150
 3045TIP3   OH230625   1.159   0.007  11.200  0.1145  0.0692 -0.1306
 3045TIP3    H130626   1.254   0.016  11.213 -0.1512  1.8491  0.6060
 3045TIP3    H230627   1.127   0.096  11.191 -1.6181 -0.4833  0.4044
 3046TIP3   OH230628   1.410   0.587  10.730 -0.0812  0.3779 -0.3074
 3046TIP3    H130629   1.396   0.681  10.738 -5.6972 -0.3229 -0.2599
 3046TIP3    H230630   1.429   0.573  10.637 -1.6184  1.3256 -0.7764
 3047TIP3   OH230631   0.478   6.090  10.208 -0.3320  0.3562 -0.3546
 3047TIP3    H130632   0.395   6.076  10.253  0.2143 -1.0429  0.2390
 3047TIP3    H230633   0.465   6.053  10.121  0.6217 -2.7291  0.7254
 3048TIP3   OH230634   4.960   6.823  11.477 -0.2838  0.3604  0.3798
 3048TIP3    H130635   5.033   6.880  11.451 -1.9406  2.0892 -0.6662
 3048TIP3    H230636   4.905   6.879  11.531 -1.2058 -0.7211  0.5610
 3049TIP3   OH230637   6.484   6.785  10.280  0.1616  0.1874  0.2215
 3049TIP3    H130638   6.489   6.693  10.257 -2.6369  0.0812 -0.0218
 3049TIP3    H230639   6.451   6.828  10.201  1.0153  1.3452  0.4772
 3050TIP3   OH230640   0.275   0.123  10.390  0.4508 -0.6853  0.5114
 3050TIP3    H130641   0.260   0.189  10.322  1.0218 -2.6029 -1.5276
 3050TIP3    H230642   0.369   0.104  10.385  0.3889 -1.2943  1.4577
 3051TIP3   OH230643   6.512   5.071  11.557  0.0824  0.1179  0.5402
 3051TIP3    H130644   6.585   5.029  11.602 -0.4827 -0.2588  1.1192
 3051TIP3    H230645   6.452   5.096  11.628 -1.1557 -1.1230 -0.0618
 3052TIP3   OH230646   0.983   6.323  10.971 -0.0367  0.1524  0.2955
 3052TIP3    H130647   1.033   6.390  11.018  2.3157  0.1568 -2.0908
 3052TIP3    H230648   0.945   6.369  10.897 -0.1419 -0.7278 -0.2050
 3053TIP3   OH230649   5.868   5.683  11.966  0.1446 -0.4032  0.5160
 3053TIP3    H130650   5.938   5.680  12.031  0.6165  1.8627  0.1581
 3053TIP3    H230651   5.794   5.722  12.012  0.3254  0.7431 -0.1208
 3054TIP3   OH230652   0.181   5.124  11.314 -0.6949 -0.0218 -0.0886
 3054TIP3    H130653   0.176   5.103  11.221  0.0571 -0.8153  0.0401
 3054TIP3    H230654   0.099   5.168  11.334 -0.2586  1.4411 -1.4501
 3055TIP3   OH230655   6.657   5.185  13.025 -0.2950  0.1908 -0.0868
 3055TIP3    H130656   6.587   5.224  13.078  0.2636 -0.9658  1.5379
 3055TIP3    H230657   6.732   5.244  13.037 -0.4427  0.4364 -0.3573
 3056TIP3   OH230658   6.543   5.641  10.199  0.1367  0.5822  0.5454
 3056TIP3    H130659   6.519   5.561  10.246  1.2822 -0.8825 -1.3304
 3056TIP3    H230660   6.459   5.679  10.173 -0.3995 -2.1557 -2.0423
 3057TIP3   OH230661   5.604   6.694  11.189 -0.1203 -0.0216  0.3278
 3057TIP3    H130662   5.621   6.755  11.261 -1.3110  0.4441  0.2277
 3057TIP3    H230663   5.578   6.613  11.232  1.2669 -0.4134  0.4587
 3058TIP3   OH230664   1.504   4.659  11.419  0.0568 -0.1353 -0.3052
 3058TIP3    H130665   1.436   4.593  11.403  0.8287 -0.6151 -1.7472
 3058TIP3    H230666   1.583   4.621  11.380  0.4111  1.8328 -1.5446
 3059TIP3   OH230667   4.601   0.749  10.649 -0.1217 -0.1883  0.1932
 3059TIP3    H130668   4.623   0.827  10.699 -0.3054  0.5652 -0.8922
 3059TIP3    H230669   4.662   0.682  10.681  0.2175  0.4626  0.9225
 3060TIP3   OH230670   0.882   0.502  10.157 -0.3739 -0.1288  0.4468
 3060TIP3    H130671   0.970   0.465  10.165 -1.1563 -1.7901  1.6133
 3060TIP3    H230672   0.870   0.552  10.237  0.4262  2.1764 -0.8274
 3061TIP3   OH230673   5.996   1.320  10.768 -0.4964 -0.1118  0.4015
 3061TIP3    H130674   6.056   1.324  10.693 -1.9325 -0.5653 -0.7827
 3061TIP3    H230675   6.015   1.400  10.817  3.4242 -1.8350  1.8958
 3062TIP3   OH230676   6.345   6.733  10.858  0.1624  0.3181  0.4091
 3062TIP3    H130677   6.283   6.748  10.787  0.8654 -0.0152 -0.2928
 3062TIP3    H230678   6.418   6.792  10.839  0.8344 -0.5431  0.2445
 3063TIP3   OH230679   5.093   5.375  10.917 -0.0864 -0.2889 -0.1773
 3063TIP3    H130680   5.115   5.468  10.917 -0.2940 -0.2368  0.5727
 3063TIP3    H230681   5.168   5.332  10.959 -1.2758 -0.1262  2.2419
 3064TIP3   OH230682   6.191   0.276  11.142  0.4897  0.1301  0.1533
 3064TIP3    H130683   6.220   0.254  11.054 -1.4635 -1.4160 -0.1638
 3064TIP3    H230684   6.110   0.326  11.129  0.1139 -0.2226  1.0553
 3065TIP3   OH230685   7.034   0.017   9.919 -0.0410 -0.3956 -0.2398
 3065TIP3    H130686   6.960   0.039   9.976  0.5246  1.5596 -0.2118
 3065TIP3    H230687   7.036  -0.078   9.917  1.2417 -0.6055  4.8145
 3066TIP3   OH230688   6.475   6.344  11.760  0.6428 -0.1085 -0.1515
 3066TIP3    H130689   6.511   6.284  11.695  1.6943 -0.3355  0.6299
 3066TIP3    H230690   6.467   6.291  11.840 -1.0823  0.0347 -0.1969
 3067TIP3   OH230691   0.867   0.719   9.756 -0.4503 -0.2773 -0.3603
 3067TIP3    H130692   0.799   0.732   9.691 -0.5422  0.4139 -0.1254
 3067TIP3    H230693   0.933   0.785   9.735 -1.6990  1.7743  1.8763
 3068TIP3   OH230694   6.228   6.232  11.066 -0.0134  0.1427 -0.2206
 3068TIP3    H130695   6.290   6.267  11.002 -1.2461  0.3092 -1.3382
 3068TIP3    H230696   6.223   6.299  11.135 -0.0485  0.7791 -0.8453
 3069TIP3   OH230697   0.005   5.879   9.730  0.4017 -0.7411 -0.0415
 3069TIP3    H130698   0.018   5.955   9.787 -0.3951 -1.2309  0.8021
 3069TIP3    H230699  -0.078   5.897   9.685  0.8681 -0.5045 -0.8204
 3070TIP3   OH230700   6.989   6.943  11.932  0.0663  0.7388 -0.2217
 3070TIP3    H130701   7.035   7.013  11.887 -0.9192  1.2810 -0.4089
 3070TIP3    H230702   7.058   6.883  11.961  0.8232  1.1749 -1.0962
 3071TIP3   OH230703   6.714   0.361   9.978  0.2340  0.3995  0.1782
 3071TIP3    H130704   6.788   0.331   9.926 -0.5695  0.1787 -0.8459
 3071TIP3    H230705   6.661   0.412   9.917 -0.5715  0.3744  0.8516
 3072TIP3   OH230706   6.804   0.206  10.937 -0.3111  0.5983 -0.0785
 3072TIP3    H130707   6.845   0.292  10.928  1.2532 -0.2136 -1.0459
 3072TIP3    H230708   6.865   0.146  10.894 -0.9573 -1.1140  1.3081
 3073TIP3   OH230709   0.172   5.924  10.640 -0.3716  0.1077  0.1355
 3073TIP3    H130710   0.207   6.012  10.650 -2.0448  0.9744 -1.3807
 3073TIP3    H230711   0.120   5.910  10.720  0.1154  0.3828  0.5031
 3074TIP3   OH230712   0.459   5.584  10.589 -1.0890 -0.7915  0.1287
 3074TIP3    H130713   0.439   5.513  10.528 -0.1969 -0.4836 -0.5163
 3074TIP3    H230714   0.375   5.628  10.602 -1.1593 -0.4925 -1.3392
 3075TIP3   OH230715   7.321   7.260   9.980  0.6870 -0.2342 -0.4199
 3075TIP3    H130716   7.236   7.297   9.955  0.4841  0.9542  1.8789
 3075TIP3    H230717   7.298   7.188  10.039  1.2702  0.7130  0.9970
 3076TIP3   OH230718   7.065   6.436  12.213  0.2432 -0.2170 -0.3854
 3076TIP3    H130719   7.045   6.530  12.211  0.5720 -0.1875 -3.3003
 3076TIP3    H230720   6.986   6.396  12.248 -0.0144  1.1038  0.6171
 3077TIP3   OH230721   7.101   5.293  10.948  0.5033  0.3910 -0.5079
 3077TIP3    H130722   7.177   5.284  10.892  0.5860  0.4262 -0.4021
 3077TIP3    H230723   7.060   5.375  10.921  1.5381  1.3210  0.6797
 3078TIP3   OH230724   6.995   6.735  11.401 -0.3883  0.2317 -0.3867
 3078TIP3    H130725   6.934   6.808  11.394 -1.6483 -0.5010  2.4275
 3078TIP3    H230726   7.081   6.775  11.411 -0.9993  1.3306  0.4863
 3079TIP3   OH230727   6.932   5.982  10.166  0.8608  0.3267  0.1120
 3079TIP3    H130728   6.878   5.903  10.174  0.9346  0.2690  0.0338
 3079TIP3    H230729   6.941   5.996  10.072  1.4743  0.0007  0.1183
 3080TIP3   OH230730   6.589   6.539  10.634 -0.1362  0.3287  0.2176
 3080TIP3    H130731   6.653   6.520  10.565 -0.5549 -0.1488 -0.0435
 3080TIP3    H230732   6.507   6.553  10.587 -0.5409 -0.5418  0.6509
 3081TIP3   OH230733   7.247   5.828  11.770 -0.1525 -0.3016 -0.1435
 3081TIP3    H130734   7.302   5.802  11.844 -0.1582  0.7692  0.2451
 3081TIP3    H230735   7.276   5.773  11.698  1.4789  0.3181  0.0285
 3082TIP3   OH230736   5.750   0.248   9.968 -1.0661  0.0076  0.4663
 3082TIP3    H130737   5.684   0.308   9.934 -0.5364 -0.0478 -0.7020
 3082TIP3    H230738   5.820   0.305  10.001 -0.5793  0.0415 -0.6100
 3083TIP3   OH230739   6.171   7.301  12.629  0.4868 -0.1521  0.2058
 3083TIP3    H130740   6.166   7.385  12.583  1.1489 -0.4987 -0.5077
 3083TIP3    H230741   6.188   7.325  12.720 -0.5526  0.5252  0.2409
 3084TIP3   OH230742   1.058   4.413  13.227  0.1719 -0.2432  0.3217
 3084TIP3    H130743   1.032   4.487  13.282  1.9892  0.3086  0.4605
 3084TIP3    H230744   1.049   4.445  13.138 -2.0329 -0.8907  0.2690
 3085TIP3   OH230745   2.244   6.490  11.355  0.1768 -0.5050  0.2623
 3085TIP3    H130746   2.181   6.433  11.313 -1.5480  0.0984  1.9758
 3085TIP3    H230747   2.311   6.505  11.288 -1.0325 -1.8303 -1.2855
 3086TIP3   OH230748   7.082   4.435  11.365  0.1353  0.1402 -0.4644
 3086TIP3    H130749   7.160   4.379  11.372  0.1648  0.4571  2.1952
 3086TIP3    H230750   7.066   4.442  11.271  1.4043 -2.5751 -0.9213
 3087TIP3   OH230751   0.716   5.701  11.925 -0.5893  0.0249  0.2045
 3087TIP3    H130752   0.788   5.655  11.882 -0.4811 -1.3909  1.8435
 3087TIP3    H230753   0.654   5.720  11.855 -0.3905 -2.1326 -0.5889
 3088TIP3   OH230754   5.914   6.041  11.697 -0.4342  0.4299 -0.2171
 3088TIP3    H130755   5.954   6.088  11.624 -1.7775  0.2117 -1.1168
 3088TIP3    H230756   5.825   6.077  11.702 -0.1223  0.9639  1.7792
 3089TIP3   OH230757   5.031   5.669  10.883 -0.0896  0.1691 -0.0639
 3089TIP3    H130758   5.039   5.647  10.791 -1.1223  0.9310 -0.3427
 3089TIP3    H230759   5.111   5.717  10.903  0.0223  0.2146 -0.6253
 3090TIP3   OH230760   0.283   7.074  11.013  0.4259  0.1375  0.2027
 3090TIP3    H130761   0.369   7.039  11.039  0.1001  0.2770  1.5280
 3090TIP3    H230762   0.301   7.165  10.990  0.7579 -0.0339 -0.2170
 3091TIP3   OH230763   5.787   5.164  11.082 -0.3771  0.2238  0.3400
 3091TIP3    H130764   5.811   5.249  11.119  1.3473  0.2892 -0.8814
 3091TIP3    H230765   5.811   5.169  10.990 -1.9347 -0.9646 -0.1643
 3092TIP3   OH230766   0.152   5.446  11.850 -0.1208 -0.4562  0.0727
 3092TIP3    H130767   0.152   5.361  11.893 -2.8038 -0.9024 -0.7488
 3092TIP3    H230768   0.181   5.429  11.761 -2.6357 -0.8602 -0.6908
 3093TIP3   OH230769   6.217   5.488  11.112 -0.4396 -0.2608  0.3080
 3093TIP3    H130770   6.265   5.564  11.079  1.0487 -0.7915  1.1806
 3093TIP3    H230771   6.282   5.417  11.109 -2.0799 -1.7475 -1.4629
 3094TIP3   OH230772   6.259   4.583  12.515 -0.2895 -0.5288 -0.2947
 3094TIP3    H130773   6.248   4.674  12.542  1.8465 -0.0316 -1.0353
 3094TIP3    H230774   6.172   4.543  12.529 -0.8017  1.1775  1.5836
 3095TIP3   OH230775   5.812   6.374   9.995  0.4020 -0.1832  0.8102
 3095TIP3    H130776   5.783   6.294  10.038 -0.8045 -1.3868 -2.0791
 3095TIP3    H230777   5.855   6.343   9.915 -1.5228  2.0703 -1.1794
 3096TIP3   OH230778   6.687   4.373   9.971 -0.1547 -0.0222 -0.6313
 3096TIP3    H130779   6.611   4.422  10.003 -0.1441 -0.5650  0.2277
 3096TIP3    H230780   6.746   4.369  10.046 -0.4380 -1.9030 -0.4969
 3097TIP3   OH230781   0.168   0.327  10.221 -0.3170  0.0070 -0.1177
 3097TIP3    H130782   0.141   0.417  10.200 -0.7226 -0.0678  0.0728
 3097TIP3    H230783   0.118   0.272  10.161  1.1846 -0.0010 -1.3783
 3098TIP3   OH230784   0.429   4.969  13.634  0.3634  0.1466  0.5373
 3098TIP3    H130785   0.416   5.058  13.666 -2.5066 -0.1804  0.4054
 3098TIP3    H230786   0.430   4.978  13.539 -2.2181 -0.2101  0.4539
 3099TIP3   OH230787   4.869   5.783  10.573 -0.4970  0.2818  0.0163
 3099TIP3    H130788   4.959   5.753  10.584 -0.7439 -0.0255  1.2987
 3099TIP3    H230789   4.864   5.812  10.482  0.9394  0.4562 -0.0179
 3100TIP3   OH230790   6.467   6.413  11.343 -0.6891 -0.3276  0.2297
 3100TIP3    H130791   6.485   6.325  11.308 -1.8085  0.0206 -1.2608
 3100TIP3    H230792   6.397   6.399  11.407  0.5143 -0.7943  1.4658
 3101TIP3   OH230793   6.571   5.736  10.510  0.3387  0.5198 -0.3841
 3101TIP3    H130794   6.559   5.763  10.419  0.3948 -4.6016 -2.0681
 3101TIP3    H230795   6.483   5.722  10.544  0.3339  2.0316  0.2767
 3102TIP3   OH230796   1.127   5.976  11.230 -0.1319 -0.5735 -0.3310
 3102TIP3    H130797   1.059   6.043  11.230  0.8434  0.5152  2.5015
 3102TIP3    H230798   1.122   5.935  11.144 -2.1514  1.7099 -1.3278
 3103TIP3   OH230799   5.603   4.738  11.160  0.4485  0.1904 -0.3254
 3103TIP3    H130800   5.605   4.824  11.120 -1.4681 -0.6094 -2.1860
 3103TIP3    H230801   5.673   4.689  11.116  1.1614  0.6062  0.3342
 3104TIP3   OH230802   5.068   6.069  11.371  0.7794 -0.1255 -0.3649
 3104TIP3    H130803   5.034   6.147  11.327  2.7783  1.3753  0.6504
 3104TIP3    H230804   5.030   6.072  11.458  0.7308 -0.3816 -0.3768
 3105TIP3   OH230805   6.415   6.661   9.793 -0.3511  0.0686 -0.3846
 3105TIP3    H130806   6.470   6.724   9.840 -2.4821  0.4796  1.6276
 3105TIP3    H230807   6.326   6.684   9.818 -1.2343 -2.8985 -0.6649
 3106TIP3   OH230808   6.157   5.019  10.421  0.5315  0.4022  0.2150
 3106TIP3    H130809   6.182   4.943  10.473  2.5383  2.8484  3.0102
 3106TIP3    H230810   6.188   5.000  10.333  0.0630 -2.4397  0.6260
 3107TIP3   OH230811   2.171   0.039  10.855 -0.6038 -0.2409  0.1519
 3107TIP3    H130812   2.123   0.107  10.903  0.0868 -0.7473  1.5763
 3107TIP3    H230813   2.214   0.087  10.784 -0.5504  0.7436  0.8283
 3108TIP3   OH230814   5.991   5.887  11.308 -0.0799 -0.3106  0.3532
 3108TIP3    H130815   6.078   5.916  11.280 -0.7004 -0.4381 -1.7662
 3108TIP3    H230816   5.931   5.954  11.274 -0.8730 -0.5476  1.2589
 3109TIP3   OH230817   6.803   1.285  10.181  0.4103 -0.2560  0.0405
 3109TIP3    H130818   6.859   1.326  10.246  0.1041 -0.5194  0.4792
 3109TIP3    H230819   6.725   1.341  10.178 -0.0855 -0.8786  0.7697
 3110TIP3   OH230820   7.015   1.765  11.165  0.0430  0.2130  0.2943
 3110TIP3    H130821   7.058   1.679  11.167  0.7118  0.5625  1.3468
 3110TIP3    H230822   7.013   1.789  11.072 -0.1119 -0.9235 -0.0037
 3111TIP3   OH230823   0.591   5.290  12.205  0.0587  0.3710  0.1671
 3111TIP3    H130824   0.523   5.288  12.138  0.0860  1.0479  0.1235
 3111TIP3    H230825   0.653   5.356  12.176  0.7200 -0.2145  0.2288
 3112TIP3   OH230826   5.033   0.560  10.360 -0.1519  0.0492  0.1587
 3112TIP3    H130827   4.979   0.639  10.367  0.4490  0.8013 -2.9652
 3112TIP3    H230828   5.045   0.547  10.266  0.9244 -2.9950  0.6578
 3113TIP3   OH230829   6.209   5.036  13.189  0.3344 -0.2642  0.1375
 3113TIP3    H130830   6.252   5.035  13.104  1.6810 -1.7647  0.8169
 3113TIP3    H230831   6.135   4.976  13.179 -0.9518  1.4033 -0.6700
 3114TIP3   OH230832   5.949   5.261  11.440  0.1235  0.3075 -0.6533
 3114TIP3    H130833   5.994   5.202  11.501  0.2778 -0.1651 -1.2230
 3114TIP3    H230834   5.968   5.225  11.353 -1.3808  0.0891 -0.9027
 3115TIP3   OH230835   6.331   0.218  10.112  0.0799  0.6876  0.2468
 3115TIP3    H130836   6.302   0.182  10.027  0.3762  0.1196  0.3833
 3115TIP3    H230837   6.309   0.311  10.107  0.6419  0.7737 -0.6852
 3116TIP3   OH230838   1.775   6.127  10.294 -0.1356  0.2882 -0.3372
 3116TIP3    H130839   1.861   6.120  10.253 -0.7889  0.9164 -1.8214
 3116TIP3    H230840   1.713   6.111  10.223 -1.2476 -0.8508  0.8565
 3117TIP3   OH230841   7.336   6.277  10.625  0.1846  0.1672 -0.0262
 3117TIP3    H130842   7.354   6.362  10.585  0.2108  1.1079  1.9150
 3117TIP3    H230843   7.240   6.270  10.625  0.2342 -0.9630 -2.4811
 3118TIP3   OH230844   0.475   5.874  10.562 -0.0236  0.1447 -0.2975
 3118TIP3    H130845   0.432   5.872  10.476  0.9493 -1.5555 -0.7728
 3118TIP3    H230846   0.531   5.796  10.562 -0.0695  0.0939  1.9100
 3119TIP3   OH230847   5.246   6.537  11.273  0.7074 -0.3714 -0.0269
 3119TIP3    H130848   5.299   6.582  11.339  2.6778 -1.5500 -0.7450
 3119TIP3    H230849   5.310   6.488  11.221 -0.9156 -0.3264 -2.1265
 3120TIP3   OH230850   6.636   6.485   9.777 -0.3460  1.1804  0.0859
 3120TIP3    H130851   6.683   6.568   9.776 -1.6027  1.9150  0.9839
 3120TIP3    H230852   6.545   6.509   9.793 -0.4511 -0.5089  2.2167
 3121TIP3   OH230853   6.021   6.426  13.034  0.1128 -0.3814  0.1177
 3121TIP3    H130854   6.093   6.370  13.063  0.5802  1.2782  2.3043
 3121TIP3    H230855   5.942   6.378  13.056  0.5251 -1.8792 -1.5905
 3122TIP3   OH230856   6.487   0.497  11.017  0.2839 -0.4292 -0.0585
 3122TIP3    H130857   6.555   0.561  10.994 -1.3559  0.9378 -1.2548
 3122TIP3    H230858   6.440   0.538  11.089 -0.3442 -0.5957 -0.3738
 3123TIP3   OH230859   0.835   6.454  10.577  0.5829 -0.1053 -0.5865
 3123TIP3    H130860   0.838   6.526  10.639 -0.1772 -0.3315 -0.2869
 3123TIP3    H230861   0.811   6.494  10.494 -0.8171 -0.1574 -0.2071
 3124TIP3   OH230862   7.340   6.540  10.516 -0.4903  0.1757  0.1257
 3124TIP3    H130863   7.311   6.624  10.549 -0.0625  0.4730 -0.2407
 3124TIP3    H230864   7.429   6.557  10.483 -1.9089  0.5464 -3.6863
 3125TIP3   OH230865   4.717   0.175  13.391  0.2898 -0.1418  0.3859
 3125TIP3    H130866   4.745   0.243  13.330 -0.7723  2.7680  3.0233
 3125TIP3    H230867   4.796   0.123  13.408  1.2991  0.8907 -1.0894
 3126TIP3   OH230868   6.866   1.159  10.926  0.5859 -0.4244 -0.5700
 3126TIP3    H130869   6.837   1.110  10.850  0.1694  0.4413 -0.9768
 3126TIP3    H230870   6.803   1.231  10.934  0.3528 -0.7676  0.8683
 3127TIP3   OH230871   5.773   6.638  13.238  0.8912 -0.3697 -0.4768
 3127TIP3    H130872   5.829   6.668  13.167  2.0787  0.1617  0.6721
 3127TIP3    H230873   5.833   6.618  13.310 -0.4099  0.5441  0.8910
 3128TIP3   OH230874   4.876   6.464  10.940  0.0537  0.2506  0.5792
 3128TIP3    H130875   4.854   6.478  10.848 -0.9609  0.8342  0.8985
 3128TIP3    H230876   4.872   6.369  10.952 -0.5213  0.2227  0.1857
 3129TIP3   OH230877   5.303   0.423  10.323  0.1377 -0.2426 -0.2475
 3129TIP3    H130878   5.228   0.479  10.342  0.9126  0.4989  0.6625
 3129TIP3    H230879   5.276   0.373  10.245 -0.9490  0.6424 -0.4580
 3130TIP3   OH230880   4.230   0.138  11.048  0.3176  0.3083 -1.1364
 3130TIP3    H130881   4.279   0.204  11.098 -1.9777  0.6298  0.7892
 3130TIP3    H230882   4.231   0.171  10.958  3.5732  0.2959 -1.1528
 3131TIP3   OH230883   5.457   6.348  10.371  0.0158 -0.0180  0.1576
 3131TIP3    H130884   5.364   6.362  10.357  0.2128 -0.2193 -1.3859
 3131TIP3    H230885   5.498   6.362  10.286  1.3292 -0.5352  0.6734
 3132TIP3   OH230886   1.662   6.785  11.570  0.2696  0.3887 -0.0275
 3132TIP3    H130887   1.631   6.725  11.639  0.2250 -1.5670 -1.7083
 3132TIP3    H230888   1.592   6.785  11.505  1.0498  0.8868 -0.8809
 3133TIP3   OH230889   6.017   5.514  11.535  0.2359 -0.4614  0.1877
 3133TIP3    H130890   6.085   5.563  11.489 -1.4350  1.0417 -0.7445
 3133TIP3    H230891   6.027   5.424  11.504  0.2145  0.2143 -1.8346
 3134TIP3   OH230892   6.153   7.209  10.534 -0.6257  0.0603  0.4325
 3134TIP3    H130893   6.109   7.141  10.585 -0.8011  0.1819  0.4461
 3134TIP3    H230894   6.238   7.220  10.576 -0.7168  0.0626  0.6164
 3135TIP3   OH230895   5.872   7.155  10.147 -0.1596 -0.2729  0.2070
 3135TIP3    H130896   5.897   7.212  10.075  1.3568 -1.1460  0.0242
 3135TIP3    H230897   5.789   7.116  10.120  0.2927 -0.4327 -0.9831
 3136TIP3   OH230898   7.057   6.035  11.469  0.2852  0.2523  0.5105
 3136TIP3    H130899   7.072   5.941  11.477  0.0248  0.1128 -0.5291
 3136TIP3    H230900   6.962   6.043  11.460  0.3713  0.5333 -0.2313
 3137TIP3   OH230901   0.442   5.857  11.682  0.1073 -0.1478  0.2539
 3137TIP3    H130902   0.517   5.906  11.715  0.1441 -0.0454  0.0256
 3137TIP3    H230903   0.384   5.925  11.647  0.4080 -0.3066 -0.5617
 3138TIP3   OH230904   6.408   6.430  10.875  0.2570 -0.1540  0.4579
 3138TIP3    H130905   6.428   6.522  10.854 -2.4482  0.7083  1.4867
 3138TIP3    H230906   6.481   6.381  10.837  0.8881  2.2693 -1.6068
 3139TIP3   OH230907   5.604   6.098  10.672 -0.1161  0.3863  0.5010
 3139TIP3    H130908   5.680   6.108  10.729 -1.2404 -3.6251  2.9006
 3139TIP3    H230909   5.641   6.071  10.588  1.1853 -1.0314  1.5057
 3140TIP3   OH230910   4.129   6.809  12.002  0.3534  0.3072  0.7842
 3140TIP3    H130911   4.036   6.796  11.986  0.4429  0.8150 -0.1669
 3140TIP3    H230912   4.133   6.846  12.090 -0.1886 -1.7399  1.7072
 3141TIP3   OH230913   5.244   0.554  12.153 -0.5078  0.2223  0.0656
 3141TIP3    H130914   5.276   0.625  12.099 -0.8330  0.1650 -0.2012
 3141TIP3    H230915   5.318   0.494  12.160  0.4326  1.5493  1.9577
 3142TIP3   OH230916   0.055   0.182  10.019 -1.2511  0.3767 -0.3075
 3142TIP3    H130917   0.117   0.208   9.950 -1.8565  0.0471 -0.9834
 3142TIP3    H230918   0.051   0.086  10.011  0.2078  0.1314  1.5086
 3143TIP3   OH230919   0.631   0.687  10.434  0.0630  1.0061  0.1722
 3143TIP3    H130920   0.625   0.743  10.356 -2.8083  0.7004  0.1178
 3143TIP3    H230921   0.591   0.739  10.504 -0.7884 -0.1613  0.5737
 3144TIP3   OH230922   1.337   0.510  10.044 -0.4278  0.0498  0.3320
 3144TIP3    H130923   1.256   0.524   9.995  0.4891 -0.9579 -1.5214
 3144TIP3    H230924   1.402   0.564   9.998  0.1116  0.3020  1.3834
 3145TIP3   OH230925   0.846   5.639  12.165 -0.3593  0.5370 -0.4597
 3145TIP3    H130926   0.900   5.563  12.144  0.0247  0.4367  0.8450
 3145TIP3    H230927   0.785   5.646  12.092  0.4523 -0.2430 -1.2237
 3146TIP3   OH230928   6.770   6.883  10.909  0.6754 -0.2195 -0.4301
 3146TIP3    H130929   6.761   6.965  10.957 -1.9735  0.4450 -1.9515
 3146TIP3    H230930   6.821   6.827  10.967  0.5287  1.7019  1.6387
 3147TIP3   OH230931   0.463   5.200  11.962 -0.2665 -0.2100  0.0919
 3147TIP3    H130932   0.503   5.230  11.880  0.5975  2.0459  1.2939
 3147TIP3    H230933   0.373   5.176  11.937 -0.8269  2.8672 -1.1032
 3148TIP3   OH230934   0.045   5.661  13.962  0.1293  0.0056 -0.1281
 3148TIP3    H130935   0.045   5.592  14.029  1.5321 -0.7977 -0.9276
 3148TIP3    H230936   0.024   5.741  14.010  1.6960 -0.4629  1.3848
 3149TIP3   OH230937   1.141   3.278  11.279  0.7182 -0.0995 -0.0689
 3149TIP3    H130938   1.127   3.350  11.341  0.1010 -0.9662  0.7916
 3149TIP3    H230939   1.084   3.208  11.309  0.5233 -0.5926 -1.5269
 3150TIP3   OH230940   0.282   4.299  11.185 -0.3124  0.2052  0.1630
 3150TIP3    H130941   0.287   4.345  11.269 -4.0200 -0.3241  0.7835
 3150TIP3    H230942   0.293   4.207  11.209  0.9370  0.2472 -0.2484
 3151TIP3   OH230943   6.068   5.556  10.023  0.5221  0.3487  0.0338
 3151TIP3    H130944   5.978   5.554  10.056 -0.3087 -1.3907 -2.2240
 3151TIP3    H230945   6.099   5.465  10.031  1.4649  0.5797 -0.8130
 3152TIP3   OH230946   6.211   5.393  11.863  0.1771 -0.1917  0.4296
 3152TIP3    H130947   6.284   5.365  11.917  2.6071 -0.5085 -2.8337
 3152TIP3    H230948   6.237   5.478  11.828 -0.0293 -1.1835 -2.3502
 3153TIP3   OH230949   6.771   5.450  10.928  0.4581  0.1491 -0.3954
 3153TIP3    H130950   6.855   5.449  10.882  0.5607 -0.5796 -0.2026
 3153TIP3    H230951   6.779   5.379  10.993  1.3817  2.8672  2.5993
 3154TIP3   OH230952   6.554   0.405  10.192 -0.2003 -0.2783  0.1212
 3154TIP3    H130953   6.521   0.318  10.171  2.2804 -1.3998  0.5957
 3154TIP3    H230954   6.637   0.411  10.143  0.9171  0.7862  2.0675
 3155TIP3   OH230955   6.444   0.019  11.248 -0.5353  0.1648  0.1123
 3155TIP3    H130956   6.406   0.069  11.176 -3.4652  0.3461  1.7203
 3155TIP3    H230957   6.422  -0.072  11.228  0.1675  0.0385 -0.0984
 3156TIP3   OH230958   0.248   5.508  10.953  0.2813  0.6138 -0.2908
 3156TIP3    H130959   0.264   5.500  11.047 -0.4008  0.5585 -0.1788
 3156TIP3    H230960   0.274   5.423  10.917  2.1465  1.1865 -0.3936
 3157TIP3   OH230961   0.118   5.432  11.445 -0.6972  0.7909 -0.0239
 3157TIP3    H130962   0.129   5.393  11.359  0.1594  2.9808 -0.9645
 3157TIP3    H230963   0.168   5.375  11.504 -1.6250 -0.9453 -0.8920
 3158TIP3   OH230964   0.408   3.203  11.957 -0.2455 -0.0435  0.1764
 3158TIP3    H130965   0.479   3.189  11.895 -0.6659 -1.6402  0.0501
 3158TIP3    H230966   0.331   3.163  11.916 -0.3768 -1.7744  2.0249
 3159TIP3   OH230967   1.058   0.541  12.601  0.3284  0.6612  0.7121
 3159TIP3    H130968   1.102   0.473  12.550 -2.5692  0.5433 -1.8043
 3159TIP3    H230969   1.038   0.499  12.685  0.4875 -0.8899 -0.0111
 3160TIP3   OH230970   5.020   5.327  11.737  0.7337  0.1575 -0.2467
 3160TIP3    H130971   4.961   5.332  11.812  1.1585  0.0450  0.0968
 3160TIP3    H230972   4.963   5.304  11.664 -0.1179  2.9167 -0.4970
 3161TIP3   OH230973   1.207   5.157  10.723 -0.1251 -0.3629  0.4651
 3161TIP3    H130974   1.229   5.122  10.636 -0.2703  0.0199  0.2718
 3161TIP3    H230975   1.253   5.241  10.727  0.2989 -0.6226  0.9649
 3162TIP3   OH230976   6.382   5.657  13.363  0.5316  0.6794  0.1148
 3162TIP3    H130977   6.361   5.565  13.352  0.5133  0.6591  0.3110
 3162TIP3    H230978   6.402   5.688  13.275 -1.6581  1.0284 -0.2810
 3163TIP3   OH230979   5.308   4.765  10.345  0.2199  0.0724  0.6903
 3163TIP3    H130980   5.327   4.832  10.280  2.8651 -0.3504  0.9809
 3163TIP3    H230981   5.383   4.768  10.405 -2.3495  0.8201  4.0587
 3164TIP3   OH230982   1.313   5.705  10.958 -0.5568  0.5448  0.0519
 3164TIP3    H130983   1.233   5.751  10.984  0.5561  1.8603  1.2415
 3164TIP3    H230984   1.319   5.630  11.017 -1.5260 -0.2414 -0.8305
 3165TIP3   OH230985   6.577   6.600  11.148 -0.2535 -0.2224  0.4761
 3165TIP3    H130986   6.589   6.596  11.054 -1.7319  0.3191  0.2463
 3165TIP3    H230987   6.557   6.510  11.174  1.1817 -0.5621  0.4376
 3166TIP3   OH230988   1.130   5.447   9.863 -0.0016 -0.1131  0.1641
 3166TIP3    H130989   1.213   5.442   9.816 -0.2769  1.9003 -0.5936
 3166TIP3    H230990   1.156   5.462   9.954  0.5003 -2.5048  0.4374
 3167TIP3   OH230991   3.027   0.004  11.398 -0.6041 -0.2309  0.1631
 3167TIP3    H130992   3.054  -0.079  11.360 -1.5040 -0.4587  0.0244
 3167TIP3    H230993   3.002   0.058  11.324 -0.5036 -0.0093  0.2894
 3168TIP3   OH230994   6.951   3.700  12.408  0.4393  0.0681  0.1433
 3168TIP3    H130995   7.003   3.780  12.415 -0.1849  0.6042 -1.1703
 3168TIP3    H230996   6.861   3.730  12.395  0.0925 -0.8505  0.3452
 3169TIP3   OH230997   6.955   3.696  13.620 -0.4958 -0.3004  0.4381
 3169TIP3    H130998   6.924   3.628  13.559  0.8168 -0.2961 -0.2391
 3169TIP3    H230999   6.987   3.648  13.696  0.6734 -0.4483 -0.1513
 3170TIP3   OH231000   6.606   5.612  10.770 -0.0772 -0.1317 -0.2511
 3170TIP3    H131001   6.651   5.553  10.831 -0.8719 -0.0146  0.4569
 3170TIP3    H231002   6.622   5.573  10.684  0.5634 -0.6193  0.0763
 3171TIP3   OH231003   0.303   6.411  10.102  0.3088 -0.1775  0.2538
 3171TIP3    H131004   0.359   6.363  10.041  0.1168  3.7856 -3.2868
 3171TIP3    H231005   0.215   6.398  10.067  0.0991  1.3590  0.1969
 3172TIP3   OH231006   0.271   4.568  10.163 -0.4485 -0.6812  0.1955
 3172TIP3    H131007   0.298   4.646  10.115 -0.0303 -0.5840  0.5834
 3172TIP3    H231008   0.266   4.596  10.255  1.4082 -1.5319  0.5801
 3173TIP3   OH231009   1.869   5.731  11.532 -0.1288 -0.2142  0.2549
 3173TIP3    H131010   1.893   5.710  11.622 -0.0280  0.2803  0.3439
 3173TIP3    H231011   1.851   5.646  11.492  4.1794 -0.8741 -0.5041
 3174TIP3   OH231012   1.142   5.069  12.071 -0.0161  0.0175  0.2434
 3174TIP3    H131013   1.187   5.150  12.095  0.3930  0.0150 -0.5193
 3174TIP3    H231014   1.155   5.061  11.976 -0.7898 -0.4878  0.1774
 3175TIP3   OH231015   1.182   5.793  11.409  0.0962 -0.1974  0.2227
 3175TIP3    H131016   1.184   5.862  11.343 -0.6222  1.0871  1.5244
 3175TIP3    H231017   1.273   5.784  11.437  0.7364 -2.0449 -2.2112
 3176TIP3   OH231018   6.465   4.249  11.064 -0.5109 -0.4967  0.4749
 3176TIP3    H131019   6.414   4.209  10.993 -0.9834  0.2854  0.3721
 3176TIP3    H231020   6.401   4.300  11.113  0.4779  1.9293 -0.6885
 3177TIP3   OH231021   6.001   3.899  12.434 -0.2794  0.1187 -0.3005
 3177TIP3    H131022   6.093   3.904  12.461 -0.7473  0.6448  1.2819
 3177TIP3    H231023   5.994   3.814  12.391  1.0635  0.2884 -0.8850
 3178TIP3   OH231024   4.467   0.308  11.745 -0.2174 -0.2438  0.3434
 3178TIP3    H131025   4.552   0.272  11.770 -0.3445 -0.7185  0.1005
 3178TIP3    H231026   4.428   0.337  11.828  0.7201  1.1721  0.3034
 3179TIP3   OH231027   7.245   6.822  10.525 -0.1510 -0.7794 -0.5722
 3179TIP3    H131028   7.337   6.837  10.503  0.3126 -4.5992 -1.6300
 3179TIP3    H231029   7.199   6.834  10.442 -0.4402  0.0160 -0.2930
 3180TIP3   OH231030   6.874   0.154  10.507  0.0429  0.0415 -0.5740
 3180TIP3    H131031   6.945   0.163  10.570 -1.3729 -1.0435  1.2329
 3180TIP3    H231032   6.915   0.116  10.429  1.4429 -0.4115  0.3760
 3181TIP3   OH231033   1.264   5.544  12.002  0.7068 -0.3439 -0.1942
 3181TIP3    H131034   1.209   5.616  12.031  0.1214 -0.3539 -1.2735
 3181TIP3    H231035   1.343   5.550  12.057  0.4958  0.8676 -0.0262
 3182TIP3   OH231036   5.903   7.115  11.391  0.5760  0.1270  0.6631
 3182TIP3    H131037   5.978   7.097  11.447 -0.0816 -0.5829  1.3150
 3182TIP3    H231038   5.846   7.171  11.444 -0.3506 -1.0766  0.9390
 3183TIP3   OH231039   7.081   6.450  11.544  0.5477  0.0939 -0.2702
 3183TIP3    H131040   6.993   6.488  11.543  1.0746  1.2944 -2.7858
 3183TIP3    H231041   7.137   6.521  11.575  0.5695 -0.9316  2.1870
 3184TIP3   OH231042   6.264   3.346  11.032  0.1873 -0.0366  0.0681
 3184TIP3    H131043   6.213   3.272  10.998  1.2275 -0.0331 -1.5523
 3184TIP3    H231044   6.322   3.307  11.098 -1.1841 -0.2034  1.1993
 3185TIP3   OH231045   1.170   5.893  10.153  0.1368  0.4346  0.1513
 3185TIP3    H131046   1.193   5.879  10.245 -1.6385  0.0684  0.5604
 3185TIP3    H231047   1.083   5.933  10.156  0.5506  1.4929 -1.3478
 3186TIP3   OH231048   6.321   5.642  11.757  0.2598  0.1594  0.1948
 3186TIP3    H131049   6.370   5.700  11.816  1.9557 -2.6413  1.6599
 3186TIP3    H231050   6.351   5.666  11.670  0.6906  1.6839  0.7399
 3187TIP3   OH231051   6.738   5.655  12.656 -0.4073 -0.3289  0.2122
 3187TIP3    H131052   6.784   5.733  12.687 -1.2424  0.7969 -1.2949
 3187TIP3    H231053   6.749   5.591  12.726  2.2448  0.3759  0.4707
 3188TIP3   OH231054   6.723   4.004  10.667 -0.0460 -0.0387 -0.6562
 3188TIP3    H131055   6.629   4.012  10.648 -0.6922 -1.9235  1.4532
 3188TIP3    H231056   6.757   3.951  10.595 -0.7748 -0.0762 -0.9839
 3189TIP3   OH231057   5.181   7.211  10.884 -0.0574 -0.1020 -0.5530
 3189TIP3    H131058   5.200   7.211  10.978  1.1056 -0.3405 -0.7835
 3189TIP3    H231059   5.209   7.124  10.854 -1.6541 -0.5213 -0.8778
 3190TIP3   OH231060   5.872   6.999  10.467  0.2102  0.3363 -0.1482
 3190TIP3    H131061   5.873   7.095  10.468  0.1309  0.3331  0.5850
 3190TIP3    H231062   5.779   6.977  10.466  0.2291  0.2662 -0.3443
 3191TIP3   OH231063   5.054   7.084   9.887 -0.0896  0.7920  0.2292
 3191TIP3    H131064   5.127   7.076   9.948 -2.0561 -3.5108  2.2228
 3191TIP3    H231065   5.082   7.035   9.810 -0.7424 -0.6675  0.9060
 3192TIP3   OH231066   6.200   6.912  10.024 -0.4210 -0.1943  0.6966
 3192TIP3    H131067   6.149   6.962  10.088 -1.4342 -1.3778  0.8140
 3192TIP3    H231068   6.291   6.932  10.046 -0.7257 -1.3012  3.1236
 3193TIP3   OH231069   5.980   6.173   9.509  0.4635 -0.3567 -0.0863
 3193TIP3    H131070   6.062   6.138   9.543  1.2786  0.5329 -1.0945
 3193TIP3    H231071   5.992   6.175   9.414 -0.8422 -0.4996 -0.2632
 3194TIP3   OH231072   6.680   0.685  10.938 -0.0453 -0.0414  0.5754
 3194TIP3    H131073   6.745   0.652  10.876  0.2732 -1.8954  1.8466
 3194TIP3    H231074   6.724   0.758  10.983  0.1321  0.5441 -0.5294
 3195TIP3   OH231075   6.679   1.310  12.061  0.6150 -0.2284 -0.2557
 3195TIP3    H131076   6.669   1.404  12.074 -1.0025 -0.4698  0.4546
 3195TIP3    H231077   6.758   1.287  12.110  1.3135  0.8484 -0.8807
 3196TIP3   OH231078   7.090   3.254  10.914  0.2338  0.6497  0.4340
 3196TIP3    H131079   7.031   3.308  10.862 -1.7425  0.4775  2.4150
 3196TIP3    H231080   7.166   3.309  10.930  0.3445  1.1207 -1.5909
 3197TIP3   OH231081   1.603   0.997  11.267 -0.0976 -0.1109 -0.2974
 3197TIP3    H131082   1.543   0.968  11.336  1.3805  0.0160  1.0832
 3197TIP3    H231083   1.660   0.922  11.252  0.6812  0.4548 -0.1558
 3198TIP3   OH231084   1.089   0.569  13.809  0.0013  0.1045 -0.1668
 3198TIP3    H131085   1.040   0.646  13.781 -0.3424 -0.9095 -2.4450
 3198TIP3    H231086   1.179   0.599  13.818 -0.3418  1.0431  0.1274
 3199TIP3   OH231087   2.996   1.583  14.993  0.2301  0.1192  0.3856
 3199TIP3    H131088   3.080   1.547  14.966  0.2802 -0.0932  0.8267
 3199TIP3    H231089   2.999   1.583  15.088 -1.2205 -2.2039  0.4915
 3200TIP3   OH231090   6.696   5.914  12.482 -0.1968 -0.2392 -0.1615
 3200TIP3    H131091   6.771   5.876  12.528 -1.0292  0.3306  1.7204
 3200TIP3    H231092   6.716   6.008  12.478  0.2292 -0.3754 -1.6929
 3201TIP3   OH231093   2.530   1.813  15.080  0.9393 -0.3006 -0.0049
 3201TIP3    H131094   2.601   1.785  15.022  0.2458 -1.1701 -0.4434
 3201TIP3    H231095   2.491   1.888  15.036  0.6628 -0.7209 -0.4797
 3202TIP3   OH231096   1.025   5.633  15.196  0.4878  0.2185  0.3102
 3202TIP3    H131097   1.074   5.551  15.192 -0.0152 -0.1291  1.0793
 3202TIP3    H231098   1.092   5.702  15.195  0.8554 -0.1445 -1.7795
 3203TIP3   OH231099   0.950   6.364  13.522 -0.0688  0.5115 -0.4595
 3203TIP3    H131100   0.991   6.329  13.601 -1.3153 -0.6041 -0.2938
 3203TIP3    H231101   0.987   6.452  13.513  1.4247 -0.0182  0.3549
 3204TIP3   OH231102   0.671   0.400  14.521  0.5875 -0.6096 -0.1003
 3204TIP3    H131103   0.764   0.399  14.545  1.1702 -2.0946 -2.2505
 3204TIP3    H231104   0.630   0.338  14.582  1.1781 -0.6995  0.2056
 3205TIP3   OH231105   1.736   7.267  13.320 -0.2004 -0.0936  0.2905
 3205TIP3    H131106   1.744   7.182  13.364  2.6492  1.0235  2.0864
 3205TIP3    H231107   1.761   7.249  13.229 -0.6270 -1.3427  0.3999
 3206TIP3   OH231108   6.814   0.202  12.753  0.2584 -0.3133  0.5262
 3206TIP3    H131109   6.797   0.265  12.683  0.1998  0.0739  0.8847
 3206TIP3    H231110   6.888   0.150  12.721  0.7745  0.4067  0.5382
 3207TIP3   OH231111   3.257   6.125  15.521  0.1228 -0.1654 -0.3705
 3207TIP3    H131112   3.328   6.067  15.548  1.1538  0.5897 -1.4001
 3207TIP3    H231113   3.184   6.065  15.501 -0.2071 -0.8181  2.5445
 3208TIP3   OH231114   3.125   0.106  15.652 -0.0398  0.5987  0.0338
 3208TIP3    H131115   3.075   0.027  15.672 -0.2300  0.8889  0.7096
 3208TIP3    H231116   3.192   0.077  15.591 -1.2334  0.2589 -1.1529
 3209TIP3   OH231117   0.261   4.607  15.103 -0.1937 -0.2128 -0.6701
 3209TIP3    H131118   0.333   4.614  15.166  1.0501 -1.8051 -1.8643
 3209TIP3    H231119   0.184   4.590  15.156  0.6348 -0.3034  0.5198
 3210TIP3   OH231120   2.391   6.743  15.700  0.3367 -0.3121 -0.6147
 3210TIP3    H131121   2.434   6.661  15.674  2.5069  1.1016 -1.6349
 3210TIP3    H231122   2.463   6.803  15.717 -1.2341  1.3515  0.3025
 3211TIP3   OH231123   2.440   1.040  11.383  0.3754  0.5348  0.0980
 3211TIP3    H131124   2.507   0.979  11.415  0.4891  0.6205  0.0259
 3211TIP3    H231125   2.391   0.990  11.319  0.2151  0.3960  0.3303
 3212TIP3   OH231126   2.407   1.279  13.921  0.4111  0.3468 -1.3100
 3212TIP3    H131127   2.497   1.277  13.953  0.3785 -0.0431 -1.2411
 3212TIP3    H231128   2.402   1.207  13.858 -0.3754 -0.8683  0.0901
 3213TIP3   OH231129   2.969   1.256  14.318  0.5252  0.1347  0.3232
 3213TIP3    H131130   2.916   1.222  14.390 -1.0394  0.5428 -0.5951
 3213TIP3    H231131   3.019   1.181  14.287 -0.0461 -0.4336  0.7613
 3214TIP3   OH231132   0.103   0.221  15.248  0.1064 -0.4461 -0.5094
 3214TIP3    H131133   0.172   0.162  15.278  0.5551  0.0878 -0.4857
 3214TIP3    H231134   0.124   0.305  15.289  0.0047 -0.0289 -1.3019
 3215TIP3   OH231135   0.367   2.109  14.312 -0.1063  0.1078 -0.4590
 3215TIP3    H131136   0.277   2.078  14.302  0.3816 -1.1193 -1.1472
 3215TIP3    H231137   0.377   2.123  14.406 -1.4977  1.7844 -0.5330
 3216TIP3   OH231138   2.515   0.662  13.584  0.6163 -0.9286  0.6080
 3216TIP3    H131139   2.430   0.634  13.551  0.7792 -1.3901  0.5789
 3216TIP3    H231140   2.565   0.687  13.506  0.0396  0.6577  0.7323
 3217TIP3   OH231141   1.255   2.138  13.192  0.0045  0.4324 -0.6279
 3217TIP3    H131142   1.180   2.138  13.133  0.7925 -1.2641 -1.6805
 3217TIP3    H231143   1.293   2.051  13.182  1.9642  1.1812  0.0864
 3218TIP3   OH231144   6.183   0.937  13.700 -0.2462  0.2124 -0.3909
 3218TIP3    H131145   6.191   1.007  13.765 -2.2005 -0.6066  0.8050
 3218TIP3    H231146   6.198   0.980  13.616 -1.3407  2.0673  0.3282
 3219TIP3   OH231147   2.069   0.332  14.700 -0.1545  0.3542 -0.1789
 3219TIP3    H131148   2.055   0.427  14.705  0.3028  0.4242 -0.2495
 3219TIP3    H231149   2.126   0.320  14.624  1.6241  0.2272  1.1512
 3220TIP3   OH231150   0.260   0.303  12.842  0.3743  0.1171  0.0369
 3220TIP3    H131151   0.245   0.215  12.806  0.6638 -0.2898  0.8702
 3220TIP3    H231152   0.298   0.286  12.928 -1.0534  1.0400  0.8752
 3221TIP3   OH231153   2.699   4.243  14.927  0.0981  0.1410  0.8567
 3221TIP3    H131154   2.649   4.311  14.881 -0.0379 -0.0717  0.6866
 3221TIP3    H231155   2.702   4.171  14.864 -0.9300 -0.5257  1.5515
 3222TIP3   OH231156   0.949   7.312  15.121 -0.2987 -0.1795 -0.0909
 3222TIP3    H131157   0.902   7.271  15.048  1.0039 -1.4804 -0.2136
 3222TIP3    H231158   0.917   7.402  15.122 -0.3099 -0.1323 -2.2948
 3223TIP3   OH231159   0.177   4.259  10.516  0.2178  0.1732 -0.2086
 3223TIP3    H131160   0.252   4.264  10.576  0.2965  0.7802 -0.3500
 3223TIP3    H231161   0.102   4.284  10.569  0.2949  0.7623 -0.3651
 3224TIP3   OH231162   1.713   0.561  14.676 -0.2007 -0.0509 -0.1507
 3224TIP3    H131163   1.771   0.542  14.603 -0.8694 -0.5397 -0.5612
 3224TIP3    H231164   1.757   0.520  14.752  0.8950  1.1555 -0.1119
 3225TIP3   OH231165   2.224   1.470  13.431 -0.5252  0.1818 -0.1121
 3225TIP3    H131166   2.214   1.424  13.514  2.5843  1.0106  0.7458
 3225TIP3    H231167   2.295   1.532  13.445 -0.7324  1.1636 -3.0434
 3226TIP3   OH231168   0.260   6.629  15.920 -0.1101  0.2819 -0.0708
 3226TIP3    H131169   0.245   6.683  15.998  3.8686  0.7394  0.4709
 3226TIP3    H231170   0.342   6.582  15.939  0.9469  0.4124 -3.9802
 3227TIP3   OH231171   6.082   6.160  10.536  0.6039  0.4036  0.0582
 3227TIP3    H131172   6.049   6.104  10.465  0.2980  1.0877 -0.3473
 3227TIP3    H231173   6.076   6.249  10.501 -0.3766  0.8341  1.2496
 3228TIP3   OH231174   0.176   7.136  13.296 -0.3354 -0.1671 -0.1905
 3228TIP3    H131175   0.259   7.159  13.254 -0.8787  0.6374 -0.8279
 3228TIP3    H231176   0.110   7.152  13.229 -1.4448  2.9803  1.5521
 3229TIP3   OH231177   6.115   0.163  13.701 -0.1042 -0.0847 -0.0712
 3229TIP3    H131178   6.066   0.230  13.654  0.9599  0.3342 -0.5924
 3229TIP3    H231179   6.081   0.080  13.668  0.8275  0.1976 -1.8010
 3230TIP3   OH231180   2.964   2.473  14.740  0.1288  0.0265 -0.2160
 3230TIP3    H131181   2.934   2.407  14.803  0.3698 -0.5830 -0.7301
 3230TIP3    H231182   2.954   2.556  14.786  1.1619 -0.4854  0.9533
 3231TIP3   OH231183   3.281   1.815  15.624 -0.0288 -0.3084  0.0801
 3231TIP3    H131184   3.251   1.903  15.646 -0.4537 -0.3925 -0.1502
 3231TIP3    H231185   3.342   1.828  15.551  0.9569 -0.0809  0.9432
 3232TIP3   OH231186   0.780   0.508   0.992  0.0469  0.0064  0.3226
 3232TIP3    H131187   0.871   0.521   0.963 -0.3612 -2.8801 -2.5114
 3232TIP3    H231188   0.728   0.560   0.932 -0.3304 -0.3598  0.3278
 3233TIP3   OH231189   0.915   1.893  13.530 -0.3635  0.0491 -0.2375
 3233TIP3    H131190   0.902   1.922  13.440  0.6062 -2.3302 -1.1758
 3233TIP3    H231191   1.005   1.862  13.533 -0.5334 -0.3282  1.4475
 3234TIP3   OH231192   0.437   1.596  15.128  0.6566  0.2118 -0.8183
 3234TIP3    H131193   0.374   1.646  15.180  1.0524 -1.1352  0.9910
 3234TIP3    H231194   0.517   1.596  15.181  0.7823 -1.9687 -0.9828
 3235TIP3   OH231195   1.937   0.197   0.396 -0.1441 -0.2627  0.3397
 3235TIP3    H131196   2.025   0.212   0.432  0.2982  0.3988 -0.9623
 3235TIP3    H231197   1.905   0.285   0.375 -1.4790 -0.4283  1.6003
 3236TIP3   OH231198   5.958   1.213   0.471 -0.0466  0.3344  0.8799
 3236TIP3    H131199   5.938   1.120   0.481  1.6553  0.0713  2.0877
 3236TIP3    H231200   5.878   1.258   0.499 -1.5995 -0.7717 -1.6493
 3237TIP3   OH231201   0.378   0.475  11.879  0.4948  0.0910  0.3744
 3237TIP3    H131202   0.458   0.525  11.863  1.0815 -0.4840  1.4398
 3237TIP3    H231203   0.406   0.403  11.937 -0.9915  0.4624  1.5754
 3238TIP3   OH231204   6.671   0.963  12.675 -0.6508  0.7435  0.7002
 3238TIP3    H131205   6.666   1.033  12.740  1.0099  1.1292  0.4413
 3238TIP3    H231206   6.759   0.927  12.686 -0.2484  1.0038 -1.5019
 3239TIP3   OH231207   0.028   1.165  13.907 -0.0544  0.3404  0.0383
 3239TIP3    H131208   0.114   1.123  13.919  0.0882  0.7115  0.3402
 3239TIP3    H231209   0.048   1.246  13.861  0.1964  2.1169  3.1282
 3240TIP3   OH231210   7.156   1.736  11.585  0.0361 -0.4810  0.7213
 3240TIP3    H131211   7.175   1.727  11.679 -1.4909 -1.2641  0.9727
 3240TIP3    H231212   7.106   1.657  11.563  0.8115 -0.5538 -0.8788
 3241TIP3   OH231213   3.771   0.023  14.358 -0.4664  0.0024  0.6447
 3241TIP3    H131214   3.820   0.089  14.407 -1.8952  1.7359 -0.1849
 3241TIP3    H231215   3.822   0.010  14.278 -0.5906  0.7297  0.4402
 3242TIP3   OH231216   1.080   7.151  11.000  0.4344  0.4441 -0.2141
 3242TIP3    H131217   1.155   7.092  10.995  0.4284  0.2525  1.6344
 3242TIP3    H231218   1.088   7.193  11.086 -0.5573  1.7908 -0.7619
 3243TIP3   OH231219   2.366   1.946  12.619  0.0237  1.0004  0.1200
 3243TIP3    H131220   2.367   1.995  12.701  1.0518  0.1093  0.6508
 3243TIP3    H231221   2.274   1.948  12.591 -0.5585  0.3181  1.9010
 3244TIP3   OH231222   0.020   1.647  15.959  0.1438 -0.1889 -0.0266
 3244TIP3    H131223  -0.021   1.635  15.873 -0.6319 -2.0882  0.5756
 3244TIP3    H231224   0.075   1.570  15.970 -2.0464 -1.4951  2.4129
 3245TIP3   OH231225   1.491   0.595  13.730  0.1110  0.2247 -0.1473
 3245TIP3    H131226   1.438   0.610  13.808 -0.1002 -0.6431 -0.1141
 3245TIP3    H231227   1.465   0.665  13.669  1.6161  2.0154  1.2125
 3246TIP3   OH231228   1.175   1.448  12.184  0.6652  0.3400  0.9649
 3246TIP3    H131229   1.214   1.381  12.241 -0.3161 -0.4937  0.6872
 3246TIP3    H231230   1.238   1.459  12.113  0.9266 -0.1706  1.1118
 3247TIP3   OH231231   0.233   1.028  12.897  0.3026 -0.0856 -0.5426
 3247TIP3    H131232   0.146   1.017  12.934 -0.3371  1.3544 -1.5365
 3247TIP3    H231233   0.291   1.039  12.972 -0.6647  0.8168  0.0729
 3248TIP3   OH231234   6.482   1.927  13.107  0.2318 -0.0584 -0.8903
 3248TIP3    H131235   6.487   2.020  13.127  0.5616  0.0868 -1.5954
 3248TIP3    H231236   6.561   1.890  13.147 -0.3169 -0.1700  0.0813
 3249TIP3   OH231237   7.249   1.026  13.388 -0.2609  0.0273 -0.7953
 3249TIP3    H131238   7.265   1.014  13.482  0.2013 -0.0536 -0.8830
 3249TIP3    H231239   7.288   0.949  13.347  0.5470  0.6226 -1.1536
 3250TIP3   OH231240   3.139   4.581  15.862  0.5078 -0.6676 -0.0108
 3250TIP3    H131241   3.117   4.546  15.775  0.0491  2.8570 -1.4007
 3250TIP3    H231242   3.056   4.618  15.894  1.1956  0.0968  0.8934
 3251TIP3   OH231243   1.586   2.199  12.357  0.5910  0.3704  0.0470
 3251TIP3    H131244   1.624   2.112  12.354  2.3877  1.0654  1.4220
 3251TIP3    H231245   1.613   2.234  12.442 -0.1715  2.2288 -0.4461
 3252TIP3   OH231246   1.409   6.519  14.506 -0.2673  0.5591 -1.0368
 3252TIP3    H131247   1.333   6.503  14.450 -0.5473  1.6686 -0.9849
 3252TIP3    H231248   1.475   6.554  14.447 -0.8985  2.6935 -0.5332
 3253TIP3   OH231249   1.817   3.163  14.727  0.5718  0.5586  0.1368
 3253TIP3    H131250   1.764   3.243  14.727 -1.0666 -0.4773 -2.2181
 3253TIP3    H231251   1.840   3.150  14.819 -3.1618  1.1512  1.2539
 3254TIP3   OH231252   1.170   6.445  14.377  0.2862  0.0435  0.1874
 3254TIP3    H131253   1.124   6.518  14.334  0.0404 -1.3297 -1.9954
 3254TIP3    H231254   1.101   6.400  14.426  0.1842  0.5299  0.4988
 3255TIP3   OH231255   2.198   6.837  15.534  0.4406 -0.5698  0.2429
 3255TIP3    H131256   2.280   6.799  15.565 -0.0998 -0.8795  1.3182
 3255TIP3    H231257   2.203   6.831  15.438  1.5969 -0.7323  0.3123
 3256TIP3   OH231258   2.698   7.002  14.593  0.5199 -0.0133  0.1700
 3256TIP3    H131259   2.721   7.055  14.516 -0.1897 -0.1403 -0.1353
 3256TIP3    H231260   2.739   7.047  14.667 -1.0512  1.6326  0.0770
 3257TIP3   OH231261   4.378   2.481  11.242  0.4548 -0.0325 -0.1266
 3257TIP3    H131262   4.439   2.507  11.312 -2.0742 -0.3820  2.3245
 3257TIP3    H231263   4.336   2.563  11.215 -0.9659 -0.2868  1.1912
 3258TIP3   OH231264   3.274   0.167  14.604 -0.5333  0.8162 -0.0457
 3258TIP3    H131265   3.277   0.262  14.611  0.7044  0.7846  0.0574
 3258TIP3    H231266   3.336   0.146  14.534 -0.8312  0.0903 -0.0988
 3259TIP3   OH231267   1.334   1.732  14.627 -0.6022 -0.2253  0.2516
 3259TIP3    H131268   1.419   1.728  14.671 -0.9207  0.1290  0.8909
 3259TIP3    H231269   1.353   1.701  14.538  0.1550 -0.3539  0.4482
 3260TIP3   OH231270   6.889   6.759  15.280  0.4421  0.2017  0.0443
 3260TIP3    H131271   6.858   6.849  15.281 -2.6316 -0.7707 -1.9253
 3260TIP3    H231272   6.835   6.714  15.346  0.1691 -0.7619 -0.8281
 3261TIP3   OH231273   0.147   0.518  14.666 -0.0253 -0.4067  0.3074
 3261TIP3    H131274   0.065   0.471  14.680 -0.8386  0.4894 -1.2612
 3261TIP3    H231275   0.129   0.607  14.696  0.2729 -0.1294 -0.3168
 3262TIP3   OH231276   3.255   7.043  13.921 -0.3225 -0.2767  0.4263
 3262TIP3    H131277   3.227   7.100  13.849  0.6440 -0.5027 -0.1299
 3262TIP3    H231278   3.275   7.103  13.993  0.9192  0.1171 -0.2320
 3263TIP3   OH231279   0.376   5.244  13.658 -0.1421  0.0579  0.1966
 3263TIP3    H131280   0.317   5.268  13.586  0.0849  0.5856  0.1858
 3263TIP3    H231281   0.362   5.312  13.724  2.2663  1.6374 -0.8248
 3264TIP3   OH231282   0.901   0.279  14.188  0.1086  0.1403 -0.2191
 3264TIP3    H131283   0.907   0.186  14.210  0.9462 -0.0014 -1.0595
 3264TIP3    H231284   0.953   0.323  14.255  2.0939 -0.2389 -1.4784
 3265TIP3   OH231285   1.066   0.527  11.336  0.0608 -0.2060  0.4123
 3265TIP3    H131286   1.041   0.456  11.278  0.4334 -1.1940  1.4456
 3265TIP3    H231287   1.136   0.573  11.289 -0.1032 -0.5920 -0.2113
 3266TIP3   OH231288   0.610   5.987  14.577  0.2413 -0.0654 -0.0670
 3266TIP3    H131289   0.607   5.951  14.665 -2.3196  1.0770  0.3617
 3266TIP3    H231290   0.658   6.070  14.587 -0.1934  0.1448  0.2857
 3267TIP3   OH231291   6.496   0.064  13.245 -0.0174  0.1369  0.5545
 3267TIP3    H131292   6.533   0.142  13.204 -1.5723  0.2389 -0.6746
 3267TIP3    H231293   6.462   0.095  13.329  0.4757  0.5131  0.6201
 3268TIP3   OH231294   1.699   6.804  14.166  0.7679 -0.3179  0.1108
 3268TIP3    H131295   1.752   6.767  14.095 -1.0009 -0.1356 -1.3513
 3268TIP3    H231296   1.661   6.728  14.210  0.5499 -0.4021 -0.2107
 3269TIP3   OH231297   0.631   4.533  12.635 -0.0107 -0.4025 -0.4788
 3269TIP3    H131298   0.639   4.440  12.614 -0.3256 -0.4900 -0.2128
 3269TIP3    H231299   0.616   4.535  12.729  0.5574 -0.0531 -0.3921
 3270TIP3   OH231300   7.156   1.976  12.807  0.5199  0.4618 -0.8557
 3270TIP3    H131301   7.122   1.911  12.868 -0.0916 -0.9419 -2.6610
 3270TIP3    H231302   7.088   1.985  12.741  0.2159  3.5869 -0.2026
 3271TIP3   OH231303   1.337   7.183  15.389  0.7347 -0.1749 -0.2738
 3271TIP3    H131304   1.401   7.252  15.372 -2.0323  2.3590 -0.8043
 3271TIP3    H231305   1.281   7.183  15.311 -1.5581 -0.4323  1.3382
 3272TIP3   OH231306   2.982   6.668  15.584  0.1706 -0.4289 -0.4028
 3272TIP3    H131307   3.058   6.725  15.579 -0.8604  0.9905 -0.0245
 3272TIP3    H231308   2.964   6.644  15.493 -2.3089  3.7753 -1.1372
 3273TIP3   OH231309   6.637   4.622  11.713  0.4021 -0.2590  0.0060
 3273TIP3    H131310   6.612   4.597  11.624  0.3954  1.0942 -0.3766
 3273TIP3    H231311   6.651   4.538  11.758 -2.9255 -1.0262 -0.2870
 3274TIP3   OH231312   1.215   3.342  15.081 -0.2220 -0.3535  0.5777
 3274TIP3    H131313   1.197   3.387  14.998  0.2726  0.1596  0.7526
 3274TIP3    H231314   1.132   3.346  15.128  0.1441  1.4370  1.1001
 3275TIP3   OH231315   1.633   2.258  14.138 -0.2464 -0.0653  0.1688
 3275TIP3    H131316   1.713   2.280  14.089  0.4374 -0.4430  1.1029
 3275TIP3    H231317   1.660   2.190  14.200 -1.2151  0.0514  0.7340
 3276TIP3   OH231318   1.214   2.605  14.596  0.4316 -0.3638 -0.2273
 3276TIP3    H131319   1.143   2.553  14.634  0.0447 -0.7136 -1.3938
 3276TIP3    H231320   1.283   2.541  14.577 -0.3253 -0.6280 -2.3399
 3277TIP3   OH231321   5.404   6.575  14.403 -0.9736  0.2894 -0.3129
 3277TIP3    H131322   5.324   6.548  14.447 -0.2834 -0.4602  0.5066
 3277TIP3    H231323   5.446   6.493  14.375 -0.7282  0.6942 -1.1567
 3278TIP3   OH231324   1.534   1.507  13.223  0.1169 -0.3881 -0.2910
 3278TIP3    H131325   1.563   1.419  13.246 -1.3548 -0.6041  0.8623
 3278TIP3    H231326   1.551   1.559  13.302 -0.8422 -0.1050 -0.2571
 3279TIP3   OH231327   0.870   6.554  11.530 -0.6498  0.3325  0.2338
 3279TIP3    H131328   0.963   6.531  11.529 -0.5606  0.5825  1.5994
 3279TIP3    H231329   0.847   6.557  11.623 -2.3054 -0.8244 -0.1135
 3280TIP3   OH231330   0.177   1.871  11.893  0.2401  0.2003  0.6158
 3280TIP3    H131331   0.173   1.938  11.825 -1.1749 -0.4905 -0.0085
 3280TIP3    H231332   0.174   1.788  11.845 -1.3169 -0.2973  1.5277
 3281TIP3   OH231333   1.266   5.878  13.468  0.4897  0.1071  0.2536
 3281TIP3    H131334   1.271   5.948  13.533  0.5761 -0.3928  0.7838
 3281TIP3    H231335   1.351   5.880  13.424  0.8083 -0.2346  0.8541
 3282TIP3   OH231336   1.052   1.284  14.579  0.0596 -0.1547 -0.1479
 3282TIP3    H131337   1.120   1.219  14.600  0.8505  0.8047  0.3354
 3282TIP3    H231338   1.055   1.345  14.653  2.4094  2.9220 -2.6641
 3283TIP3   OH231339   0.706   0.133  11.494  0.4423  0.0743 -0.7379
 3283TIP3    H131340   0.763   0.209  11.486  3.5099 -1.8464  1.7562
 3283TIP3    H231341   0.762   0.059  11.473 -1.8723 -1.7034 -0.8067
 3284TIP3   OH231342   5.093   7.043  14.168 -0.3409 -0.3093 -0.3292
 3284TIP3    H131343   5.065   6.956  14.138 -0.0810 -0.4971 -0.0312
 3284TIP3    H231344   5.163   7.068  14.108 -2.1338  0.8120 -2.0121
 3285TIP3   OH231345   1.269   2.679  10.035 -0.4674  0.3113  0.4096
 3285TIP3    H131346   1.348   2.668  10.089  0.8377  0.7966 -1.3362
 3285TIP3    H231347   1.206   2.723  10.092  0.8205  0.6710  1.5822
 3286TIP3   OH231348   0.721   0.103  14.795  0.1317 -0.5576  0.1112
 3286TIP3    H131349   0.651   0.116  14.731 -0.1669 -0.4041  0.4697
 3286TIP3    H231350   0.802   0.119  14.746 -0.0969 -0.4492 -0.2301
 3287TIP3   OH231351   0.549   1.320  13.571  0.1290  0.3066  0.4234
 3287TIP3    H131352   0.498   1.274  13.637  0.8462 -1.3277 -0.1358
 3287TIP3    H231353   0.522   1.281  13.488  0.2797  1.3525 -0.1326
 3288TIP3   OH231354   6.797   2.731  13.649 -0.1911 -0.2378  0.1532
 3288TIP3    H131355   6.813   2.811  13.599 -0.6128  0.1439  0.6232
 3288TIP3    H231356   6.705   2.710  13.633  0.1612 -1.1631 -0.7278
 3289TIP3   OH231357   3.864   7.120  10.180 -0.1823  0.1348  0.6807
 3289TIP3    H131358   3.841   7.213  10.181  0.1352  0.2396 -0.8309
 3289TIP3    H231359   3.864   7.096  10.087 -1.0828 -1.5895  1.1072
 3290TIP3   OH231360   1.725   0.484  13.811  0.4030 -0.8562  0.0885
 3290TIP3    H131361   1.654   0.519  13.757  0.1580 -1.5473 -0.0380
 3290TIP3    H231362   1.763   0.562  13.854  1.2974 -0.1750 -1.8784
 3291TIP3   OH231363   1.367   0.762  14.376 -0.5629 -0.0763  0.2908
 3291TIP3    H131364   1.395   0.697  14.440 -2.1346 -1.1409 -0.0628
 3291TIP3    H231365   1.278   0.734  14.352  0.6356 -0.7165 -3.6647
 3292TIP3   OH231366   2.870   1.473  10.990  0.2003  0.0623 -0.0790
 3292TIP3    H131367   2.933   1.429  10.934 -0.4816 -1.8736  0.5984
 3292TIP3    H231368   2.854   1.557  10.948  0.3035 -1.0060 -2.3473
 3293TIP3   OH231369   1.448   1.621  12.771  0.2652  0.3559 -0.4231
 3293TIP3    H131370   1.435   1.538  12.726  0.3148  0.2965 -0.3262
 3293TIP3    H231371   1.462   1.684  12.700  0.1772  0.2920 -0.4980
 3294TIP3   OH231372   5.864   0.457  14.514 -0.2035  0.5225 -0.3939
 3294TIP3    H131373   5.958   0.442  14.527  0.0743  1.4223 -1.3594
 3294TIP3    H231374   5.827   0.369  14.505  0.4769  0.1465  0.4182
 3295TIP3   OH231375   2.756   0.079  11.979 -0.2113 -0.4402  0.3481
 3295TIP3    H131376   2.805   0.011  12.024 -2.4090 -1.3106  1.5158
 3295TIP3    H231377   2.667   0.044  11.971 -0.6731  1.0830 -1.6852
 3296TIP3   OH231378   1.468   0.875  11.526  0.1696  0.2920  0.6428
 3296TIP3    H131379   1.374   0.868  11.543 -0.0313  2.5319  0.5457
 3296TIP3    H231380   1.496   0.785  11.508 -2.5080 -0.0552 -2.1651
 3297TIP3   OH231381   6.573   1.277  13.441  0.3714 -0.5981  0.4121
 3297TIP3    H131382   6.644   1.255  13.382 -0.1445 -1.7826  0.2159
 3297TIP3    H231383   6.551   1.194  13.485 -0.0688  0.0055  1.3603
 3298TIP3   OH231384   0.174   2.182  13.528 -0.7971  0.2397  0.2428
 3298TIP3    H131385   0.203   2.115  13.467 -2.0237 -0.9747  0.9778
 3298TIP3    H231386   0.211   2.263  13.493  1.4774 -0.9223 -0.1561
 3299TIP3   OH231387   2.322   6.839  10.199  0.3263  0.1002  0.3040
 3299TIP3    H131388   2.279   6.852  10.115  0.2466  1.5828  0.5523
 3299TIP3    H231389   2.415   6.849  10.180  0.3694 -0.3850  0.2512
 3300TIP3   OH231390   1.662   3.385  14.680 -0.0917 -0.2077  0.2053
 3300TIP3    H131391   1.583   3.383  14.734  0.1454  0.2372  0.5784
 3300TIP3    H231392   1.646   3.322  14.610 -1.7053  1.5005 -1.0234
 3301TIP3   OH231393   2.585   0.423  13.880  0.7742  0.2334  0.0507
 3301TIP3    H131394   2.625   0.357  13.937 -0.8752  0.1824  1.2044
 3301TIP3    H231395   2.500   0.442  13.921 -1.0085 -0.6539 -3.0342
 3302TIP3   OH231396   6.426   6.498  13.386  0.4449  0.4334  0.2408
 3302TIP3    H131397   6.492   6.455  13.441 -0.6638  0.3340  1.5569
 3302TIP3    H231398   6.417   6.440  13.310  0.1851 -0.8140  1.1888
 3303TIP3   OH231399   2.906   0.442  12.040 -0.3079 -0.3474  0.5663
 3303TIP3    H131400   2.961   0.484  11.974 -1.8656  2.1753  0.8368
 3303TIP3    H231401   2.840   0.394  11.991 -0.7806  0.5950  0.2830
 3304TIP3   OH231402   7.192   1.282  11.413  0.0399  0.5573  0.1941
 3304TIP3    H131403   7.259   1.220  11.387 -2.9899 -2.1021 -1.6491
 3304TIP3    H231404   7.144   1.238  11.483 -0.5423  1.8900  0.6547
 3305TIP3   OH231405   2.204   0.376  10.412  0.6875  0.4445  0.4059
 3305TIP3    H131406   2.247   0.337  10.488 -1.0483  0.4368  1.4002
 3305TIP3    H231407   2.162   0.301  10.368 -0.7773  0.8555  1.0841
 3306TIP3   OH231408   0.847   1.054  13.191 -0.1463 -0.5246  0.1564
 3306TIP3    H131409   0.912   1.007  13.243  0.4177  1.2970  1.1088
 3306TIP3    H231410   0.881   1.143  13.183 -0.9696 -0.3778 -2.0524
 3307TIP3   OH231411   5.521   0.671  11.224 -0.1916 -0.2068  0.1523
 3307TIP3    H131412   5.576   0.742  11.191  0.1880 -0.8820 -0.6679
 3307TIP3    H231413   5.454   0.715  11.277 -0.0678  0.7759 -0.4996
 3308TIP3   OH231414   1.154   1.192  13.623 -0.3483 -0.4796  0.4580
 3308TIP3    H131415   1.197   1.261  13.573  1.3093  0.4329  3.0149
 3308TIP3    H231416   1.079   1.167  13.570  0.7336  1.1741 -1.9396
 3309TIP3   OH231417   2.798   0.792  12.964  0.3893 -0.2270  0.0634
 3309TIP3    H131418   2.719   0.773  12.914 -0.0388  0.0878  0.6106
 3309TIP3    H231419   2.870   0.758  12.911 -0.2784 -2.4539  0.5328
 3310TIP3   OH231420   0.839   0.212  15.121  0.6913 -0.5281 -0.4421
 3310TIP3    H131421   0.863   0.229  15.212  0.7951 -0.9230 -0.3984
 3310TIP3    H231422   0.748   0.184  15.125 -0.5219  3.0346 -0.7945
 3311TIP3   OH231423   2.044   6.543  12.599  0.3760 -0.3216 -0.6430
 3311TIP3    H131424   1.975   6.556  12.533  1.1097  0.8448 -1.1975
 3311TIP3    H231425   2.065   6.631  12.629  0.4595 -0.8063  0.7394
 3312TIP3   OH231426   0.548   0.772  14.738  0.3200 -0.5469  0.6650
 3312TIP3    H131427   0.599   0.836  14.689 -0.2945 -0.9958 -0.6096
 3312TIP3    H231428   0.476   0.749  14.679 -0.7469 -0.7190  2.0041
 3313TIP3   OH231429   2.707   0.678  10.935 -0.5233 -0.4599  0.1181
 3313TIP3    H131430   2.765   0.654  11.007  1.2663 -0.9300 -1.4405
 3313TIP3    H231431   2.763   0.676  10.857 -3.0308 -2.7430 -1.7167
 3314TIP3   OH231432   1.209   1.858  13.450 -0.0333  0.5893  0.1798
 3314TIP3    H131433   1.195   1.952  13.458  0.8137  0.5884  1.8977
 3314TIP3    H231434   1.255   1.834  13.530  1.8438 -0.8921 -1.2897
 3315TIP3   OH231435   1.628   7.082  12.084 -0.3498  0.1198  0.1139
 3315TIP3    H131436   1.652   7.168  12.119  0.1813 -0.1925  0.5354
 3315TIP3    H231437   1.708   7.051  12.041  0.1809 -1.1524  1.9742
 3316TIP3   OH231438   2.465   6.726  14.895 -0.1581  0.0146 -0.0051
 3316TIP3    H131439   2.434   6.646  14.853 -1.4893  0.3680  0.2848
 3316TIP3    H231440   2.462   6.706  14.989  0.6047  0.0179  0.0226
 3317TIP3   OH231441   1.770   0.684  11.788 -0.1849  0.8551 -0.1814
 3317TIP3    H131442   1.813   0.646  11.865  1.0224  1.2847 -0.6313
 3317TIP3    H231443   1.832   0.751  11.757  0.4662 -0.9530 -2.9412
 3318TIP3   OH231444   1.403   1.629  11.992  0.0170 -0.1111 -0.4813
 3318TIP3    H131445   1.399   1.669  12.079 -0.5736 -1.7777  0.2871
 3318TIP3    H231446   1.383   1.700  11.932  0.3322  1.0412  0.7588
 3319TIP3   OH231447   2.142   0.425  11.396  0.1927 -0.0367  0.2084
 3319TIP3    H131448   2.209   0.427  11.465  0.6355 -0.4494 -0.2003
 3319TIP3    H231449   2.110   0.515  11.390 -0.3371 -0.1274  1.4203
 3320TIP3   OH231450   1.867   0.874   0.174 -0.5501 -0.2289 -0.1919
 3320TIP3    H131451   1.804   0.838   0.112 -0.9316  1.3556 -0.7471
 3320TIP3    H231452   1.884   0.963   0.142  1.5768 -0.4423  0.2404
 3321TIP3   OH231453   2.587   0.010  14.528 -0.3143  0.7182 -0.2555
 3321TIP3    H131454   2.596  -0.055  14.458  1.0859  1.1086 -0.4487
 3321TIP3    H231455   2.497   0.041  14.521 -0.4557  0.0825 -1.2940
 3322TIP3   OH231456   6.609   0.638  12.597  0.5078 -0.1135  0.5182
 3322TIP3    H131457   6.665   0.674  12.665 -0.7597  0.8323  1.0909
 3322TIP3    H231458   6.654   0.658  12.515  0.6674  1.2291  0.9337
 3323TIP3   OH231459   6.347   2.587  11.217  0.1331  0.1811  0.0949
 3323TIP3    H131460   6.323   2.614  11.128 -0.9165 -0.8044  0.0684
 3323TIP3    H231461   6.442   2.594  11.219  0.1827  0.0604 -1.1698
 3324TIP3   OH231462   5.453   6.826  14.321  0.3278 -0.8378 -0.3908
 3324TIP3    H131463   5.548   6.825  14.327  0.2983 -1.4850  0.1040
 3324TIP3    H231464   5.427   6.737  14.347 -0.4032 -0.6696 -0.5418
 3325TIP3   OH231465   2.410   0.603  10.543  0.2430  0.2307 -0.0172
 3325TIP3    H131466   2.363   0.555  10.612  0.3697  1.8773  1.2383
 3325TIP3    H231467   2.475   0.540  10.511 -0.1360 -0.7233  1.0303
 3326TIP3   OH231468   0.671   1.288  13.120  0.2438 -0.5459  0.0709
 3326TIP3    H131469   0.751   1.235  13.119  0.4576 -0.2605  0.9251
 3326TIP3    H231470   0.698   1.371  13.159 -0.0888  0.1978 -1.2849
 3327TIP3   OH231471   1.973   0.585  12.261  0.2614  0.1406 -0.8012
 3327TIP3    H131472   1.885   0.551  12.278  0.3204 -0.4904 -1.6845
 3327TIP3    H231473   2.018   0.513  12.216  1.4964  0.1539  0.3839
 3328TIP3   OH231474   1.371   6.822  13.892 -0.0374  0.1073  0.2669
 3328TIP3    H131475   1.315   6.892  13.925 -1.0106 -0.5734  0.1026
 3328TIP3    H231476   1.348   6.746  13.945 -1.7926 -1.0751 -2.0649
 3329TIP3   OH231477   6.129   1.567  12.897  0.4318  0.4072  0.2568
 3329TIP3    H131478   6.094   1.491  12.850 -1.3985  1.1838  0.3017
 3329TIP3    H231479   6.112   1.547  12.989  0.5188  0.5792  0.3101
 3330TIP3   OH231480   2.427   6.975  13.950  0.1940 -0.3607  0.1482
 3330TIP3    H131481   2.452   6.884  13.931 -0.2359 -0.5513  0.4866
 3330TIP3    H231482   2.339   6.968  13.986  0.6537  0.0733  1.3676
 3331TIP3   OH231483   3.612   1.635  13.577  0.4972  0.3293  0.4818
 3331TIP3    H131484   3.591   1.542  13.568  0.9663  0.4208 -1.6285
 3331TIP3    H231485   3.542   1.681  13.531  2.1832  0.8613 -1.6030
 3332TIP3   OH231486   1.748   1.510  14.634 -0.6831 -0.3169 -0.4543
 3332TIP3    H131487   1.718   1.421  14.615  0.1617 -0.6910 -0.0908
 3332TIP3    H231488   1.824   1.497  14.691  0.2039  0.5786 -1.4118
 3333TIP3   OH231489   0.261   2.439  12.164 -1.1189  0.1103  0.1667
 3333TIP3    H131490   0.352   2.428  12.138 -1.0035  1.5763 -0.1079
 3333TIP3    H231491   0.222   2.352  12.155  0.7018 -0.9572  2.0992
 3334TIP3   OH231492   1.073   0.787  14.043 -0.3457  0.0110  0.4895
 3334TIP3    H131493   0.998   0.831  14.005  1.3091  2.3363 -0.2026
 3334TIP3    H231494   1.100   0.844  14.115  1.7392  0.0868 -0.3210
 3335TIP3   OH231495   0.823   1.455  13.450  0.0374 -0.2382 -0.1705
 3335TIP3    H131496   0.821   1.519  13.378 -0.5582 -0.6072 -0.4941
 3335TIP3    H231497   0.732   1.451  13.480  0.2177 -0.3617  0.3603
 3336TIP3   OH231498   3.507   2.024  12.649 -0.3242  0.5585 -0.4038
 3336TIP3    H131499   3.570   1.952  12.642 -1.3426 -0.4100  0.2923
 3336TIP3    H231500   3.451   2.014  12.572 -1.5987 -0.5190  0.6273
 3337TIP3   OH231501   2.451   6.685  14.227  0.1085  0.8102  0.0945
 3337TIP3    H131502   2.448   6.642  14.312  1.2778 -1.2310 -0.8393
 3337TIP3    H231503   2.369   6.734  14.222 -1.3781 -1.4553  1.1904
 3338TIP3   OH231504   3.570   2.383  11.106 -0.0696  0.2574 -0.8943
 3338TIP3    H131505   3.495   2.383  11.046 -0.0198 -3.8573 -1.0922
 3338TIP3    H231506   3.600   2.474  11.107 -3.7004  1.5718 -2.5043
 3339TIP3   OH231507   0.885   2.054  12.282 -0.1109  0.1543  0.1422
 3339TIP3    H131508   0.909   2.078  12.371  1.8699  1.4915 -0.7076
 3339TIP3    H231509   0.916   1.964  12.272  1.5181  0.7079  0.1507
 3340TIP3   OH231510   0.657   0.967  13.590  0.7360  0.0283 -0.2173
 3340TIP3    H131511   0.699   0.884  13.567  1.5692  1.0368 -2.4099
 3340TIP3    H231512   0.623   1.000  13.507 -0.6770  1.2955  0.8488
 3341TIP3   OH231513   0.289   0.555  10.662 -1.0259 -0.2632 -0.7105
 3341TIP3    H131514   0.377   0.527  10.690 -0.0307  2.8310 -0.4575
 3341TIP3    H231515   0.290   0.546  10.567 -0.0092  0.7436 -0.8153
 3342TIP3   OH231516   1.328   0.690  13.922 -0.0754  0.8215 -0.0368
 3342TIP3    H131517   1.390   0.749  13.964  1.0091 -0.9287  0.8960
 3342TIP3    H231518   1.244   0.712  13.960  0.4042  1.4035  0.6962
 3343TIP3   OH231519   1.854   2.100  13.694 -0.5642 -0.0254 -0.0340
 3343TIP3    H131520   1.822   2.181  13.654  0.0857 -0.0653 -0.6491
 3343TIP3    H231521   1.810   2.031  13.645 -1.5250 -0.0386  0.8396
 3344TIP3   OH231522   0.430   2.133  15.922  0.2866  0.4747  0.1499
 3344TIP3    H131523   0.518   2.117  15.956 -0.3314 -1.5748  0.8348
 3344TIP3    H231524   0.435   2.108  15.830 -0.1059 -1.7134  0.6955
 3345TIP3   OH231525   1.978   1.787  13.653  0.6351 -0.4900  0.0666
 3345TIP3    H131526   1.938   1.708  13.688  0.6203 -0.3252  0.4300
 3345TIP3    H231527   1.905   1.839  13.618  0.3345  0.4529  1.9934
 3346TIP3   OH231528   1.320   1.348  14.263 -0.4515  0.2215  0.0973
 3346TIP3    H131529   1.393   1.401  14.296  0.2792 -0.8865  0.3251
 3346TIP3    H231530   1.333   1.262  14.304 -1.7667 -0.0542 -0.0351
 3347TIP3   OH231531   1.800   7.004  14.790  0.1009  0.0460  0.6112
 3347TIP3    H131532   1.787   7.012  14.695 -0.5890  0.2350  0.7195
 3347TIP3    H231533   1.778   6.913  14.810  0.9102 -0.1854  0.4931
 3348TIP3   OH231534   1.356   5.306  15.199 -0.2062 -0.2736  0.6939
 3348TIP3    H131535   1.291   5.254  15.247 -1.0288  1.3137  1.3260
 3348TIP3    H231536   1.423   5.327  15.265 -0.1230 -0.1089  0.5560
 3349TIP3   OH231537   5.869   6.671   0.160  0.2586  0.2840  1.1331
 3349TIP3    H131538   5.862   6.596   0.219 -1.4293  0.4751  1.1914
 3349TIP3    H231539   5.843   6.637   0.074 -3.0231  1.3560  1.6358
 3350TIP3   OH231540   6.689   6.497  15.239 -0.2440  0.3461  0.3664
 3350TIP3    H131541   6.689   6.559  15.167  0.6830  0.2033  0.2300
 3350TIP3    H231542   6.680   6.551  15.317 -2.4730  0.4064  0.0884
 3351TIP3   OH231543   6.873   6.618  12.546  0.3873  0.1102 -0.1910
 3351TIP3    H131544   6.932   6.693  12.558 -0.2103  0.5672 -0.0486
 3351TIP3    H231545   6.885   6.566  12.625  1.8396 -0.6850 -0.9142
 3352TIP3   OH231546   7.296   7.121  12.988 -0.2336 -0.5063 -0.0517
 3352TIP3    H131547   7.240   7.114  12.910  1.0397 -0.0741 -1.0223
 3352TIP3    H231548   7.235   7.138  13.059 -1.2681  1.1163 -1.2690
 3353TIP3   OH231549   1.717   1.925  13.532  0.1134  0.2836  0.6541
 3353TIP3    H131550   1.757   1.865  13.468  0.5635  0.1301  1.0776
 3353TIP3    H231551   1.630   1.888  13.549  1.1203 -1.3605  2.4083
 3354TIP3   OH231552   0.522   0.933  10.909 -0.6664 -0.0169  0.2002
 3354TIP3    H131553   0.456   0.972  10.851  0.4155  0.6028 -0.6421
 3354TIP3    H231554   0.556   1.007  10.959  3.3056  0.7079 -3.2858
 3355TIP3   OH231555   1.170   2.114  13.472 -0.7015  0.5307 -0.1592
 3355TIP3    H131556   1.232   2.154  13.411 -0.8705  0.3693 -0.4317
 3355TIP3    H231557   1.086   2.155  13.452 -0.3223  2.2370  1.5472
 3356TIP3   OH231558   4.050   4.683  13.765  0.7831  0.0136 -0.1890
 3356TIP3    H131559   4.009   4.767  13.744  2.1848  1.5377  2.9552
 3356TIP3    H231560   4.135   4.686  13.722  0.9069  0.2652  0.0767
 3357TIP3   OH231561   2.386   3.456  14.692 -0.8214  0.6121 -0.0770
 3357TIP3    H131562   2.468   3.456  14.740 -1.2017  3.7257  0.7051
 3357TIP3    H231563   2.409   3.428  14.604  0.8280  0.1057  0.5035
 3358TIP3   OH231564   2.347   2.488  14.517 -0.1315 -0.8528  0.2629
 3358TIP3    H131565   2.290   2.562  14.497 -0.3683 -1.0049  0.3710
 3358TIP3    H231566   2.366   2.448  14.432 -0.2499 -0.8472  0.2340
 3359TIP3   OH231567   2.031   1.394  13.835  0.3314 -0.2761 -0.0625
 3359TIP3    H131568   2.010   1.440  13.916 -1.2387  1.5822 -1.4769
 3359TIP3    H231569   2.024   1.301  13.858 -1.5888  0.2328  1.5747
 3360TIP3   OH231570   2.413   6.995  12.981  0.6917  1.3186  0.3778
 3360TIP3    H131571   2.340   6.988  13.042  0.3541  0.7813 -0.0893
 3360TIP3    H231572   2.454   6.909  12.981 -0.8233  0.5413 -2.0391
 3361TIP3   OH231573   3.467   2.562  14.321 -0.0948 -0.2764  0.3520
 3361TIP3    H131574   3.392   2.604  14.279  0.4074  1.2888  0.9908
 3361TIP3    H231575   3.514   2.633  14.364 -0.1322 -1.7026  2.9011
 3362TIP3   OH231576   1.332   4.118  11.551 -0.3675 -0.2401  0.2902
 3362TIP3    H131577   1.352   4.102  11.459  1.2195  0.2976  0.5263
 3362TIP3    H231578   1.268   4.051  11.574 -0.7658 -0.3906 -1.1904
 3363TIP3   OH231579   2.728   0.440  13.597 -0.0168  0.1723  0.5620
 3363TIP3    H131580   2.757   0.489  13.520  1.7898  0.7653  1.5889
 3363TIP3    H231581   2.655   0.490  13.632  0.6820  1.1859  0.5850
 3364TIP3   OH231582   1.835   0.682  13.285 -0.0862  0.0986  0.2894
 3364TIP3    H131583   1.907   0.667  13.223 -0.7974 -1.0202 -0.2781
 3364TIP3    H231584   1.777   0.607  13.273 -1.4406  1.0814  0.6423
 3365TIP3   OH231585   1.598   2.090  13.058 -0.3152 -0.3001  0.5955
 3365TIP3    H131586   1.527   2.035  13.094 -0.9444  0.4217  0.4719
 3365TIP3    H231587   1.658   2.102  13.132 -0.8249 -0.1032  0.9873
 3366TIP3   OH231588   0.284   2.054  12.774  0.4695 -0.1234 -0.5110
 3366TIP3    H131589   0.206   2.033  12.723  0.9853 -3.0233 -0.2023
 3366TIP3    H231590   0.279   1.997  12.851  2.9761 -0.5055 -0.5829
 3367TIP3   OH231591   0.962   6.717  13.934  0.1089  0.0051  0.6761
 3367TIP3    H131592   0.881   6.754  13.897 -0.2299 -0.4859  0.9295
 3367TIP3    H231593   0.971   6.632  13.892 -0.6634 -0.8742  2.2390
 3368TIP3   OH231594   3.483   1.178  15.282 -0.2928  0.3749 -0.4204
 3368TIP3    H131595   3.474   1.090  15.245  0.9595  0.5684 -1.2305
 3368TIP3    H231596   3.526   1.165  15.366 -1.4730  0.0843  0.1366
 3369TIP3   OH231597   3.169   0.845  10.539  0.1815  0.4489  0.0735
 3369TIP3    H131598   3.189   0.938  10.534  1.4450  0.1488 -0.7058
 3369TIP3    H231599   3.252   0.801  10.517 -0.7333 -0.8462 -0.8415
 3370TIP3   OH231600   3.553   0.934  13.786  0.0241 -0.7622 -0.2690
 3370TIP3    H131601   3.469   0.898  13.815 -0.2930 -0.1721 -0.4471
 3370TIP3    H231602   3.577   0.996  13.855 -1.3364  1.5763 -1.8029
 3371TIP3   OH231603   0.863   7.219  14.894 -0.3838  0.6828  0.1899
 3371TIP3    H131604   0.812   7.297  14.872 -0.5261  0.1935 -1.2339
 3371TIP3    H231605   0.883   7.178  14.810  2.5021  0.9395  0.7173
 3372TIP3   OH231606   2.278   0.605  13.433 -0.5354 -0.1959 -0.8987
 3372TIP3    H131607   2.261   0.543  13.362  0.0184 -1.1725 -0.1975
 3372TIP3    H231608   2.203   0.595  13.491 -0.1711 -0.6478 -0.4940
 3373TIP3   OH231609   5.984   6.720  13.436 -0.0997 -0.6522  0.0330
 3373TIP3    H131610   6.021   6.778  13.369 -1.4825  0.3401  0.1048
 3373TIP3    H231611   6.031   6.744  13.516 -1.8162  1.6370  0.4345
 3374TIP3   OH231612   2.458   0.584   0.077 -0.0609  0.6424  0.1475
 3374TIP3    H131613   2.433   0.631   0.156  0.0789  0.1334  0.4974
 3374TIP3    H231614   2.506   0.648   0.024 -2.4347  1.7772 -0.7205
 3375TIP3   OH231615   2.948   7.131  13.177 -0.3681  0.6184  0.2513
 3375TIP3    H131616   2.870   7.108  13.127  1.7021 -2.7089 -1.6813
 3375TIP3    H231617   3.014   7.153  13.111  1.3102  0.0038  1.6680
 3376TIP3   OH231618   0.777   6.482  11.791 -0.1563 -0.3437  0.6235
 3376TIP3    H131619   0.845   6.433  11.836 -0.0687  0.4053  1.3182
 3376TIP3    H231620   0.770   6.564  11.840 -0.2037  0.3971 -0.5870
 3377TIP3   OH231621   0.275   0.288  14.730 -0.1367  0.7169 -0.0600
 3377TIP3    H131622   0.251   0.376  14.703 -0.5017  0.5580 -0.2499
 3377TIP3    H231623   0.241   0.280  14.819 -2.5526 -0.1970 -1.0198
 3378TIP3   OH231624   1.687   0.608  15.231 -0.0329  0.0053  0.1171
 3378TIP3    H131625   1.626   0.680  15.220  0.7580  0.3944 -2.1960
 3378TIP3    H231626   1.763   0.647  15.274 -0.3655  0.1224  0.5976
 3379TIP3   OH231627   0.612   5.912  10.970 -0.1546  0.1576 -0.3324
 3379TIP3    H131628   0.520   5.937  10.972 -1.1100 -3.1429  2.2564
 3379TIP3    H231629   0.614   5.834  10.914  0.9165 -0.2628  0.2743
 3380TIP3   OH231630   0.102   6.368  10.985  0.0604 -0.9101  0.4690
 3380TIP3    H131631   0.181   6.421  10.976  1.1153 -2.4096  0.7077
 3380TIP3    H231632   0.071   6.385  11.074 -0.1685  0.0420  0.2126
 3381TIP3   OH231633   1.795   3.417  12.417 -0.9879  0.1301 -0.7707
 3381TIP3    H131634   1.811   3.445  12.327 -2.2190 -1.7320 -1.6101
 3381TIP3    H231635   1.707   3.450  12.436 -0.8948  0.1610 -0.3978
 3382TIP3   OH231636   6.732   6.492  15.831 -0.7685  0.2695 -0.2176
 3382TIP3    H131637   6.784   6.423  15.872 -0.8808 -0.0220 -0.5751
 3382TIP3    H231638   6.694   6.452  15.754 -0.5653  0.8208 -0.6126
 3383TIP3   OH231639   6.129   7.270  14.018 -0.7597 -0.5961  0.2729
 3383TIP3    H131640   6.122   7.201  14.083  2.1871 -1.1728  0.0759
 3383TIP3    H231641   6.108   7.228  13.935 -0.0534 -0.9923  0.2926
 3384TIP3   OH231642   2.752   3.169  13.501  0.5250  0.0284 -0.0953
 3384TIP3    H131643   2.796   3.099  13.549  0.3353  1.0381  1.5840
 3384TIP3    H231644   2.685   3.124  13.451  0.4895 -1.0170  0.8569
 3385TIP3   OH231645   2.636   0.499  15.805  0.1502 -0.1277 -0.0478
 3385TIP3    H131646   2.717   0.458  15.835  0.4007 -0.8408 -1.6511
 3385TIP3    H231647   2.654   0.593  15.808  0.1730 -0.1669  1.9485
 3386TIP3   OH231648   0.465   3.412  12.793  0.2755  0.1612 -0.1219
 3386TIP3    H131649   0.406   3.435  12.864 -0.1240 -0.1098 -0.3641
 3386TIP3    H231650   0.553   3.423  12.830  0.0756 -1.8187  1.0137
 3387TIP3   OH231651   2.326   0.045  14.065 -0.2918 -0.2873  0.0804
 3387TIP3    H131652   2.300  -0.022  14.129 -1.3792 -0.1429 -0.2077
 3387TIP3    H231653   2.249   0.100  14.054  0.8734  1.5594  0.9680
 3388TIP3   OH231654   6.582   0.371  14.853 -0.0037  0.6751  0.2694
 3388TIP3    H131655   6.541   0.440  14.801  0.6141  0.7115 -0.1640
 3388TIP3    H231656   6.510   0.313  14.877  0.4086 -2.3549 -5.1289
 3389TIP3   OH231657   7.039   1.032  14.350 -0.4237  0.0131 -0.2105
 3389TIP3    H131658   6.990   1.006  14.427 -0.8109 -0.3726 -0.5799
 3389TIP3    H231659   7.004   0.976  14.280  0.0875  0.1902 -0.6084
 3390TIP3   OH231660   1.339   2.425  13.979  0.1537  0.4279  0.0821
 3390TIP3    H131661   1.380   2.448  14.063 -1.5077  1.1381  0.7229
 3390TIP3    H231662   1.408   2.383  13.929  1.4473  0.9094  1.4401
 3391TIP3   OH231663   1.484   2.477  14.212 -0.4894 -0.3114  0.1918
 3391TIP3    H131664   1.540   2.554  14.219 -0.5997 -0.1602 -0.4647
 3391TIP3    H231665   1.540   2.409  14.175 -0.8949  0.0326 -1.0984
 3392TIP3   OH231666   2.960   4.217  14.496 -0.0589 -0.3309 -0.3690
 3392TIP3    H131667   2.880   4.266  14.517  0.2355 -0.6337  1.4912
 3392TIP3    H231668   3.028   4.284  14.489 -0.5381 -0.0234 -2.4123
 3393TIP3   OH231669   2.226   1.883  13.752 -0.1808  0.8013 -0.1608
 3393TIP3    H131670   2.234   1.967  13.797 -1.9954  1.6776 -1.4379
 3393TIP3    H231671   2.133   1.873  13.734 -0.0274 -1.5891  0.1301
 3394TIP3   OH231672   0.411   0.848  14.164  0.0684  0.8487 -0.1026
 3394TIP3    H131673   0.383   0.824  14.076 -1.1555  0.9631  0.2459
 3394TIP3    H231674   0.493   0.801  14.178 -0.5256 -0.3811 -0.7255
 3395TIP3   OH231675   1.791   1.502  12.980 -0.3185 -0.1437  0.2530
 3395TIP3    H131676   1.800   1.413  12.946  1.8023  0.4892 -0.9801
 3395TIP3    H231677   1.699   1.509  13.006 -0.8462 -2.2397 -0.9299
 3396TIP3   OH231678   1.218   0.246  14.398 -0.0454  0.0885  0.1204
 3396TIP3    H131679   1.267   0.202  14.467 -0.3225 -0.0682  0.2161
 3396TIP3    H231680   1.274   0.238  14.320  0.2696  0.2772  0.3266
 3397TIP3   OH231681   2.117   0.451  10.979 -0.3681  0.9189 -0.1046
 3397TIP3    H131682   2.201   0.407  10.969 -0.2880  0.8335  0.8846
 3397TIP3    H231683   2.060   0.386  11.018 -0.2090  1.7196  1.5013
 3398TIP3   OH231684   2.762   6.369  12.152 -0.4466 -0.0584 -0.5397
 3398TIP3    H131685   2.798   6.306  12.214  1.3682  0.8879 -0.6108
 3398TIP3    H231686   2.752   6.450  12.202 -2.1387 -0.1924 -0.6258
 3399TIP3   OH231687   1.835   1.789  14.020 -0.4545 -0.2018 -0.5211
 3399TIP3    H131688   1.765   1.819  13.962 -3.2654 -1.3014  2.1549
 3399TIP3    H231689   1.831   1.848  14.095  1.7776 -0.0456 -0.4945
 3400TIP3   OH231690   1.125   0.922  12.684  0.0638  0.6580  0.4752
 3400TIP3    H131691   1.146   0.955  12.596  1.8673 -1.9573 -0.1383
 3400TIP3    H231692   1.208   0.888  12.717 -1.1658 -0.8889  2.0839
 3401TIP3   OH231693   1.535   1.342  12.926 -0.6377 -0.4189 -0.4346
 3401TIP3    H131694   1.549   1.355  12.833 -0.7358  1.8558 -0.1509
 3401TIP3    H231695   1.470   1.272  12.930 -1.3441  0.1120 -2.1021
 3402TIP3   OH231696   4.236   7.251  13.543 -0.6514  0.1735 -0.2738
 3402TIP3    H131697   4.201   7.317  13.602  0.4489 -0.9402  1.6897
 3402TIP3    H231698   4.316   7.291  13.507  0.0403 -0.0984  0.9480
 3403TIP3   OH231699   1.344   1.128  12.963  0.0177 -0.5272 -0.4019
 3403TIP3    H131700   1.285   1.127  13.038 -1.8067 -0.3149 -1.8029
 3403TIP3    H231701   1.410   1.061  12.984 -0.7308 -0.8082  1.1606
 3404TIP3   OH231702   0.171   6.004  11.950 -0.3209 -0.1156  0.3385
 3404TIP3    H131703   0.157   5.910  11.944  2.1213 -0.4644 -0.4452
 3404TIP3    H231704   0.134   6.039  11.869  0.6032 -0.6626 -0.3347
 3405TIP3   OH231705   0.921   0.929  10.385  0.1576 -0.8808 -0.0077
 3405TIP3    H131706   0.969   0.998  10.339 -1.2788 -0.7208 -1.2929
 3405TIP3    H231707   0.872   0.975  10.453 -0.5488 -0.6727 -0.6574
 3406TIP3   OH231708   1.055   5.980  10.706  0.4646  0.4837 -0.4610
 3406TIP3    H131709   1.063   6.069  10.671 -0.9329  2.4010  3.6918
 3406TIP3    H231710   1.119   5.977  10.777 -0.8868 -1.0976  0.7219
 3407TIP3   OH231711   3.364   1.931  10.848  0.2630  0.2940  0.1208
 3407TIP3    H131712   3.317   1.979  10.917  0.3854 -0.0418  0.4380
 3407TIP3    H231713   3.295   1.885  10.800  0.3300 -0.8095  1.0608
 3408TIP3   OH231714   4.002   0.215  12.655  0.5951  0.2560  0.2272
 3408TIP3    H131715   3.979   0.241  12.566  1.7271 -1.3929 -0.5794
 3408TIP3    H231716   3.920   0.184  12.693  0.6131 -1.5105 -1.1395
 3409TIP3   OH231717   6.604   5.936  14.785  0.2974  0.8258 -0.8893
 3409TIP3    H131718   6.618   5.842  14.791  1.8589  1.0718 -0.2573
 3409TIP3    H231719   6.602   5.955  14.692 -0.5281  0.0960 -1.0197
 3410TIP3   OH231720   1.588   3.167  11.582  0.4844 -0.0784 -0.3603
 3410TIP3    H131721   1.505   3.175  11.630  0.1427 -0.0323 -0.9508
 3410TIP3    H231722   1.655   3.186  11.647  0.0555 -0.6368  0.2532
 3411TIP3   OH231723   1.407   0.157  14.811  0.4231  0.3167  0.1130
 3411TIP3    H131724   1.438   0.134  14.724 -1.8570  0.5880 -0.8133
 3411TIP3    H231725   1.430   0.082  14.866 -0.2949 -0.9349 -1.2660
 3412TIP3   OH231726   1.523   5.652  13.301  0.1166 -0.6200  0.0658
 3412TIP3    H131727   1.610   5.665  13.339 -0.8982 -0.2805  2.3419
 3412TIP3    H231728   1.518   5.559  13.281  0.1862 -1.0765  2.0714
 3413TIP3   OH231729   0.654   1.958  13.861  0.3057  0.1900 -0.3157
 3413TIP3    H131730   0.611   2.028  13.812  1.3304  0.4816 -0.7998
 3413TIP3    H231731   0.654   1.989  13.952  2.2621  1.5968 -0.7682
 3414TIP3   OH231732   2.954   4.007  13.438  0.0712 -0.0677  0.2840
 3414TIP3    H131733   2.875   3.985  13.488 -0.0727 -0.1127  0.0365
 3414TIP3    H231734   3.024   4.002  13.502  0.0924 -1.6687  0.1480
 3415TIP3   OH231735   3.076   6.037  14.136 -0.4908 -0.1113 -0.2238
 3415TIP3    H131736   3.041   5.959  14.180  0.1553  0.9903  2.3676
 3415TIP3    H231737   3.084   6.101  14.206  4.7731  0.3442 -1.0486
 3416TIP3   OH231738   4.459   7.007  13.297 -0.0227  0.0377 -0.4482
 3416TIP3    H131739   4.460   7.031  13.205  0.4303  0.5385 -0.3106
 3416TIP3    H231740   4.368   7.018  13.324 -0.4659 -1.5905 -1.2255
 3417TIP3   OH231741   2.976   2.997  14.090 -0.2257  1.0805  0.0837
 3417TIP3    H131742   2.927   3.077  14.112 -0.0227  1.6147 -1.3424
 3417TIP3    H231743   3.056   3.029  14.049 -0.5001  0.1359 -1.2180
 3418TIP3   OH231744   1.774   1.956  12.393 -0.4350 -0.1013  0.3160
 3418TIP3    H131745   1.791   2.017  12.464 -1.2446 -1.3109  1.5790
 3418TIP3    H231746   1.854   1.903  12.387  0.7578  1.8400 -1.6060
 3419TIP3   OH231747   3.193   1.586  12.118  0.7472  0.2870 -0.2679
 3419TIP3    H131748   3.219   1.655  12.057  1.3772  0.5162  0.2518
 3419TIP3    H231749   3.105   1.561  12.091  2.0592 -1.6318 -3.1071
 3420TIP3   OH231750   3.404   6.753  12.247  0.8450 -0.0884 -0.3448
 3420TIP3    H131751   3.481   6.788  12.291  0.1092  0.6932  0.3485
 3420TIP3    H231752   3.379   6.822  12.185  0.0768  0.1358  0.2008
 3421TIP3   OH231753   1.018   3.502  14.077 -0.6840 -0.0182  0.1344
 3421TIP3    H131754   0.941   3.454  14.046 -1.2190  0.7877  0.2175
 3421TIP3    H231755   1.009   3.589  14.040  0.1507  0.1023  0.2119
 3422TIP3   OH231756   5.109   1.062  13.944 -0.3878 -0.1431  0.1258
 3422TIP3    H131757   5.173   1.079  14.013  0.4887 -1.2879 -0.3865
 3422TIP3    H231758   5.162   1.039  13.868 -1.3981 -0.6047 -0.4428
 3423TIP3   OH231759   2.831   5.483  14.403 -0.0806  0.4593  0.8017
 3423TIP3    H131760   2.836   5.535  14.483 -2.5239  1.2132  0.5159
 3423TIP3    H231761   2.901   5.419  14.411 -0.5048  0.3086  3.7064
 3424TIP3   OH231762   4.814   6.611  13.040 -0.1240 -0.1564  0.3749
 3424TIP3    H131763   4.738   6.669  13.049 -0.4334 -0.7008  1.3152
 3424TIP3    H231764   4.818   6.593  12.946 -0.9175  0.2018  0.2611
 3425TIP3   OH231765   1.938   0.032  11.543  0.4818 -0.6705  0.5356
 3425TIP3    H131766   1.993  -0.011  11.477 -0.1229 -1.7214  0.7043
 3425TIP3    H231767   1.991   0.104  11.575  0.6607  0.0653 -1.3427
 3426TIP3   OH231768   2.552   6.397  12.729 -0.5000 -0.0510 -0.6145
 3426TIP3    H131769   2.594   6.483  12.736 -1.6033  0.4779 -0.3135
 3426TIP3    H231770   2.590   6.346  12.800  0.4820  0.0438 -1.0636
 3427TIP3   OH231771   4.029   4.620  10.798 -0.3509  0.2700  0.7024
 3427TIP3    H131772   4.070   4.654  10.718  0.8767 -1.0598  0.7550
 3427TIP3    H231773   3.944   4.662  10.801 -0.6325 -0.0927 -1.6284
 3428TIP3   OH231774   2.939   7.179  14.627  0.2937 -0.1539  0.2129
 3428TIP3    H131775   3.006   7.220  14.572  0.3188 -0.9229 -0.3304
 3428TIP3    H231776   2.982   7.102  14.665 -0.0113 -0.1500  0.5711
 3429TIP3   OH231777   4.737   7.223  11.898  0.3883  0.1564 -0.7128
 3429TIP3    H131778   4.696   7.304  11.868  1.8712  1.4057  0.5354
 3429TIP3    H231779   4.814   7.213  11.842  0.2319 -0.3693 -0.8367
 3430TIP3   OH231780   4.338   0.519  15.631 -0.6720  0.5497  0.5678
 3430TIP3    H131781   4.421   0.563  15.648 -1.0715  1.4264  0.2316
 3430TIP3    H231782   4.340   0.443  15.689  0.1891  0.7789  0.8526
 3431TIP3   OH231783   2.156   0.474  10.708 -0.0467 -0.2729 -0.3183
 3431TIP3    H131784   2.188   0.397  10.663 -0.3289 -0.8617  0.4712
 3431TIP3    H231785   2.123   0.441  10.792  1.9466  1.0135  1.0129
 3432TIP3   OH231786   2.971   6.080  11.735  0.2441 -0.0411 -0.3586
 3432TIP3    H131787   2.918   6.140  11.787  2.3745  2.1191 -0.5579
 3432TIP3    H231788   2.912   6.008  11.712 -2.5642  2.3036 -0.6621
 3433TIP3   OH231789   4.087   1.418  13.593  0.3082  0.7199 -0.2656
 3433TIP3    H131790   4.018   1.362  13.558  0.5401  0.6107 -0.5502
 3433TIP3    H231791   4.048   1.460  13.669  0.6015 -0.9641  0.8352
 3434TIP3   OH231792   2.001   2.849  14.333  0.2115 -0.2437 -0.5809
 3434TIP3    H131793   2.000   2.917  14.400  0.3119  2.2085 -2.9774
 3434TIP3    H231794   1.928   2.791  14.355 -0.2918  1.0227  1.1283
 3435TIP3   OH231795   3.217   2.165  13.499 -0.5563 -0.2239 -0.3879
 3435TIP3    H131796   3.173   2.147  13.582 -2.3197  1.5141 -0.9045
 3435TIP3    H231797   3.294   2.215  13.523 -0.4115 -0.7497  0.2845
 3436TIP3   OH231798   3.854   1.259  12.583 -0.2745  0.4217  0.0604
 3436TIP3    H131799   3.782   1.318  12.605 -0.5078 -0.2873  1.2658
 3436TIP3    H231800   3.926   1.288  12.639 -0.1124  0.1238  0.0048
 3437TIP3   OH231801   2.568   2.709  13.136  0.1160  0.3156 -0.3933
 3437TIP3    H131802   2.542   2.625  13.098 -1.3041  0.2630  0.6763
 3437TIP3    H231803   2.634   2.743  13.076  0.1456 -1.2116 -1.2422
 3438TIP3   OH231804   4.262   6.893  14.338 -0.4556 -0.1076  0.1884
 3438TIP3    H131805   4.247   6.829  14.268 -0.5762  0.5787 -0.4207
 3438TIP3    H231806   4.345   6.935  14.316 -0.7656  0.5014  0.1449
 3439TIP3   OH231807   2.814   6.465  13.143 -0.2996 -0.5071 -0.5053
 3439TIP3    H131808   2.768   6.505  13.069  1.2045 -0.4152 -1.3932
 3439TIP3    H231809   2.870   6.535  13.177  1.0430 -1.3432 -0.9767
 3440TIP3   OH231810   1.369   6.869  11.484 -0.1587 -0.7283  0.1702
 3440TIP3    H131811   1.292   6.839  11.436  0.8702 -1.0644 -1.3259
 3440TIP3    H231812   1.427   6.903  11.415  1.3645 -1.2463  1.1923
 3441TIP3   OH231813   3.172   4.683  13.332  0.3180  0.0132 -0.6470
 3441TIP3    H131814   3.240   4.721  13.276 -0.4911 -0.7088 -2.1311
 3441TIP3    H231815   3.094   4.736  13.313  0.0174 -0.2888 -0.2512
 3442TIP3   OH231816   4.670   0.016  12.585  0.1054  0.2463 -0.4496
 3442TIP3    H131817   4.625  -0.061  12.620  0.5541 -0.2005 -0.8437
 3442TIP3    H231818   4.601   0.066  12.542 -0.2292  0.1828  0.0081
 3443TIP3   OH231819   4.135   0.449  11.474  0.0245 -0.0762 -0.2345
 3443TIP3    H131820   4.102   0.458  11.563 -2.2722  1.3867 -1.1819
 3443TIP3    H231821   4.098   0.367  11.443  0.2465 -0.2348 -0.0805
 3444TIP3   OH231822   5.062   5.342  12.950  1.1560  0.2851 -0.7662
 3444TIP3    H131823   5.130   5.292  12.996  0.8452  0.0492 -0.5606
 3444TIP3    H231824   4.997   5.361  13.017  0.2994 -0.7817 -1.2777
 3445TIP3   OH231825   3.215   7.073  11.681 -0.7161 -0.5362  0.3790
 3445TIP3    H131826   3.145   7.037  11.626 -1.0681 -0.3031  0.6682
 3445TIP3    H231827   3.260   7.136  11.624 -0.1438 -1.3832 -0.1026
 3446TIP3   OH231828   3.323   3.413  12.770  0.6945  0.2149  0.5256
 3446TIP3    H131829   3.373   3.334  12.753  0.3723 -0.0420  0.7601
 3446TIP3    H231830   3.319   3.420  12.865 -0.2010 -0.0853  0.5170
 3447TIP3   OH231831   3.143   7.140  14.893  0.2123 -0.2076 -0.3868
 3447TIP3    H131832   3.237   7.121  14.891  0.3166  0.2864 -0.0753
 3447TIP3    H231833   3.102   7.057  14.869  0.6618 -0.8756  1.1487
 3448TIP3   OH231834   3.125   1.385  11.554  0.3918 -0.5355  0.0335
 3448TIP3    H131835   3.217   1.367  11.574  0.0350 -0.3418  1.9666
 3448TIP3    H231836   3.125   1.411  11.463  2.3058 -0.2272  0.1007
 3449TIP3   OH231837   3.626   2.115  13.253 -0.9377  0.0334  0.7198
 3449TIP3    H131838   3.650   2.066  13.174 -0.1463  0.6083  0.6029
 3449TIP3    H231839   3.535   2.090  13.269 -1.0612 -0.1983 -0.2974
 3450TIP3   OH231840   2.672   2.868  12.924  0.0323 -0.3467  0.3081
 3450TIP3    H131841   2.617   2.947  12.926  0.2791 -0.1869  1.2064
 3450TIP3    H231842   2.757   2.898  12.956  0.2723 -0.8775  0.1700
 3451TIP3   OH231843   5.482   3.818  14.421 -0.5426  0.2017  0.0316
 3451TIP3    H131844   5.460   3.748  14.359  1.3260 -0.2999 -0.1084
 3451TIP3    H231845   5.553   3.865  14.379  1.2413 -0.5857  2.0785
 3452TIP3   OH231846   2.057   2.528  15.176 -0.5552  0.8165 -0.4083
 3452TIP3    H131847   2.088   2.614  15.201  2.7050 -0.4724  0.2673
 3452TIP3    H231848   2.037   2.484  15.259  1.8475 -0.4493 -0.4347
 3453TIP3   OH231849   3.005   7.010  11.528 -0.2778  0.1830 -1.1370
 3453TIP3    H131850   2.959   7.063  11.463  0.7286 -0.0501 -2.0545
 3453TIP3    H231851   3.011   6.923  11.487 -2.0477 -0.7099  0.4074
 3454TIP3   OH231852   1.131   1.432  12.815  0.3624  0.6312 -0.0088
 3454TIP3    H131853   1.184   1.487  12.874 -0.8754  0.8404  0.9165
 3454TIP3    H231854   1.089   1.369  12.872 -0.6541  0.6697 -0.7031
 3455TIP3   OH231855   1.990   1.156  12.089 -0.3196 -0.1451 -1.4796
 3455TIP3    H131856   2.019   1.233  12.137 -1.1776 -0.1855 -0.8802
 3455TIP3    H231857   2.001   1.083  12.150  0.5609 -0.5108 -2.0708
 3456TIP3   OH231858   4.214   6.759  13.995  0.2863 -0.4907  0.4614
 3456TIP3    H131859   4.222   6.714  14.079 -3.4842  0.9638  1.6580
 3456TIP3    H231860   4.261   6.841  14.007  1.2079 -1.0067  0.5195
 3457TIP3   OH231861   3.432   5.684  12.601  0.0708 -0.2786 -0.1525
 3457TIP3    H131862   3.489   5.728  12.664 -0.5671 -0.0931  0.2982
 3457TIP3    H231863   3.344   5.711  12.626 -0.2797 -1.3476 -0.2405
 3458TIP3   OH231864   4.602   0.490  13.666 -0.0568 -0.0600 -0.1843
 3458TIP3    H131865   4.604   0.432  13.590  0.2941  0.0636 -0.2710
 3458TIP3    H231866   4.596   0.578  13.629 -0.3822 -0.0315 -0.0589
 3459TIP3   OH231867   2.706   1.146  11.271  0.3218 -0.0046  0.0562
 3459TIP3    H131868   2.630   1.123  11.325  0.6854  0.6332  0.8585
 3459TIP3    H231869   2.676   1.218  11.216  0.2207 -0.0204  0.0912
 3460TIP3   OH231870   3.022   2.073  13.677  0.0097  0.5466 -0.4004
 3460TIP3    H131871   2.969   2.135  13.628  0.5276  0.0013 -1.6579
 3460TIP3    H231872   2.977   2.064  13.761 -1.8463  0.1493 -1.4238
 3461TIP3   OH231873   4.526   4.342  13.475  0.2170 -0.4952  0.4153
 3461TIP3    H131874   4.434   4.329  13.498 -0.1838 -0.7043 -1.1842
 3461TIP3    H231875   4.573   4.341  13.558 -1.0735 -1.6870  1.1494
 3462TIP3   OH231876   3.065   1.439  14.110 -1.1719 -0.4236  0.1534
 3462TIP3    H131877   3.058   1.378  14.183  1.3462 -0.2913  0.5796
 3462TIP3    H231878   3.029   1.521  14.143 -0.1056 -0.3799  1.2701
 3463TIP3   OH231879   4.434   0.757  11.313 -0.1753 -0.1165 -0.8833
 3463TIP3    H131880   4.388   0.684  11.273  0.0387 -1.0068  0.4654
 3463TIP3    H231881   4.373   0.831  11.305 -0.9719 -0.7777 -1.0007
 3464TIP3   OH231882   5.710   2.735  13.884 -0.9129 -0.4740  0.0511
 3464TIP3    H131883   5.651   2.662  13.865 -1.1569 -0.0468 -0.8680
 3464TIP3    H231884   5.797   2.702  13.861 -0.9936 -0.5631 -0.1262
 3465TIP3   OH231885   1.238   2.908  11.824  0.2260  0.2674 -0.1721
 3465TIP3    H131886   1.158   2.922  11.772 -0.9073  0.2689  1.5322
 3465TIP3    H231887   1.266   2.819  11.801 -1.0299 -0.2392  0.2268
 3466TIP3   OH231888   3.850   0.861  10.780 -0.1598 -0.2049  0.7058
 3466TIP3    H131889   3.915   0.931  10.784 -0.8069  0.4189  0.4568
 3466TIP3    H231890   3.855   0.819  10.866  0.8889 -0.4539  0.5280
 3467TIP3   OH231891   4.029   4.458  13.431  0.5577  0.1040  0.0098
 3467TIP3    H131892   3.957   4.408  13.469  0.6032  0.1410  0.1433
 3467TIP3    H231893   4.107   4.421  13.472  0.5389  0.8242  0.7010
 3468TIP3   OH231894   2.725   1.865  12.871 -0.1414  0.3083 -0.2525
 3468TIP3    H131895   2.668   1.826  12.804  0.9055 -2.6682  0.5148
 3468TIP3    H231896   2.710   1.813  12.949  0.5912  2.1236  1.1389
 3469TIP3   OH231897   3.045   0.232  11.841  0.3984 -0.0731  0.0341
 3469TIP3    H131898   3.012   0.152  11.800 -0.4252 -0.3642  1.2400
 3469TIP3    H231899   2.984   0.300  11.814  0.8584  0.0766 -0.6459
 3470TIP3   OH231900   1.125   6.477  11.567  0.1882  0.0626 -0.3259
 3470TIP3    H131901   1.157   6.405  11.620 -1.0512  1.5839  2.6046
 3470TIP3    H231902   1.203   6.513  11.524  1.3024 -0.7700  1.0024
 3471TIP3   OH231903   3.681   1.139  13.945 -0.3624 -0.2910 -1.1125
 3471TIP3    H131904   3.631   1.220  13.939 -0.7393 -0.5664 -1.6466
 3471TIP3    H231905   3.676   1.115  14.038  0.1456  0.5461 -0.8642
 3472TIP3   OH231906   4.770   6.302  13.673 -0.3330  0.4221  0.3398
 3472TIP3    H131907   4.853   6.285  13.629 -0.4453  3.0168 -0.9033
 3472TIP3    H231908   4.795   6.321  13.764  0.4534  1.5330 -0.1079
 3473TIP3   OH231909   3.155   1.880  13.193  0.2744 -0.3766  0.8724
 3473TIP3    H131910   3.150   1.797  13.240  0.3834 -0.5885  0.5114
 3473TIP3    H231911   3.094   1.937  13.239 -0.7064 -1.0115  0.4121
 3474TIP3   OH231912   2.463   2.270  12.522 -0.1465  0.4467 -0.3741
 3474TIP3    H131913   2.533   2.220  12.563  0.0857 -0.4314 -1.8150
 3474TIP3    H231914   2.502   2.356  12.503  1.0197 -0.5511 -2.5785
 3475TIP3   OH231915   3.558   2.218  14.603 -0.4381  0.0843  0.5196
 3475TIP3    H131916   3.481   2.168  14.632 -0.1565 -0.6413  0.0291
 3475TIP3    H231917   3.558   2.297  14.658 -0.7404 -0.5789  1.4824
 3476TIP3   OH231918   2.338   0.521  12.191 -0.4226 -0.1625  0.0982
 3476TIP3    H131919   2.287   0.495  12.268 -1.2449  0.3707 -0.2669
 3476TIP3    H231920   2.401   0.450  12.180 -0.7763 -0.6017  0.8312
 3477TIP3   OH231921   2.974   0.510  12.675 -0.0838  0.0753 -0.3617
 3477TIP3    H131922   2.968   0.569  12.750 -0.5070 -1.2267  0.6501
 3477TIP3    H231923   2.898   0.532  12.621 -1.7866 -1.3691  1.3810
 3478TIP3   OH231924   2.704   1.251  14.505 -0.1432  0.4081  0.6863
 3478TIP3    H131925   2.608   1.246  14.498 -0.0964  1.9210 -2.3883
 3478TIP3    H231926   2.724   1.215  14.591 -3.4783  0.0312  1.3968
 3479TIP3   OH231927   2.717   7.198  15.910  0.1484  0.3422 -0.1599
 3479TIP3    H131928   2.764   7.246  15.979  0.1038  1.1086 -0.6583
 3479TIP3    H231929   2.649   7.150  15.957 -0.3208  1.4018  0.2532
 3480TIP3   OH231930   0.031   6.772  10.842 -0.2970 -0.2761  0.0311
 3480TIP3    H131931  -0.013   6.813  10.768 -0.1378 -1.0391 -0.4878
 3480TIP3    H231932   0.124   6.794  10.830 -0.3756  0.3291  0.4810
 3481TIP3   OH231933   2.199   0.266  12.740  0.6567 -0.2592 -0.4239
 3481TIP3    H131934   2.224   0.263  12.648  0.8525  0.1117 -0.3838
 3481TIP3    H231935   2.104   0.261  12.739  0.7110 -1.5013 -0.5830
 3482TIP3   OH231936   1.226   0.537  13.467  0.5272 -0.0403 -0.2179
 3482TIP3    H131937   1.294   0.470  13.456 -0.0412 -0.5583 -0.5995
 3482TIP3    H231938   1.154   0.490  13.508 -0.1857  0.1645 -1.2459
 3483TIP3   OH231939   1.567   0.280  12.166 -0.3435 -0.6154  0.4003
 3483TIP3    H131940   1.474   0.304  12.159 -0.2601 -0.7620 -1.4767
 3483TIP3    H231941   1.599   0.283  12.075  2.2304  2.3983  1.2955
 3484TIP3   OH231942   1.825   1.977  14.875  0.0826  0.0241 -0.4821
 3484TIP3    H131943   1.902   2.012  14.830  0.8454 -1.2236 -0.1500
 3484TIP3    H231944   1.854   1.894  14.913 -0.8147  0.5668  1.4848
 3485TIP3   OH231945   4.530   0.431  13.976  0.0267 -0.1227 -0.1720
 3485TIP3    H131946   4.492   0.360  13.924 -0.9322  1.0959 -1.1660
 3485TIP3    H231947   4.532   0.397  14.066 -1.0771 -1.1473 -0.5188
 3486TIP3   OH231948   3.567   7.305  11.155  0.5514 -0.2518  0.1514
 3486TIP3    H131949   3.535   7.390  11.125 -0.0124 -0.0461  1.2967
 3486TIP3    H231950   3.661   7.319  11.169  0.7452 -0.2376 -1.0698
 3487TIP3   OH231951   2.863   2.253  13.550 -0.3478 -0.1518  0.4468
 3487TIP3    H131952   2.775   2.283  13.527 -0.7223  0.6063  2.6600
 3487TIP3    H231953   2.907   2.332  13.582  0.6713 -0.7915  0.6570
 3488TIP3   OH231954   1.803   6.299  14.639 -0.4428  0.0613  0.3914
 3488TIP3    H131955   1.808   6.349  14.557 -0.4133  1.2555  1.1078
 3488TIP3    H231956   1.740   6.230  14.620 -1.3124  1.0108 -0.3031
 3489TIP3   OH231957   2.226   3.209  11.659  0.0933  0.2855  0.0270
 3489TIP3    H131958   2.228   3.143  11.727 -0.4257 -0.5815 -0.7873
 3489TIP3    H231959   2.211   3.160  11.578  3.4240  0.9956 -1.0997
 3490TIP3   OH231960   3.560   4.479   0.026  0.1809 -0.0764  0.1143
 3490TIP3    H131961   3.566   4.428   0.107 -2.1159 -1.6881 -0.7192
 3490TIP3    H231962   3.469   4.470  -0.002  0.9607  0.4468 -2.6827
 3491TIP3   OH231963   4.585   0.745  12.895 -0.0649  0.2227 -0.1218
 3491TIP3    H131964   4.498   0.778  12.918  0.1072  0.1813  0.6073
 3491TIP3    H231965   4.612   0.798  12.820  0.0173  1.4496  0.7627
 3492TIP3   OH231966   0.648   6.884   0.195 -0.2102  0.2976 -0.7287
 3492TIP3    H131967   0.631   6.850   0.107 -0.3473 -0.4034 -0.4357
 3492TIP3    H231968   0.679   6.808   0.244  0.6430  0.8661 -0.3833
 3493TIP3   OH231969   2.552   6.868  10.517  0.9792 -0.2459 -0.3440
 3493TIP3    H131970   2.472   6.820  10.496  0.0711 -0.1775  2.7444
 3493TIP3    H231971   2.558   6.935  10.449 -0.9497 -0.9848 -1.2754
 3494TIP3   OH231972   2.684   2.149  12.672 -0.0412  0.8079 -0.1448
 3494TIP3    H131973   2.658   2.138  12.763  0.0731 -0.5900 -0.2585
 3494TIP3    H231974   2.754   2.214  12.674  0.1247  0.6068  0.7989
 3495TIP3   OH231975   2.794   0.947  14.513 -0.2291  0.2240  0.0358
 3495TIP3    H131976   2.807   0.990  14.597 -0.8320  0.7898 -0.1517
 3495TIP3    H231977   2.841   0.865  14.520 -0.5054  0.1428  1.0223
 3496TIP3   OH231978   6.085   2.655  14.487  0.2157 -0.6027  0.2595
 3496TIP3    H131979   6.087   2.737  14.536 -3.5568 -0.6660  0.6692
 3496TIP3    H231980   6.130   2.675  14.405  0.9456  1.3312  1.1024
 3497TIP3   OH231981   4.420   2.165  10.432 -0.1641  0.4259  0.3484
 3497TIP3    H131982   4.433   2.188  10.340 -0.9917  0.6100  0.2772
 3497TIP3    H231983   4.325   2.161  10.443 -0.0622 -0.6138  0.9458
 3498TIP3   OH231984   1.711   1.085  12.016  0.0945 -0.4471  0.2150
 3498TIP3    H131985   1.772   1.148  12.054 -0.0785 -0.7889  1.0705
 3498TIP3    H231986   1.692   1.119  11.929  0.2965  0.4791  0.5338
 3499TIP3   OH231987   2.545   0.734  12.535 -0.3454 -0.1970  0.0477
 3499TIP3    H131988   2.559   0.827  12.552 -2.9717 -0.1222  2.0776
 3499TIP3    H231989   2.474   0.731  12.471 -1.0328 -0.8154  0.8314
 3500TIP3   OH231990   1.340   7.233  11.715 -0.2321  0.5527 -0.4842
 3500TIP3    H131991   1.424   7.233  11.670  0.1478  1.4936  0.1933
 3500TIP3    H231992   1.283   7.286  11.660 -0.0398  0.9084 -0.3423
 3501TIP3   OH231993   1.593   1.199  13.814 -0.0189 -0.0112 -0.0770
 3501TIP3    H131994   1.519   1.156  13.771  0.1646  1.3036 -1.7654
 3501TIP3    H231995   1.659   1.208  13.746  0.2427  2.2350  0.4340
 3502TIP3   OH231996   1.725   2.297  14.961 -0.1542  0.4432  0.1672
 3502TIP3    H131997   1.690   2.385  14.953 -0.5945  0.2789  0.2680
 3502TIP3    H231998   1.729   2.265  14.871 -1.2403  0.0871  0.2453
 3503TIP3   OH231999   1.455   1.628  13.492  0.1443 -0.3671 -0.4298
 3503TIP3    H132000   1.426   1.686  13.562 -0.6553 -1.4193  0.1126
 3503TIP3    H232001   1.404   1.548  13.504 -0.4951 -0.3191 -2.6090
 3504TIP3   OH232002   2.137   6.162  12.370 -0.0582 -0.4053  0.0983
 3504TIP3    H132003   2.133   6.195  12.459 -1.7315 -3.2681  1.1476
 3504TIP3    H232004   2.052   6.185  12.331  0.0554 -0.5264 -0.2288
 3505TIP3   OH232005   5.548   0.281  13.198  0.4685  0.0988 -0.4708
 3505TIP3    H132006   5.587   0.321  13.121 -0.2945  0.6555 -0.5747
 3505TIP3    H232007   5.611   0.215  13.226  1.3670  0.8268 -0.7698
 3506TIP3   OH232008   5.386   0.087  15.066 -0.1465  0.3736  0.5415
 3506TIP3    H132009   5.440   0.160  15.099 -1.2659  0.7217  1.6241
 3506TIP3    H232010   5.297   0.123  15.063 -0.6070 -0.7716  0.5339
 3507TIP3   OH232011   1.218   1.248  13.997 -0.2426 -0.1730  0.1998
 3507TIP3    H132012   1.123   1.244  13.987 -0.1196 -0.4686 -0.9244
 3507TIP3    H232013   1.234   1.217  14.086 -1.2521  0.6410  0.6805
 3508TIP3   OH232014   2.484   1.579  13.624 -0.2685  0.9505 -0.0850
 3508TIP3    H132015   2.539   1.583  13.703 -0.2263  1.8529 -0.1495
 3508TIP3    H232016   2.417   1.515  13.645  1.0608 -0.4892 -0.1636
 3509TIP3   OH232017   0.915   6.189  12.469  0.1332 -0.1055 -0.7258
 3509TIP3    H132018   0.977   6.152  12.532 -1.5183 -2.8734 -0.6521
 3509TIP3    H232019   0.950   6.164  12.384 -0.9918 -1.9841 -0.6757
 3510TIP3   OH232020   4.170   6.999  13.332  0.3827 -0.1936 -0.0515
 3510TIP3    H132021   4.121   6.934  13.381  0.0375  0.3928  0.3817
 3510TIP3    H232022   4.107   7.070  13.315  1.2181  0.8221  1.0078
 3511TIP3   OH232023   2.401   2.741  10.600  0.1110 -0.0295 -0.5801
 3511TIP3    H132024   2.347   2.712  10.527  0.5920 -0.6128 -0.7027
 3511TIP3    H232025   2.486   2.762  10.562 -0.3035  1.8062 -0.5341
 3512TIP3   OH232026   1.630   1.560  15.474 -0.1265  0.9957 -0.1943
 3512TIP3    H132027   1.631   1.648  15.437  0.6458  0.8177 -0.6128
 3512TIP3    H232028   1.722   1.539  15.488 -0.2975  0.1839 -0.2701
 3513TIP3   OH232029   2.522   2.327  13.309 -0.0532  0.0980  0.0026
 3513TIP3    H132030   2.611   2.312  13.277 -0.1804 -0.1217 -0.2470
 3513TIP3    H232031   2.534   2.359  13.398  0.2363 -1.1572  0.4322
 3514TIP3   OH232032   2.914   0.995  11.167 -0.3053  0.0387 -0.0946
 3514TIP3    H132033   2.874   0.909  11.183 -1.0777  0.4438  0.1333
 3514TIP3    H232034   2.848   1.058  11.195 -0.4990  0.7460 -2.0622
 3515TIP3   OH232035   2.300   0.884  11.206  0.1532  0.1658  0.0285
 3515TIP3    H132036   2.256   0.920  11.129  0.6797  1.5958  0.3928
 3515TIP3    H232037   2.358   0.816  11.171 -0.6555 -0.1667 -0.6811
 3516TIP3   OH232038   7.075   0.779   0.718 -0.4127 -0.5167 -0.4763
 3516TIP3    H132039   7.032   0.848   0.668  0.3993  1.8734  2.0435
 3516TIP3    H232040   7.004   0.737   0.767 -0.5543  0.2876  0.0194
 3517TIP3   OH232041   3.366   1.155  10.261  0.0200  0.2088 -0.0987
 3517TIP3    H132042   3.314   1.175  10.183  1.8556 -0.6270 -1.6153
 3517TIP3    H232043   3.341   1.066  10.284 -0.0234  0.2036 -0.1643
 3518TIP3   OH232044   4.176   5.922   0.707  0.3794  0.5456  0.5866
 3518TIP3    H132045   4.264   5.894   0.684 -0.5999 -1.7970 -0.4849
 3518TIP3    H232046   4.180   5.943   0.800  1.5196 -1.8613  1.1064
 3519TIP3   OH232047   3.502   1.073  12.114 -0.3705 -0.7203 -0.2028
 3519TIP3    H132048   3.416   1.052  12.077 -1.2209  1.8594  0.1835
 3519TIP3    H232049   3.493   1.056  12.207  0.3882 -2.9900 -0.5285
 3520TIP3   OH232050   1.595   1.279  12.369  0.2939  0.2723  0.1616
 3520TIP3    H132051   1.690   1.283  12.358  0.4548 -0.5988  1.1360
 3520TIP3    H232052   1.569   1.196  12.330 -0.1547  0.8018 -0.6733
 3521TIP3   OH232053   1.471   0.012  11.317  0.1898  0.1032 -0.0014
 3521TIP3    H132054   1.477  -0.024  11.229  0.5947  0.9802 -0.3338
 3521TIP3    H232055   1.440   0.102  11.305  0.8473  0.4379  0.6934
 3522TIP3   OH232056   1.295   0.299  11.800 -0.2927  0.0409 -0.5307
 3522TIP3    H132057   1.254   0.328  11.881  0.5962 -2.1198  0.7446
 3522TIP3    H232058   1.224   0.257  11.751 -0.6609  0.6416 -0.5122
 3523TIP3   OH232059   2.054   0.887  12.171  0.2842 -0.0060  0.7381
 3523TIP3    H132060   2.063   0.892  12.266  0.0211 -2.3877  0.9085
 3523TIP3    H232061   2.037   0.795  12.153 -1.6234  0.7269 -1.4624
 3524TIP3   OH232062   3.730   1.507  11.745  0.0981 -0.1280  0.4025
 3524TIP3    H132063   3.692   1.593  11.764 -0.4160 -0.1525 -0.4867
 3524TIP3    H232064   3.818   1.528  11.711 -0.6060  0.1434 -1.3076
 3525TIP3   OH232065   2.115   2.091  13.466 -0.5518  0.2107 -0.4296
 3525TIP3    H132066   2.210   2.083  13.464 -0.3985  1.9690 -1.8699
 3525TIP3    H232067   2.085   2.047  13.386 -0.8257  0.8222 -0.6726
 3526TIP3   OH232068   2.058   1.488  10.925 -0.6200 -0.0100 -0.0556
 3526TIP3    H132069   2.087   1.557  10.984  0.0631 -2.1880  2.2405
 3526TIP3    H232070   1.970   1.513  10.899 -0.2396  1.9030  0.4258
 3527TIP3   OH232071   3.671   0.500  10.343 -0.2959 -0.4862 -0.2171
 3527TIP3    H132072   3.609   0.430  10.365 -1.7694  1.2492  1.2621
 3527TIP3    H232073   3.624   0.555  10.280  1.0472 -1.0521 -1.7706
 3528TIP3   OH232074   0.057   6.689  13.974  0.2542  0.2565  0.5165
 3528TIP3    H132075   0.134   6.723  13.929 -0.6245  0.8792 -0.5125
 3528TIP3    H232076   0.053   6.740  14.055  1.1951 -0.1079  0.8018
 3529TIP3   OH232077   4.892   0.997  12.809  0.6573 -0.5382  0.3807
 3529TIP3    H132078   4.808   0.959  12.785  1.0480 -0.7259 -0.6996
 3529TIP3    H232079   4.870   1.079  12.852 -0.1383 -1.3998  1.6529
 3530TIP3   OH232080   0.562   2.829  11.961 -0.3244  0.2260 -0.2627
 3530TIP3    H132081   0.470   2.849  11.942 -0.5516  0.3850  1.0043
 3530TIP3    H232082   0.562   2.796  12.050  0.9643  0.9895  0.0291
 3531TIP3   OH232083   2.467   7.294   0.155 -0.2804 -0.3199 -0.1146
 3531TIP3    H132084   2.506   7.360   0.097  1.3125 -1.2945 -0.1798
 3531TIP3    H232085   2.524   7.292   0.232 -1.3842 -0.3005  0.7294
 3532TIP3   OH232086   3.153   3.344  13.773 -0.5139 -0.4431  0.0694
 3532TIP3    H132087   3.243   3.316  13.757 -0.4770  0.3238 -1.1488
 3532TIP3    H232088   3.109   3.333  13.688 -1.1121  0.8724  0.2056
 3533TIP3   OH232089   2.328   0.205  13.604  0.4922 -0.3369 -0.0888
 3533TIP3    H132090   2.381   0.181  13.679  1.1522  0.0565 -0.4196
 3533TIP3    H232091   2.300   0.295  13.623 -2.7866 -1.6416  1.6121
 3534TIP3   OH232092   2.482   0.889  11.731  0.6451  0.1636  0.2065
 3534TIP3    H132093   2.570   0.911  11.762  0.2387  1.0041  0.7597
 3534TIP3    H232094   2.424   0.950  11.776 -0.3924 -1.4359  1.0759
 3535TIP3   OH232095   2.020   0.125  11.940  0.2742  0.0126 -0.4154
 3535TIP3    H132096   1.988   0.036  11.925 -0.8064  0.4724 -0.9094
 3535TIP3    H232097   2.048   0.155  11.854  1.5000 -0.1719 -0.0875
 3536TIP3   OH232098   3.364   3.900  13.956  0.3000 -0.2662  0.2173
 3536TIP3    H132099   3.338   3.827  14.013  0.3125 -0.2667  0.2215
 3536TIP3    H232100   3.281   3.932  13.919  0.3705 -0.8198 -0.4365
 3537TIP3   OH232101   1.577   7.048  13.153  0.3265 -0.1335 -0.2776
 3537TIP3    H132102   1.582   7.077  13.062  0.7912 -1.4534 -0.6859
 3537TIP3    H232103   1.508   7.102  13.191  0.1676  0.4787 -1.3903
 3538TIP3   OH232104   1.998   2.445  12.775 -0.9056 -0.2547 -0.2090
 3538TIP3    H132105   2.041   2.436  12.860 -0.7769 -0.5355 -0.3035
 3538TIP3    H232106   2.055   2.400  12.713 -0.8421  0.2186 -0.5000
 3539TIP3   OH232107   1.943   1.532  14.062  0.0866  0.2837 -0.8715
 3539TIP3    H132108   1.932   1.623  14.035 -0.1182  0.6564  0.4097
 3539TIP3    H232109   1.962   1.537  14.156  2.5439 -0.8506 -1.2619
 3540TIP3   OH232110   2.062   2.318  13.595  0.0219 -0.0153  0.0272
 3540TIP3    H132111   2.139   2.351  13.642 -0.7720 -0.5223  1.6975
 3540TIP3    H232112   2.075   2.223  13.592 -1.1436 -0.2373  1.4466
 3541TIP3   OH232113   2.529   1.943   9.868  0.1656  0.5357 -0.0771
 3541TIP3    H132114   2.514   1.916   9.778  0.6834 -0.4054  0.1113
 3541TIP3    H232115   2.623   1.929   9.883 -0.3790 -1.8837  1.4099
 3542TIP3   OH232116   2.838   3.601  14.264  0.4164  0.0234 -0.1759
 3542TIP3    H132117   2.829   3.556  14.348  1.9575 -1.5310 -0.8175
 3542TIP3    H232118   2.754   3.645  14.252 -0.0639 -0.2636  1.8644
 3543TIP3   OH232119   4.595   3.777  11.280  0.4643 -0.4160  0.1182
 3543TIP3    H132120   4.541   3.708  11.239  1.1666 -0.8513 -0.0933
 3543TIP3    H232121   4.592   3.758  11.373 -0.9917  0.4654  0.2518
 3544TIP3   OH232122   2.456   7.174  13.777 -0.0852  0.1707  0.4256
 3544TIP3    H132123   2.443   7.114  13.850  1.2703  0.4533  0.9020
 3544TIP3    H232124   2.367   7.202  13.754 -0.5335 -0.0171  1.8802
 3545TIP3   OH232125   3.747   1.853  11.561 -0.5541 -0.2944  0.6841
 3545TIP3    H132126   3.731   1.897  11.644  1.0815  0.3315  0.6838
 3545TIP3    H232127   3.786   1.920  11.505 -0.4560 -1.0478 -0.1663
 3546TIP3   OH232128   4.672   2.331  12.122 -0.4729  0.4976 -0.0625
 3546TIP3    H132129   4.722   2.309  12.044 -1.1951  3.0389 -1.2961
 3546TIP3    H232130   4.732   2.383  12.175 -0.8988  1.2203 -0.2788
 3547TIP3   OH232131   2.563   6.709  12.698  0.4913 -0.2568 -0.4745
 3547TIP3    H132132   2.525   6.675  12.617 -1.0056 -0.9895  0.5155
 3547TIP3    H232133   2.546   6.803  12.695 -2.6472 -0.7148  0.5296
 3548TIP3   OH232134   3.493   2.675   0.048 -0.0201 -0.2120  0.3710
 3548TIP3    H132135   3.509   2.747  -0.014 -3.2375 -0.8848 -1.2984
 3548TIP3    H232136   3.498   2.596  -0.006 -0.0344 -1.0037  1.5358
 3549TIP3   OH232137   3.034   0.593  14.022 -0.6217  0.4614 -0.5230
 3549TIP3    H132138   2.946   0.626  14.005 -0.5525  0.7803 -0.2526
 3549TIP3    H232139   3.038   0.580  14.117 -1.0568 -1.4611 -0.7456
 3550TIP3   OH232140   3.394   0.210  12.953 -0.0731  0.8188 -0.4602
 3550TIP3    H132141   3.428   0.123  12.976  1.2562  1.4719  0.0708
 3550TIP3    H232142   3.299   0.197  12.947  0.1473 -0.7655 -0.8285
 3551TIP3   OH232143   4.067   1.950  14.283  0.0511 -0.5566 -0.1193
 3551TIP3    H132144   4.032   2.036  14.305  2.5814  0.1076  1.4525
 3551TIP3    H232145   3.991   1.891  14.289 -1.1310  1.0956  1.5718
 3552TIP3   OH232146   2.696   1.383  15.351  0.1294  0.4734  0.1957
 3552TIP3    H132147   2.722   1.297  15.317  0.2839  0.5642  0.0814
 3552TIP3    H232148   2.765   1.442  15.321 -0.1248  0.6886  0.0328
 3553TIP3   OH232149   1.501   0.018  12.619 -0.1391 -0.1400  0.2667
 3553TIP3    H132150   1.478   0.047  12.708  0.2749 -0.1975  0.3923
 3553TIP3    H232151   1.503  -0.078  12.626  1.4270 -0.1019  0.5770
 3554TIP3   OH232152   4.432   1.254  10.880  0.3007 -0.3897  0.4552
 3554TIP3    H132153   4.527   1.256  10.874  0.2560 -0.9444 -0.5440
 3554TIP3    H232154   4.413   1.199  10.956  0.7792  0.2923  1.0759
 3555TIP3   OH232155   1.617   7.177  15.219 -0.0030  0.0016 -0.3710
 3555TIP3    H132156   1.599   7.147  15.130 -1.4248  0.4506 -0.2396
 3555TIP3    H232157   1.650   7.100  15.264  1.2840 -0.0869 -1.4408
 3556TIP3   OH232158   3.210   1.774  14.471 -0.1717 -0.3139 -0.4132
 3556TIP3    H132159   3.228   1.868  14.466  2.1940 -0.8050 -1.6505
 3556TIP3    H232160   3.117   1.769  14.492 -0.5144  2.3150 -1.1108
 3557TIP3   OH232161   3.116   3.362  15.197 -0.1024 -0.3077 -0.2687
 3557TIP3    H132162   3.169   3.303  15.144  1.2438 -0.5280  1.2769
 3557TIP3    H232163   3.135   3.336  15.288 -0.3887  1.7314  0.3923
 3558TIP3   OH232164   2.951   2.516  15.163  0.2642 -0.0729 -0.5030
 3558TIP3    H132165   2.864   2.544  15.136  0.1729  1.7079  1.4601
 3558TIP3    H232166   2.941   2.489  15.254  1.7474  0.1013 -0.2661
 3559TIP3   OH232167   4.454   3.339  14.918 -0.1012 -0.6552  0.4758
 3559TIP3    H132168   4.415   3.328  15.005 -0.6055  0.2128  0.3581
 3559TIP3    H232169   4.517   3.410  14.929 -1.1491  0.3879 -0.1909
 3560TIP3   OH232170   2.719   1.706  13.083  0.3292 -0.0780  0.3490
 3560TIP3    H132171   2.756   1.620  13.105  0.6693 -0.1463 -0.4905
 3560TIP3    H232172   2.672   1.732  13.162 -0.6541 -1.5088  0.2616
 3561TIP3   OH232173   3.054   5.391  12.784 -0.6655 -0.2322 -0.3639
 3561TIP3    H132174   3.128   5.414  12.841 -0.9483 -0.3474  0.0500
 3561TIP3    H232175   2.980   5.382  12.843 -0.7760 -1.2438 -0.6446
 3562TIP3   OH232176   2.508   7.110  14.823  0.5599  0.4635  0.2519
 3562TIP3    H132177   2.490   7.055  14.746 -1.0787  0.7876  0.3796
 3562TIP3    H232178   2.433   7.170  14.826  1.1602  1.1444  1.4853
 3563TIP3   OH232179   2.831   1.878  12.149  0.4819 -0.7807 -0.4705
 3563TIP3    H132180   2.852   1.968  12.174  1.9156 -0.4820 -2.6259
 3563TIP3    H232181   2.735   1.876  12.145  0.3684  0.1742  1.2183
 3564TIP3   OH232182   0.350   0.933  15.737  0.0094  0.0882 -0.1453
 3564TIP3    H132183   0.323   0.989  15.810  1.0311 -0.1682  0.4451
 3564TIP3    H232184   0.336   0.986  15.659  1.3342  1.3128  0.4366
 3565TIP3   OH232185   3.278   1.167   0.171  0.7476  0.8316  0.2711
 3565TIP3    H132186   3.299   1.103   0.103 -1.9060  0.8963 -0.6926
 3565TIP3    H232187   3.348   1.158   0.236  2.4785 -0.3346 -1.7014
 3566TIP3   OH232188   4.619   7.018  15.684  0.0271 -0.2157  0.1737
 3566TIP3    H132189   4.608   7.113  15.681 -0.6662 -0.3306 -1.3615
 3566TIP3    H232190   4.700   7.005  15.733  0.3173  1.1774  0.0872
 3567TIP3   OH232191   3.059   0.018  15.335  0.4460 -0.3676  0.4755
 3567TIP3    H132192   2.987  -0.032  15.375 -1.3904  1.2087 -0.7621
 3567TIP3    H232193   3.107  -0.046  15.284 -1.8534 -0.9214 -1.0696
 3568TIP3   OH232194   2.417   2.940  13.116 -0.2825  0.6822 -0.2319
 3568TIP3    H132195   2.478   2.868  13.104 -1.8057 -0.6089 -0.3964
 3568TIP3    H232196   2.472   3.014  13.143  1.3034 -0.5165 -0.1030
 3569TIP3   OH232197   3.360   0.384  12.217 -0.5760 -0.1248  0.4820
 3569TIP3    H132198   3.362   0.290  12.201  1.1955  0.0786 -0.6390
 3569TIP3    H232199   3.399   0.394  12.304  1.8590 -0.2474 -0.5426
 3570TIP3   OH232200   2.558   1.004  12.751 -0.1431  0.1648  0.0393
 3570TIP3    H132201   2.570   1.029  12.659 -0.0084 -0.9973 -0.2662
 3570TIP3    H232202   2.553   1.087  12.798  1.1934  0.7727 -0.8489
 3571TIP3   OH232203   4.526   4.062  14.319  0.0297 -0.1558  0.4444
 3571TIP3    H132204   4.577   4.081  14.241 -0.0655  1.3129  0.7241
 3571TIP3    H232205   4.474   3.985  14.297 -0.4319  0.5946 -1.1481
 3572TIP3   OH232206   2.246   2.426  12.371 -0.4012  0.6305 -0.0630
 3572TIP3    H132207   2.315   2.371  12.410 -0.3390  0.5932 -0.2256
 3572TIP3    H232208   2.293   2.490  12.318 -0.5117  0.3058 -0.5548
 3573TIP3   OH232209   4.793   6.993  11.089  0.3228 -0.1175 -0.8245
 3573TIP3    H132210   4.872   7.031  11.126 -0.0734  1.0114 -1.1156
 3573TIP3    H232211   4.803   7.003  10.995 -0.7310  1.1973 -0.8100
 3574TIP3   OH232212   2.956   1.272  14.918 -0.0364  0.1286  0.1752
 3574TIP3    H132213   2.949   1.366  14.936  0.3136  0.3468 -0.8039
 3574TIP3    H232214   3.046   1.250  14.941 -0.1487  0.0162  0.4999
 3575TIP3   OH232215   3.545   2.837  13.290 -0.6886 -0.8857  0.1676
 3575TIP3    H132216   3.489   2.905  13.326 -0.5570 -0.8183  0.2427
 3575TIP3    H232217   3.512   2.823  13.201  0.7963  0.9681 -0.7081
 3576TIP3   OH232218   2.832   7.270  13.693 -0.2930 -0.1920 -0.1365
 3576TIP3    H132219   2.823   7.177  13.675 -0.9418 -0.0246 -0.6794
 3576TIP3    H232220   2.895   7.274  13.765  0.1610 -1.0138 -0.4812
 3577TIP3   OH232221   4.779   0.315  13.792 -0.2423  0.1702 -0.7045
 3577TIP3    H132222   4.796   0.332  13.885  0.8418  0.3243 -0.9253
 3577TIP3    H232223   4.718   0.384  13.765 -0.2884  0.3278 -0.2021
 3578TIP3   OH232224   3.309   3.990  11.721 -0.1880 -0.1047  0.3145
 3578TIP3    H132225   3.380   4.036  11.766  0.3781 -1.8834  1.2891
 3578TIP3    H232226   3.231   4.011  11.772 -0.0957  0.5461  0.1908
 3579TIP3   OH232227   2.706   0.326  11.894 -0.2036  0.7233 -0.3233
 3579TIP3    H132228   2.727   0.235  11.916  0.3976  0.9124 -0.0971
 3579TIP3    H232229   2.612   0.334  11.911 -0.2664  0.1293 -0.3920
 3580TIP3   OH232230   2.738   1.221  12.074 -0.5360  0.3562  0.2276
 3580TIP3    H132231   2.748   1.231  12.169 -0.5569 -1.8610  0.4823
 3580TIP3    H232232   2.669   1.156  12.064  0.8926 -0.9770 -1.2779
 3581TIP3   OH232233   4.072   1.194  13.060 -0.2631  0.6524  0.4916
 3581TIP3    H132234   4.038   1.107  13.080 -1.6837  0.3172 -2.9403
 3581TIP3    H232235   4.001   1.253  13.082  0.2512  0.8389  1.6730
 3582TIP3   OH232236   4.763   4.085  13.011 -0.4605  0.3174  0.0942
 3582TIP3    H132237   4.750   4.117  13.100 -1.3076 -0.5100  0.2699
 3582TIP3    H232238   4.681   4.102  12.966  0.5950  2.5228 -1.1170
 3583TIP3   OH232239   3.439   4.254  15.191  0.6942  0.0436 -0.4747
 3583TIP3    H132240   3.365   4.200  15.164  1.3433 -2.2483  2.1806
 3583TIP3    H232241   3.497   4.255  15.114  1.5063 -4.5358 -0.0568
 3584TIP3   OH232242   2.973   2.080  14.264 -0.0312 -0.3228  0.2196
 3584TIP3    H132243   3.013   2.162  14.236 -0.7425 -0.1052 -0.1654
 3584TIP3    H232244   3.047   2.025  14.291  0.2997  1.1909  2.4782
 3585TIP3   OH232245   4.043   0.546  11.696  0.2477  0.3571  0.7742
 3585TIP3    H132246   4.138   0.549  11.707  0.3153 -0.5906  0.5282
 3585TIP3    H232247   4.008   0.565  11.783  0.6725  0.3263  0.9548
 3586TIP3   OH232248   3.266   1.242  12.382  0.1638 -0.3911  0.2202
 3586TIP3    H132249   3.315   1.321  12.361 -0.2685  0.8265  3.5052
 3586TIP3    H232250   3.191   1.243  12.323  1.3659  0.4237 -1.3173
 3587TIP3   OH232251   1.845   2.242  13.963 -0.1608 -1.0446 -0.1872
 3587TIP3    H132252   1.927   2.193  13.967  0.3603 -0.0097  2.0450
 3587TIP3    H232253   1.857   2.304  13.892  0.5024 -1.7332 -0.6849
 3588TIP3   OH232254   4.270   0.621  12.163  0.1863 -0.0442 -0.0062
 3588TIP3    H132255   4.315   0.633  12.246  2.2467  1.1939 -1.2523
 3588TIP3    H232256   4.272   0.708  12.122 -1.4520 -0.4678 -1.0201
 3589TIP3   OH232257   6.529   6.695  15.900  0.7170 -0.4022  0.0962
 3589TIP3    H132258   6.484   6.705  15.816 -1.4293  1.3421  1.3935
 3589TIP3    H232259   6.563   6.605  15.899  1.0475 -0.2917 -2.7501
 3590TIP3   OH232260   2.433   3.460  15.304  0.2527  0.6151  0.1502
 3590TIP3    H132261   2.383   3.410  15.369  0.8941  0.9108  0.8767
 3590TIP3    H232262   2.468   3.393  15.245  0.4604  0.2613  0.6685
 3591TIP3   OH232263   1.324   2.850  15.527 -0.3631  0.2230  0.3683
 3591TIP3    H132264   1.396   2.899  15.568 -1.2136 -0.5013  2.7885
 3591TIP3    H232265   1.365   2.767  15.500  0.4333  1.1079 -1.2087
 3592TIP3   OH232266   1.643   0.284  12.936 -0.5269  0.0474 -0.3507
 3592TIP3    H132267   1.586   0.230  12.991 -0.7780  1.1967  0.5321
 3592TIP3    H232268   1.608   0.373  12.944  0.5433  0.5335 -0.9164
 3593TIP3   OH232269   1.978   0.941  13.107  0.1531 -0.2972 -0.7434
 3593TIP3    H132270   2.034   0.969  13.179  0.4532  0.1050 -1.1283
 3593TIP3    H232271   1.983   0.845  13.108  0.7306 -0.2707 -0.6782
 3594TIP3   OH232272   2.307   0.878  15.438  0.2612  0.1522 -0.3498
 3594TIP3    H132273   2.212   0.885  15.447  0.1920  0.5195 -1.2512
 3594TIP3    H232274   2.341   0.892  15.526 -0.5343 -0.2815  0.0354
 3595TIP3   OH232275   3.359   6.518  13.211 -0.4924 -0.2635 -0.1617
 3595TIP3    H132276   3.272   6.547  13.184  0.0005  1.7136  0.2967
 3595TIP3    H232277   3.359   6.526  13.307  0.9332  2.0057 -0.3073
 3596TIP3   OH232278   0.385   7.033  11.519 -0.6852 -0.1273  0.2770
 3596TIP3    H132279   0.443   6.987  11.458 -1.3889  0.5795 -0.9628
 3596TIP3    H232280   0.320   6.968  11.544 -1.2064 -0.0585 -0.8418
 3597TIP3   OH232281   2.560   0.789  14.998 -0.5493  0.2295  0.6837
 3597TIP3    H132282   2.540   0.879  15.023 -1.8186  0.2161 -0.2264
 3597TIP3    H232283   2.487   0.738  15.034  0.8661 -0.6460  2.4130
 3598TIP3   OH232284   0.414   1.413  12.693 -0.2613 -0.2370  0.7606
 3598TIP3    H132285   0.430   1.505  12.711 -0.3179  0.3397 -1.9402
 3598TIP3    H232286   0.483   1.388  12.631 -1.6701 -1.3480 -0.4041
 3599TIP3   OH232287   2.575   4.083  11.140 -0.4623  0.3063  0.7928
 3599TIP3    H132288   2.562   4.041  11.055  0.8414 -1.6339  1.4924
 3599TIP3    H232289   2.667   4.108  11.140 -0.4900  0.4189  1.5682
 3600TIP3   OH232290   4.778   4.573  13.076  0.6407 -0.1509 -0.3575
 3600TIP3    H132291   4.713   4.551  13.143  1.0871 -1.9065 -0.4897
 3600TIP3    H232292   4.733   4.634  13.017 -0.2032  0.2826  0.7246
 3601TIP3   OH232293   2.371   1.295  14.505  0.0589  0.0803 -0.0361
 3601TIP3    H132294   2.332   1.296  14.417  0.0291 -0.3497 -0.0298
 3601TIP3    H232295   2.351   1.207  14.538 -0.9904  0.6507  0.8814
 3602TIP3   OH232296   4.094   2.601  14.240 -0.3990  0.3890  0.0634
 3602TIP3    H132297   4.036   2.622  14.167 -0.2875 -1.0034 -0.4332
 3602TIP3    H232298   4.181   2.593  14.201 -0.4649 -1.1125  0.2242
 3603TIP3   OH232299   3.513   3.660  14.374  0.0723 -0.1606 -0.4707
 3603TIP3    H132300   3.562   3.645  14.293 -2.2531  0.2108 -1.9858
 3603TIP3    H232301   3.529   3.752  14.395  0.4508 -0.1843 -0.6480
 3604TIP3   OH232302   2.729   2.303  13.152  0.2783  0.7209 -0.0365
 3604TIP3    H132303   2.785   2.347  13.088  2.6496 -1.9677  0.0665
 3604TIP3    H232304   2.724   2.212  13.121 -1.1279  0.1008  1.8860
 3605TIP3   OH232305   1.689   1.210  14.965  0.1700 -0.3060  0.0242
 3605TIP3    H132306   1.622   1.269  14.932 -1.2457 -2.7564 -1.5757
 3605TIP3    H232307   1.771   1.245  14.930 -0.7366  0.3228 -1.5238
 3606TIP3   OH232308   4.134   4.401  12.676  0.4640 -0.2349 -0.3691
 3606TIP3    H132309   4.211   4.409  12.733  0.1823  0.1514 -0.0304
 3606TIP3    H232310   4.064   4.372  12.735  0.1153  0.3894 -0.4653
 3607TIP3   OH232311   4.792   3.055  13.564  0.1629 -0.1961  0.2458
 3607TIP3    H132312   4.717   3.061  13.506 -0.0174  0.4527  0.5392
 3607TIP3    H232313   4.867   3.047  13.506 -0.0743 -0.2347 -0.0578
 3608TIP3   OH232314   2.897   2.321  14.957  0.2046 -0.0917 -0.0881
 3608TIP3    H132315   2.944   2.363  15.028  0.2793  1.1813 -0.8678
 3608TIP3    H232316   2.811   2.300  14.994 -0.4594  2.3390 -0.1600
 3609TIP3   OH232317   3.918   2.496  13.371 -0.2676 -0.3015 -0.1192
 3609TIP3    H132318   3.976   2.534  13.305  0.1438 -0.5546  0.0938
 3609TIP3    H232319   3.891   2.412  13.333  1.8389 -1.5415  1.0237
 3610TIP3   OH232320   5.434   3.441  13.323 -0.0339 -0.0935  0.0681
 3610TIP3    H132321   5.432   3.348  13.348  0.2745  0.0198  0.5166
 3610TIP3    H232322   5.463   3.486  13.402 -1.0641  0.4782  0.1267
 3611TIP3   OH232323   2.172   2.219  14.081 -0.0757 -0.2162 -0.7278
 3611TIP3    H132324   2.196   2.129  14.062 -1.7885 -0.8328 -0.1344
 3611TIP3    H232325   2.229   2.272  14.025  1.3358 -1.6331 -0.6616
 3612TIP3   OH232326   3.078   7.016  15.496  0.0561  0.1453  0.4119
 3612TIP3    H132327   3.005   7.054  15.448 -0.2712 -0.8154  0.1510
 3612TIP3    H232328   3.107   6.943  15.441  0.2571 -0.3939  1.2408
 3613TIP3   OH232329   6.199   5.180  12.572  0.2693  0.2959  0.7121
 3613TIP3    H132330   6.249   5.160  12.650 -0.7046 -0.1139  1.2443
 3613TIP3    H232331   6.187   5.275  12.574  1.7349  0.4998  0.1338
 3614TIP3   OH232332   3.257   1.409  15.279 -0.2556  0.1748 -0.0640
 3614TIP3    H132333   3.312   1.331  15.288  0.2977  0.8123  2.7248
 3614TIP3    H232334   3.302   1.464  15.216  1.2086 -0.2558  0.5858
 3615TIP3   OH232335   2.522   1.744  12.689  0.0026 -0.1406 -0.0095
 3615TIP3    H132336   2.484   1.728  12.775  1.6223 -1.5693  0.4643
 3615TIP3    H232337   2.476   1.822  12.657 -0.5195  0.5051  2.1989
 3616TIP3   OH232338   1.532   1.075  12.213  0.5596 -0.3473  0.4390
 3616TIP3    H132339   1.594   1.066  12.141  0.9059 -0.2367  0.7203
 3616TIP3    H232340   1.544   0.994  12.264 -0.6025 -1.0163 -0.3398
 3617TIP3   OH232341   3.001   0.253  14.596  0.7894 -0.2508 -0.3703
 3617TIP3    H132342   2.924   0.210  14.634  1.1100 -0.0705  0.4901
 3617TIP3    H232343   3.072   0.190  14.609  0.7233 -0.5677 -1.4844
 3618TIP3   OH232344   2.188   1.810  13.420  0.2750 -0.2711 -0.6956
 3618TIP3    H132345   2.122   1.746  13.449  0.4191 -0.5463 -0.9738
 3618TIP3    H232346   2.219   1.850  13.501  1.2434 -1.5988 -0.4005
 3619TIP3   OH232347   4.043   0.990  13.447  0.5187  0.3143 -0.9741
 3619TIP3    H132348   4.092   1.034  13.516  2.0277  0.1035 -1.8861
 3619TIP3    H232349   3.973   1.051  13.424 -0.3383  0.1539  1.0979
 3620TIP3   OH232350   2.889   2.014  11.148  0.0143 -0.0508 -0.3991
 3620TIP3    H132351   2.850   1.966  11.075  2.0390  0.0916 -1.6070
 3620TIP3    H232352   2.956   2.070  11.107  0.1994  1.0934  1.3979
 3621TIP3   OH232353   1.851   5.360  14.939 -0.7430 -0.1545  0.2065
 3621TIP3    H132354   1.774   5.333  14.889 -2.9961  2.0210  2.3026
 3621TIP3    H232355   1.857   5.297  15.011 -1.8103  0.7832  1.1503
 3622TIP3   OH232356   2.942   0.399  13.107 -0.2611 -0.3097 -0.0569
 3622TIP3    H132357   2.886   0.357  13.172 -0.1910  0.5795  0.5864
 3622TIP3    H232358   2.884   0.460  13.061 -0.2402 -0.7107 -0.6188
 3623TIP3   OH232359   2.435   2.534  12.704  0.4771 -0.0215 -0.4180
 3623TIP3    H132360   2.523   2.547  12.738  0.6967 -2.0911 -0.1446
 3623TIP3    H232361   2.394   2.471  12.764 -1.3657  1.3024 -0.2439
 3624TIP3   OH232362   2.829   7.034  10.889  0.2743 -0.3138 -0.1444
 3624TIP3    H132363   2.848   7.035  10.795 -0.1992  0.2312 -0.2393
 3624TIP3    H232364   2.737   7.060  10.895  0.0719 -1.1540  0.4219
 3625TIP3   OH232365   3.491   5.663  15.165  0.2236 -0.0462 -0.3760
 3625TIP3    H132366   3.475   5.635  15.075  0.9332 -0.1876 -0.4610
 3625TIP3    H232367   3.416   5.631  15.214 -0.3569  0.3594 -0.9851
 3626TIP3   OH232368   3.619   7.005  15.096  0.2363 -0.2447 -0.3309
 3626TIP3    H132369   3.560   7.080  15.104 -0.0446 -0.4756 -0.2299
 3626TIP3    H232370   3.568   6.939  15.051 -0.0386 -0.9319  0.9743
 3627TIP3   OH232371   1.804   2.198  12.874  0.3560  0.1145  0.1738
 3627TIP3    H132372   1.779   2.290  12.881  2.4680  0.6320  1.0954
 3627TIP3    H232373   1.743   2.152  12.933 -0.1874  0.9977  0.3145
 3628TIP3   OH232374   2.669   2.660  13.378 -0.8095  0.1247 -1.0758
 3628TIP3    H132375   2.630   2.688  13.295  0.4573  1.0291 -1.3980
 3628TIP3    H232376   2.756   2.628  13.353 -0.9693 -0.9412 -0.2709
 3629TIP3   OH232377   2.883   0.079  12.622  0.1703  0.5958  0.1106
 3629TIP3    H132378   2.827   0.083  12.544 -0.6894 -2.5749  0.4841
 3629TIP3    H232379   2.960   0.131  12.599 -1.5740  2.5273 -1.5642
 3630TIP3   OH232380   4.074   1.365  10.460  0.8323  0.1920  0.3059
 3630TIP3    H132381   4.124   1.296  10.503 -0.0199  0.6436  2.0866
 3630TIP3    H232382   4.008   1.319  10.408  1.0180 -0.3548  0.5518
 3631TIP3   OH232383   3.824   1.090  11.324  0.4551 -0.2885 -0.4506
 3631TIP3    H132384   3.748   1.052  11.368  1.4696 -1.9657 -0.0860
 3631TIP3    H232385   3.788   1.160  11.270 -1.0904  0.3830  1.3697
 3632TIP3   OH232386   5.890   6.551  12.242  0.9069 -0.1227 -0.5210
 3632TIP3    H132387   5.959   6.484  12.242 -0.1074 -1.2229  1.3870
 3632TIP3    H232388   5.820   6.513  12.188  1.9228  1.1777 -2.8196
 3633TIP3   OH232389   6.954   7.321  12.081 -0.2789 -0.0705 -0.1390
 3633TIP3    H132390   7.033   7.286  12.041  0.2582 -0.0786  0.8932
 3633TIP3    H232391   6.892   7.249  12.080 -0.8859  0.4726 -2.5823
 3634TIP3   OH232392   5.487   0.277  11.645 -0.0793  0.7078  0.0219
 3634TIP3    H132393   5.520   0.309  11.729  1.9667 -1.7337  0.2168
 3634TIP3    H232394   5.473   0.184  11.659 -1.8337  0.6832 -1.7389
 3635TIP3   OH232395   2.629   2.066  10.595 -0.2500 -0.1479 -0.0331
 3635TIP3    H132396   2.588   2.144  10.633  0.0467  0.3015 -0.6336
 3635TIP3    H232397   2.683   2.100  10.524 -1.8443 -1.0974 -1.7426
 3636TIP3   OH232398   3.145   0.294  12.692  0.5842  0.3134 -0.1593
 3636TIP3    H132399   3.121   0.265  12.604  1.1632 -0.6241 -0.0244
 3636TIP3    H232400   3.096   0.375  12.705 -0.6663 -0.3191 -0.7753
 3637TIP3   OH232401   5.717   0.533  13.674  0.3805 -0.3289 -0.2834
 3637TIP3    H132402   5.718   0.629  13.677  0.0226 -0.3071 -0.7381
 3637TIP3    H232403   5.719   0.506  13.766  1.9062  0.0902 -0.1843
 3638TIP3   OH232404   4.295   0.890  12.707 -0.2535  0.1275  0.4489
 3638TIP3    H132405   4.345   0.929  12.635  0.6673 -0.0248  1.0058
 3638TIP3    H232406   4.237   0.827  12.664 -0.2108  0.5456 -0.2317
 3639TIP3   OH232407   0.251   4.537  13.778  0.1416 -0.0000 -0.4780
 3639TIP3    H132408   0.285   4.497  13.698  1.0908  0.0081 -0.0841
 3639TIP3    H232409   0.156   4.533  13.768  0.2451 -0.8670 -1.1747
 3640TIP3   OH232410   5.023   0.179  11.303  0.0386 -0.0274  0.0502
 3640TIP3    H132411   5.006   0.248  11.368 -1.1552 -0.5392  0.2985
 3640TIP3    H232412   5.037   0.226  11.221  3.1489  0.7203  0.9569
 3641TIP3   OH232413   4.322   0.982  14.754  0.3715 -0.2317  0.5888
 3641TIP3    H132414   4.263   0.988  14.679  2.9937 -0.0854 -1.5221
 3641TIP3    H232415   4.322   1.070  14.792  0.4234  0.1820 -0.3494
 3642TIP3   OH232416   5.474   6.065  11.152  0.3388 -0.1102  0.4408
 3642TIP3    H132417   5.511   5.995  11.099  0.3582  1.1210 -1.2092
 3642TIP3    H232418   5.412   6.021  11.210  0.2272 -1.4678 -0.6884
 3643TIP3   OH232419   5.099   6.284  12.305 -0.5738  0.0679  0.0760
 3643TIP3    H132420   5.056   6.204  12.276 -0.7206  0.5511 -1.0869
 3643TIP3    H232421   5.032   6.330  12.355 -0.0119 -1.2351  2.0617
 3644TIP3   OH232422   4.766   0.392  11.097 -0.4254 -0.2783 -0.2900
 3644TIP3    H132423   4.710   0.367  11.170 -2.8515 -0.6966 -2.2192
 3644TIP3    H232424   4.778   0.312  11.046  3.0956 -0.5137  0.7749
 3645TIP3   OH232425   7.187   6.788  12.036 -0.4399  0.2284 -0.4797
 3645TIP3    H132426   7.259   6.725  12.041 -0.0881  0.4279 -2.5190
 3645TIP3    H232427   7.213   6.858  12.096 -0.2562 -0.9880  0.8773
 3646TIP3   OH232428   3.101   1.292  12.899 -0.2142 -0.1337 -0.1594
 3646TIP3    H132429   3.062   1.223  12.847 -0.7499 -1.3904  1.8527
 3646TIP3    H232430   3.196   1.278  12.892 -0.2320  0.4028 -1.6742
 3647TIP3   OH232431   5.587   3.616  13.480  0.5849 -0.6374 -0.7796
 3647TIP3    H132432   5.570   3.710  13.471 -0.6955 -0.7912 -0.0596
 3647TIP3    H232433   5.680   3.610  13.503  1.2668  0.3204 -3.0848
 3648TIP3   OH232434   4.414   1.391  11.595 -0.1882  1.0245  0.1815
 3648TIP3    H132435   4.379   1.379  11.683 -2.1070  1.0386 -0.5421
 3648TIP3    H232436   4.500   1.349  11.597 -1.4790 -1.6957  1.2091
 3649TIP3   OH232437   6.839   0.987  10.682 -0.6900 -0.1967  0.1181
 3649TIP3    H132438   6.822   1.054  10.616  0.0290  0.1442  0.2768
 3649TIP3    H232439   6.775   0.918  10.663 -1.4040  0.5170 -0.0644
 3650TIP3   OH232440   4.455   0.427  12.291 -1.3384  0.2895  0.2014
 3650TIP3    H132441   4.361   0.421  12.275 -1.4349  0.4485  0.7083
 3650TIP3    H232442   4.491   0.346  12.255 -1.4782  0.8895 -1.3519
 3651TIP3   OH232443   2.625   0.210  12.219  0.2152  0.0145 -0.1341
 3651TIP3    H132444   2.647   0.229  12.128 -1.7291 -1.1170 -0.8811
 3651TIP3    H232445   2.663   0.282  12.269 -1.8610  2.6690 -2.2110
 3652TIP3   OH232446   4.764   0.868  10.976 -0.0015 -0.7027 -0.0332
 3652TIP3    H132447   4.850   0.908  10.966  1.1630 -1.9225  4.0652
 3652TIP3    H232448   4.781   0.774  10.976 -1.3309 -0.9588  0.9305
 3653TIP3   OH232449   6.033   2.324  12.142  0.2806 -0.8367  0.5710
 3653TIP3    H132450   6.062   2.401  12.191  1.2911 -1.2165  0.5816
 3653TIP3    H232451   6.072   2.250  12.188  1.3269 -1.1867 -0.8613
 3654TIP3   OH232452   5.116   6.893  13.671 -0.0769  0.1126  0.0379
 3654TIP3    H132453   5.207   6.920  13.681  0.0162 -0.3400  0.4320
 3654TIP3    H232454   5.082   6.948  13.600  0.8200 -0.5002 -0.8792
 3655TIP3   OH232455   6.636   6.850  10.651  0.2627 -0.0908  0.1260
 3655TIP3    H132456   6.693   6.817  10.582  0.2233  0.9031 -0.3970
 3655TIP3    H232457   6.695   6.876  10.722  0.6364  2.5614 -1.0909
 3656TIP3   OH232458   4.220   3.126  12.085 -0.2883  0.4655 -0.2496
 3656TIP3    H132459   4.130   3.112  12.114 -0.9912  1.2620 -1.9596
 3656TIP3    H232460   4.229   3.221  12.079  0.7035  0.3902  0.0295
 3657TIP3   OH232461   5.698   1.582  12.234  0.3294 -0.2314  0.7747
 3657TIP3    H132462   5.755   1.554  12.305 -0.0872  0.3156  1.3270
 3657TIP3    H232463   5.694   1.678  12.243  0.6528 -0.1129 -0.2676
 3658TIP3   OH232464   3.751   1.758  13.265  0.5651 -0.4093 -0.9513
 3658TIP3    H132465   3.815   1.762  13.336 -0.1256  0.0206 -0.3513
 3658TIP3    H232466   3.745   1.665  13.243  0.0627 -0.6631  0.2189
 3659TIP3   OH232467   4.354   1.042  12.462  0.7405  0.3626 -0.1786
 3659TIP3    H132468   4.379   1.105  12.395  1.3702 -0.7170 -0.9675
 3659TIP3    H232469   4.280   0.994  12.424 -0.5562  1.4389  0.9116
 3660TIP3   OH232470   4.108   1.164  11.889 -0.3870  0.2150 -0.6683
 3660TIP3    H132471   4.085   1.128  11.975  0.2018  0.7286 -0.2922
 3660TIP3    H232472   4.170   1.234  11.909  0.5782 -0.3752 -1.5981
 3661TIP3   OH232473   0.329   7.092  12.032  0.2330  0.5034 -0.1342
 3661TIP3    H132474   0.374   7.050  11.959 -0.5189  0.3431 -0.5074
 3661TIP3    H232475   0.236   7.089  12.008 -0.0655 -0.0264  1.0740
 3662TIP3   OH232476   4.096   0.834  10.621  0.3576  0.3297  0.4289
 3662TIP3    H132477   4.071   0.742  10.620 -0.2273  0.4895 -0.0804
 3662TIP3    H232478   4.184   0.834  10.658  1.1703 -0.6558 -1.4176
 3663TIP3   OH232479   3.927   1.652  12.864 -0.0523  0.3057  0.6622
 3663TIP3    H132480   3.984   1.628  12.790 -0.9960  0.3698 -0.1007
 3663TIP3    H232481   3.970   1.615  12.941  0.6014 -0.3499 -0.0113
 3664TIP3   OH232482   4.961   0.849  12.073 -0.2021 -0.1871  0.1754
 3664TIP3    H132483   4.895   0.804  12.021 -0.7667  1.9860 -1.0640
 3664TIP3    H232484   5.039   0.850  12.018  0.7086 -2.1609  1.3705
 3665TIP3   OH232485   6.267   1.675  10.556 -0.0977 -0.1876 -0.1993
 3665TIP3    H132486   6.174   1.652  10.557  0.0372 -0.7366  0.7103
 3665TIP3    H232487   6.302   1.631  10.479 -0.5076 -0.3572 -0.2892
 3666TIP3   OH232488   4.649   2.100  11.225 -0.2132  0.3762  0.2414
 3666TIP3    H132489   4.643   2.075  11.133  1.4326 -0.8827  0.4386
 3666TIP3    H232490   4.743   2.097  11.244 -0.5513  0.4655  1.9917
 3667TIP3   OH232491   6.178   0.216  12.527 -0.0535 -0.8733 -0.7631
 3667TIP3    H132492   6.257   0.224  12.474  2.2339 -2.6273  2.2519
 3667TIP3    H232493   6.178   0.295  12.581 -0.6294 -0.6595 -1.0685
 3668TIP3   OH232494   4.007   2.191  15.815  0.0692  0.0538 -0.5137
 3668TIP3    H132495   3.981   2.101  15.796 -1.2972  0.5845 -1.1942
 3668TIP3    H232496   4.092   2.182  15.858  0.2227 -1.5243 -1.1049
 3669TIP3   OH232497   5.249   1.084  11.753 -0.4031  0.3819 -0.1096
 3669TIP3    H132498   5.279   1.166  11.791  2.2507 -0.0900 -1.0953
 3669TIP3    H232499   5.326   1.027  11.754 -2.0070 -1.8507 -0.1313
 3670TIP3   OH232500   4.810   1.175  14.350  0.3399 -0.5015 -0.0159
 3670TIP3    H132501   4.766   1.224  14.281 -1.2897 -0.1981  1.1856
 3670TIP3    H232502   4.788   1.084  14.333 -0.4014 -0.3904  0.3146
 3671TIP3   OH232503   6.226   1.269  11.694  0.0215  0.2372  0.4751
 3671TIP3    H132504   6.149   1.225  11.730 -0.5188  2.2471  1.8591
 3671TIP3    H232505   6.209   1.274  11.600 -1.3484  0.3225  0.7224
 3672TIP3   OH232506   2.330   2.047  12.862 -0.1963 -0.0521 -0.1457
 3672TIP3    H132507   2.238   2.052  12.889 -0.3722 -0.9517 -0.5400
 3672TIP3    H232508   2.377   2.099  12.926 -0.5762 -2.2654  2.0175
 3673TIP3   OH232509   3.995   1.637  11.266 -0.4453 -0.1342 -0.4711
 3673TIP3    H132510   4.022   1.545  11.275 -0.0642  0.0235  0.0507
 3673TIP3    H232511   3.952   1.657  11.349  0.7817  0.5835  0.0210
 3674TIP3   OH232512   5.488   7.053  11.165  0.4238  0.0381  0.0861
 3674TIP3    H132513   5.492   7.130  11.222  2.3085  0.2507 -0.3050
 3674TIP3    H232514   5.580   7.030  11.150 -0.1098 -1.6417 -0.6746
 3675TIP3   OH232515   5.754   0.877  13.155  0.1036 -0.0559  0.0242
 3675TIP3    H132516   5.766   0.826  13.235 -1.7273  1.0899  1.0463
 3675TIP3    H232517   5.724   0.963  13.185  0.6676  0.8186 -1.8260
 3676TIP3   OH232518   3.040   2.702  13.064  0.5328 -0.8292 -0.6418
 3676TIP3    H132519   2.999   2.736  12.985 -2.1811 -0.3689  0.9022
 3676TIP3    H232520   3.078   2.779  13.106 -1.2824 -0.4568  0.3540
 3677TIP3   OH232521   4.150   1.593  11.730  0.5359 -0.3524  0.2828
 3677TIP3    H132522   4.222   1.533  11.711 -0.0653 -1.0014 -0.0017
 3677TIP3    H232523   4.182   1.679  11.703  0.5690 -0.8992 -1.4696
 3678TIP3   OH232524   6.254   1.028  14.436 -0.5847 -0.5518  0.4286
 3678TIP3    H132525   6.300   0.960  14.485 -1.2429 -0.9505  0.4896
 3678TIP3    H232526   6.315   1.103  14.437 -1.0151 -0.1882  2.7911
 3679TIP3   OH232527   3.805   2.601  14.545  0.0328  0.8486  0.4751
 3679TIP3    H132528   3.718   2.588  14.580 -0.4013  1.4132 -0.3740
 3679TIP3    H232529   3.821   2.523  14.491  0.0161  0.7962  0.5459
 3680TIP3   OH232530   4.394   2.891  12.779  0.5277  0.2285  0.4841
 3680TIP3    H132531   4.476   2.841  12.783  0.9607  0.7173 -1.8335
 3680TIP3    H232532   4.326   2.826  12.794  1.1144 -1.0158 -2.0453
 3681TIP3   OH232533   3.450   0.158  11.962 -0.1838  0.2556  0.1877
 3681TIP3    H132534   3.388   0.196  12.024  0.9340  1.9210  0.3393
 3681TIP3    H232535   3.450   0.219  11.888  0.4876 -0.2892 -0.2692
 3682TIP3   OH232536   5.319   0.834  11.356  0.1999  0.2540  0.6401
 3682TIP3    H132537   5.316   0.903  11.290 -1.0816 -0.0703  0.3573
 3682TIP3    H232538   5.387   0.863  11.418 -0.6331  1.9807  0.7806
 3683TIP3   OH232539   6.158   6.894  11.977  0.5194  0.0980  0.1866
 3683TIP3    H132540   6.169   6.985  12.002  0.2638 -0.1761  1.3121
 3683TIP3    H232541   6.186   6.844  12.054  0.1189 -0.7685 -0.2194
 3684TIP3   OH232542   6.833   6.696  13.683 -0.5432  0.4764  0.1712
 3684TIP3    H132543   6.789   6.781  13.674 -0.3867  0.7443  1.7983
 3684TIP3    H232544   6.781   6.649  13.747  0.3874  0.0172  0.5912
 3685TIP3   OH232545   1.851   1.749  13.386  0.2759 -0.2423  0.3186
 3685TIP3    H132546   1.893   1.804  13.320  0.2807 -0.8042 -0.1509
 3685TIP3    H232547   1.830   1.668  13.340 -2.1394  0.3576  0.3138
 3686TIP3   OH232548   4.656   6.271  13.127  0.4160 -0.5170 -0.3191
 3686TIP3    H132549   4.682   6.248  13.038  2.9796  2.2783 -0.3746
 3686TIP3    H232550   4.705   6.210  13.183 -0.4925 -1.6623 -0.7375
 3687TIP3   OH232551   6.467   5.157  14.277  0.4026  0.0674  0.0071
 3687TIP3    H132552   6.515   5.145  14.194 -0.2552  0.7933 -0.4766
 3687TIP3    H232553   6.522   5.216  14.328 -0.2383  1.3522 -0.7722
 3688TIP3   OH232554   3.954   0.480  13.115  0.0761 -0.2144  0.5609
 3688TIP3    H132555   3.897   0.441  13.049  0.9260 -0.9860  0.2794
 3688TIP3    H232556   3.902   0.480  13.195 -0.4791 -0.4963  0.2056
 3689TIP3   OH232557   5.834   6.498  11.127  0.1029  1.1235  0.2501
 3689TIP3    H132558   5.748   6.541  11.132 -0.6870 -0.2737 -0.9235
 3689TIP3    H232559   5.815   6.405  11.143  1.2917  0.6963 -0.7610
 3690TIP3   OH232560   5.472   1.565  12.034 -0.1478  0.3084 -0.1546
 3690TIP3    H132561   5.543   1.617  12.072  0.2461  0.2928 -0.8693
 3690TIP3    H232562   5.460   1.493  12.096 -0.3898  0.9828  0.6074
 3691TIP3   OH232563   4.843   5.280  12.619  0.4353  0.4795 -0.1229
 3691TIP3    H132564   4.808   5.369  12.618 -0.8357 -0.0034 -1.8622
 3691TIP3    H232565   4.794   5.235  12.688 -2.3227 -0.1207 -2.3649
 3692TIP3   OH232566   3.249   1.850  12.917  0.0221 -0.6542  0.2220
 3692TIP3    H132567   3.189   1.783  12.950 -0.0669 -0.0310  1.3615
 3692TIP3    H232568   3.196   1.903  12.859 -0.4553 -0.3034  0.9722
 3693TIP3   OH232569   3.985   6.911  13.012  0.0183  0.4701 -0.2025
 3693TIP3    H132570   3.964   6.923  13.105 -0.0651  1.1742 -0.3081
 3693TIP3    H232571   3.923   6.967  12.966  1.1935  1.4866 -0.5929
 3694TIP3   OH232572   3.589   3.093  14.664  0.2348  0.2846 -0.5877
 3694TIP3    H132573   3.559   3.085  14.574 -0.3618 -2.0246 -0.2344
 3694TIP3    H232574   3.629   3.008  14.683 -1.5878 -0.0626  1.9745
 3695TIP3   OH232575   5.324   0.671  12.862 -0.5399  0.2368  0.4886
 3695TIP3    H132576   5.342   0.594  12.917  0.3839  1.1183  1.4423
 3695TIP3    H232577   5.237   0.700  12.888 -0.3344  0.3151  1.0937
 3696TIP3   OH232578   3.819   1.535  15.002  0.4144 -0.9534  0.4089
 3696TIP3    H132579   3.803   1.441  14.989 -2.0539 -0.9316  2.9219
 3696TIP3    H232580   3.808   1.549  15.096 -2.3615  2.4133 -0.3172
 3697TIP3   OH232581   4.184   1.221  11.276  0.1069 -0.1206  0.5375
 3697TIP3    H132582   4.137   1.250  11.198 -0.2308  2.1817  1.5606
 3697TIP3    H232583   4.231   1.142  11.248  0.1636  0.7824 -2.0362
 3698TIP3   OH232584   4.558   0.040  14.201 -0.6296  0.3321  0.1153
 3698TIP3    H132585   4.576  -0.024  14.270 -2.2300 -0.3336 -0.0687
 3698TIP3    H232586   4.476   0.010  14.161  0.3052  0.6520 -2.1324
 3699TIP3   OH232587   0.349   7.102  13.043  0.3113 -0.3575 -0.4631
 3699TIP3    H132588   0.285   7.035  13.068  0.8692 -1.0298 -0.8145
 3699TIP3    H232589   0.329   7.122  12.952 -1.8462  2.2368  0.5157
 3700TIP3   OH232590   5.629   7.025  12.120  0.2013  0.2296  0.7087
 3700TIP3    H132591   5.563   7.057  12.182 -1.6283  0.5891 -1.3614
 3700TIP3    H232592   5.695   6.982  12.175 -3.0863 -2.5036  2.7010
 3701TIP3   OH232593   4.998   6.736  13.358 -0.0041 -0.3987  0.0808
 3701TIP3    H132594   5.019   6.744  13.265  0.1425 -0.2230  0.1283
 3701TIP3    H232595   5.083   6.741  13.403 -0.2958  2.5398  0.4291
 3702TIP3   OH232596   5.470   0.502  11.003  0.7099  0.2212  0.6046
 3702TIP3    H132597   5.498   0.560  11.073 -1.3108  1.7758  0.1630
 3702TIP3    H232598   5.385   0.469  11.031 -0.0430  0.7311 -1.0100
 3703TIP3   OH232599   4.605   1.595  13.829 -0.1118  0.1188 -0.5447
 3703TIP3    H132600   4.619   1.679  13.872 -1.0979  0.2343 -0.4414
 3703TIP3    H232601   4.573   1.617  13.741 -1.0160 -0.1524 -0.2889
 3704TIP3   OH232602   7.337   5.707  14.353  0.0678 -0.1403 -0.0499
 3704TIP3    H132603   7.344   5.622  14.309 -2.4163 -0.8583  0.8200
 3704TIP3    H232604   7.346   5.685  14.446 -3.1862  0.1318  0.3799
 3705TIP3   OH232605   1.965   6.573  11.506  0.2369  0.6449  0.5481
 3705TIP3    H132606   2.044   6.559  11.454  0.4146  0.2023  0.9340
 3705TIP3    H232607   1.975   6.662  11.540 -0.6397  1.5411 -1.4591
 3706TIP3   OH232608   3.514   1.769  14.495 -0.3574  0.2542  0.0589
 3706TIP3    H132609   3.452   1.698  14.510 -0.4660 -0.1752 -2.2258
 3706TIP3    H232610   3.463   1.836  14.449  0.5276  0.4816 -0.6006
 3707TIP3   OH232611   2.797   1.327  15.779 -0.5125  0.2003 -0.2412
 3707TIP3    H132612   2.811   1.381  15.856 -0.3762  0.0553 -0.1625
 3707TIP3    H232613   2.707   1.295  15.787  0.6242 -2.6700  1.6798
 3708TIP3   OH232614   5.422   0.450  14.151 -0.7733  0.7799  0.2222
 3708TIP3    H132615   5.349   0.511  14.158 -0.9374  0.4781  1.2066
 3708TIP3    H232616   5.498   0.499  14.180 -0.5383  1.1504 -0.9771
 3709TIP3   OH232617   3.334   0.544   0.313  0.2217 -0.0745 -0.4551
 3709TIP3    H132618   3.242   0.532   0.336  0.3256 -3.7542 -1.5731
 3709TIP3    H232619   3.336   0.626   0.265 -2.8229 -0.7445 -1.8685
 3710TIP3   OH232620   2.805   0.580  13.365  0.3100  0.1363 -0.5140
 3710TIP3    H132621   2.862   0.591  13.289  0.4996 -1.0636 -0.5490
 3710TIP3    H232622   2.758   0.663  13.372 -1.1320 -0.4459 -3.1095
 3711TIP3   OH232623   2.852   7.000  10.224 -0.1498  0.4974 -0.1187
 3711TIP3    H132624   2.873   6.945  10.300  1.4423  2.1285  0.6744
 3711TIP3    H232625   2.791   6.948  10.172  0.6257 -1.6453  1.0601
 3712TIP3   OH232626   5.631   6.747  12.808 -0.8083 -0.2685 -0.4647
 3712TIP3    H132627   5.658   6.783  12.723  0.8342 -1.9539 -0.6796
 3712TIP3    H232628   5.711   6.745  12.859 -1.4653 -0.9014  0.5465
 3713TIP3   OH232629   5.358   5.511  10.899 -0.1072  0.2886  0.0308
 3713TIP3    H132630   5.371   5.578  10.831  0.8214  0.0176 -0.0699
 3713TIP3    H232631   5.347   5.560  10.980  1.2769  0.5509  0.0661
 3714TIP3   OH232632   4.310   1.805  15.934  0.1748  0.0783 -0.1176
 3714TIP3    H132633   4.338   1.895  15.950  1.1816 -0.0516 -1.0923
 3714TIP3    H232634   4.295   1.801  15.839  1.1095 -1.0505 -0.2233
 3715TIP3   OH232635   4.528   1.893  12.086 -1.1960 -0.5480  0.1695
 3715TIP3    H132636   4.460   1.934  12.140 -1.3650 -1.5715  0.7522
 3715TIP3    H232637   4.610   1.920  12.126 -1.3094 -0.8715  0.6236
 3716TIP3   OH232638   6.354   6.098  13.409  0.2193 -0.5981  0.4877
 3716TIP3    H132639   6.442   6.132  13.425  0.6389 -0.5604 -1.7345
 3716TIP3    H232640   6.323   6.070  13.495  0.7292  3.2953  2.0123
 3717TIP3   OH232641   4.642   6.826  13.001 -0.0158  0.5711 -0.6477
 3717TIP3    H132642   4.707   6.893  12.978 -1.8966  2.9717  0.7849
 3717TIP3    H232643   4.559   6.861  12.969 -0.8301 -1.8191 -1.2308
 3718TIP3   OH232644   4.104   1.716  15.330 -0.1471 -0.4086 -0.3216
 3718TIP3    H132645   4.088   1.806  15.301  1.7188  0.4750  1.2906
 3718TIP3    H232646   4.197   1.713  15.350 -0.7987 -1.7934  2.7852
 3719TIP3   OH232647   5.205   0.752  10.920 -0.1661  0.0168  0.2480
 3719TIP3    H132648   5.183   0.845  10.910  1.0534  0.2707 -0.1019
 3719TIP3    H232649   5.189   0.714  10.833 -1.4529 -0.2759  0.6044
 3720TIP3   OH232650   4.142   0.797  13.990 -0.3116  0.4550  0.1225
 3720TIP3    H132651   4.143   0.891  14.006 -0.9410  0.4883 -0.0559
 3720TIP3    H232652   4.227   0.779  13.949 -0.5942  1.1013 -0.7550
 3721TIP3   OH232653   4.186   1.713  12.401  0.1560  0.7613 -0.1823
 3721TIP3    H132654   4.128   1.720  12.325 -0.4482  1.2229  0.3068
 3721TIP3    H232655   4.266   1.674  12.367 -0.7083 -0.5718 -0.7369
 3722TIP3   OH232656   4.068   1.510  14.018  0.0629 -0.8359  0.7072
 3722TIP3    H132657   4.122   1.582  14.050 -0.8931  1.4621 -2.5943
 3722TIP3    H232658   4.127   1.458  13.963 -0.5224  0.5080 -1.2341
 3723TIP3   OH232659   4.332   3.576  11.267 -0.3572 -0.2932 -0.3473
 3723TIP3    H132660   4.300   3.486  11.260  0.1000 -0.4051 -1.0053
 3723TIP3    H232661   4.274   3.627  11.211  0.2171 -0.3952 -1.0389
 3724TIP3   OH232662   5.404   7.152  12.246 -1.0090  0.2849 -0.0412
 3724TIP3    H132663   5.415   7.212  12.320  2.0504 -0.4860  0.1607
 3724TIP3    H232664   5.310   7.134  12.245 -1.2307  0.8691  3.2302
 3725TIP3   OH232665   2.226   3.023  10.639 -0.2186  0.5632  0.1023
 3725TIP3    H132666   2.253   2.949  10.694 -1.5750  1.5748  2.1982
 3725TIP3    H232667   2.138   3.000  10.609 -0.6216  1.2963  0.7160
 3726TIP3   OH232668   4.319   1.653   9.983  0.6010  0.3301 -0.4278
 3726TIP3    H132669   4.251   1.588  10.002  0.9106  0.2281  0.3592
 3726TIP3    H232670   4.355   1.626   9.898 -1.2696  1.1933 -1.5219
 3727TIP3   OH232671   3.347   2.983  10.923 -0.0774  0.2431 -0.4311
 3727TIP3    H132672   3.327   2.911  10.863 -1.6172  1.1775 -1.0601
 3727TIP3    H232673   3.349   2.942  11.010 -0.8324 -0.5755 -0.7940
 3728TIP3   OH232674   4.671   0.861  13.127  0.3449  0.0431  0.8660
 3728TIP3    H132675   4.748   0.816  13.090 -0.0535  0.1983 -0.1709
 3728TIP3    H232676   4.603   0.851  13.060 -0.6044 -0.2505  1.8536
 3729TIP3   OH232677   3.575   3.130  12.678  0.6799  0.3783  0.0481
 3729TIP3    H132678   3.592   3.138  12.584  1.4121  0.5482  0.1933
 3729TIP3    H232679   3.582   3.037  12.696  0.8111  0.3758 -0.0160
 3730TIP3   OH232680   5.379   2.142  11.142 -0.4261  0.0838 -0.5011
 3730TIP3    H132681   5.442   2.214  11.138 -0.4696  0.1166 -0.5799
 3730TIP3    H232682   5.294   2.184  11.147 -0.3813  0.0590  0.7946
 3731TIP3   OH232683   4.699   1.461  12.110  0.2105 -0.3687  0.1493
 3731TIP3    H132684   4.708   1.512  12.029 -0.7605  0.7872  0.7564
 3731TIP3    H232685   4.776   1.485  12.162  0.8288 -1.1022 -0.4254
 3732TIP3   OH232686   0.081   3.128  12.297  0.2492 -0.2107 -0.2103
 3732TIP3    H132687   0.022   3.100  12.368 -0.4029  2.5338  0.3849
 3732TIP3    H232688   0.037   3.101  12.217 -1.0851  0.4802  0.2859
 3733TIP3   OH232689   6.051   0.469  12.348  0.1255  0.3553 -0.5487
 3733TIP3    H132690   6.047   0.536  12.416 -1.8511 -0.4229  0.1414
 3733TIP3    H232691   6.088   0.392  12.392  0.4986  0.3868 -0.8089
 3734TIP3   OH232692   3.070   1.625  13.275 -0.0840 -0.6843  0.3410
 3734TIP3    H132693   2.987   1.580  13.263 -0.5393  0.3641 -0.4625
 3734TIP3    H232694   3.085   1.623  13.369 -0.8304 -1.2230  0.4497
 3735TIP3   OH232695   3.715   1.490  13.211  0.0170  0.1926 -0.3570
 3735TIP3    H132696   3.631   1.449  13.228 -0.8508  1.7659 -0.7729
 3735TIP3    H232697   3.713   1.511  13.117  1.0571 -0.1755 -0.4686
 3736TIP3   OH232698   6.198   0.537  11.857  0.1690 -0.2616  0.1921
 3736TIP3    H132699   6.152   0.520  11.939  1.8716 -1.4843  0.9257
 3736TIP3    H232700   6.129   0.559  11.795 -1.2178 -0.0854  1.7483
 3737TIP3   OH232701   4.309   1.260  12.921  0.3746  0.4842 -0.3164
 3737TIP3    H132702   4.231   1.240  12.972  0.1129  1.3967 -0.3490
 3737TIP3    H232703   4.381   1.255  12.984 -0.1197  3.1131  0.5093
 3738TIP3   OH232704   2.613   2.970  13.375 -0.0282  0.6653 -0.1044
 3738TIP3    H132705   2.541   2.974  13.438  1.9362  0.4942  2.2235
 3738TIP3    H232706   2.652   2.883  13.388  0.1686  0.4680 -1.8592
 3739TIP3   OH232707   3.087   0.403  12.268  0.4173  0.1277  0.2743
 3739TIP3    H132708   3.029   0.372  12.199 -0.8952 -1.3343  1.9712
 3739TIP3    H232709   3.171   0.362  12.250 -0.1172 -0.8468 -0.0269
 3740TIP3   OH232710   5.981   6.158  13.509  0.6501  0.6934 -0.5626
 3740TIP3    H132711   5.974   6.251  13.489  1.3746  0.9033  0.0787
 3740TIP3    H232712   6.040   6.123  13.442  0.6191  0.7669 -0.6268
 3741TIP3   OH232713   6.309   0.312  12.307 -0.3581 -0.6578  0.1202
 3741TIP3    H132714   6.395   0.273  12.296  0.3411 -0.2039  3.6689
 3741TIP3    H232715   6.324   0.406  12.301 -1.2023 -0.6547 -2.7914
 3742TIP3   OH232716   4.536   1.988  13.276 -0.7719  0.1525  0.2460
 3742TIP3    H132717   4.530   1.946  13.190  0.1530 -2.3153  1.3479
 3742TIP3    H232718   4.446   2.011  13.298 -1.2458 -0.9066 -0.5715
 3743TIP3   OH232719   0.080   0.632  11.326  0.2705 -0.0216 -0.1196
 3743TIP3    H132720   0.059   0.544  11.359  0.0371  0.2804  0.5497
 3743TIP3    H232721   0.084   0.622  11.231  1.3213 -0.9955  0.0105
 3744TIP3   OH232722   2.860   2.008  13.901 -0.1798  0.3975  0.0311
 3744TIP3    H132723   2.833   1.933  13.848 -2.6655  1.0389  0.2967
 3744TIP3    H232724   2.853   1.978  13.992  3.3595 -0.4707  0.0758
 3745TIP3   OH232725   5.889   6.272  13.794 -0.9873  0.0311 -0.2951
 3745TIP3    H132726   5.869   6.229  13.711  1.8490  1.9710 -2.0480
 3745TIP3    H232727   5.905   6.200  13.855 -2.5184 -1.4046 -1.5241
 3746TIP3   OH232728   3.476   0.463  13.025  0.1534  0.8603 -0.2834
 3746TIP3    H132729   3.524   0.435  13.103 -1.5738  1.6274  1.1116
 3746TIP3    H232730   3.442   0.382  12.987  1.5707  0.4195 -0.6389
 3747TIP3   OH232731   4.287   2.254   9.961  0.6423  0.9729 -0.2684
 3747TIP3    H132732   4.208   2.287   9.918  0.6912  0.9756 -0.3565
 3747TIP3    H232733   4.359   2.300   9.917  0.7377  0.4200 -0.6967
 3748TIP3   OH232734   5.086   0.134  12.429  1.2682 -0.3164 -0.0722
 3748TIP3    H132735   5.079   0.229  12.429 -2.7563 -0.5176  0.3190
 3748TIP3    H232736   5.130   0.113  12.512 -2.5300  1.0476  2.4397
 3749TIP3   OH232737   6.267   5.149  13.907 -0.8377 -0.7898  0.1175
 3749TIP3    H132738   6.350   5.193  13.889 -0.8498 -1.3247 -1.3514
 3749TIP3    H232739   6.257   5.154  14.002  0.6151 -0.2630  0.2549
 3750TIP3   OH232740   5.007   3.921  12.279 -0.1063  0.3123 -0.4743
 3750TIP3    H132741   4.995   4.016  12.277  0.2060  0.4476  1.8992
 3750TIP3    H232742   4.932   3.889  12.329 -1.5299 -0.9816 -3.3298
 3751TIP3   OH232743   3.378   6.456  12.104  0.1816 -0.0176 -0.0642
 3751TIP3    H132744   3.409   6.382  12.052 -0.1152  0.0044 -0.2717
 3751TIP3    H232745   3.454   6.515  12.109 -0.2451  0.7460 -1.8604
 3752TIP3   OH232746   3.647   1.088  13.008  0.2531 -0.7459 -0.3620
 3752TIP3    H132747   3.727   1.037  13.021  0.6515 -0.2403 -0.7945
 3752TIP3    H232748   3.677   1.179  13.008 -0.2597 -0.5737 -1.0320
 3753TIP3   OH232749   2.983   1.261  11.987  0.2692  0.0931 -0.1215
 3753TIP3    H132750   2.969   1.313  11.909  0.2497 -0.8395 -0.7499
 3753TIP3    H232751   2.896   1.252  12.026  0.3186  0.7730  0.1566
 3754TIP3   OH232752   5.135   0.386  10.687  0.5574  0.3238  0.4367
 3754TIP3    H132753   5.133   0.298  10.726 -0.3817  0.1307 -0.0290
 3754TIP3    H232754   5.218   0.424  10.716  1.1836 -0.8948  0.2567
 3755TIP3   OH232755   4.309   3.699  15.545 -0.2268  0.1475  0.5131
 3755TIP3    H132756   4.385   3.687  15.489 -0.7542  0.2892 -0.2472
 3755TIP3    H232757   4.321   3.636  15.616 -0.6741 -1.6545 -0.9683
 3756TIP3   OH232758   4.805   2.071  12.993 -0.2097 -0.1521  0.7694
 3756TIP3    H132759   4.885   2.096  12.947  0.2877 -0.0355  1.6910
 3756TIP3    H232760   4.835   2.011  13.061 -0.6639  1.4644  2.4083
 3757TIP3   OH232761   6.641   0.841  11.951  0.1068  0.1622  0.0943
 3757TIP3    H132762   6.595   0.924  11.941 -0.9174 -0.2336  1.3326
 3757TIP3    H232763   6.571   0.776  11.957  0.8941 -1.0341 -2.6119
 3758TIP3   OH232764   5.387   7.055  12.802 -0.0069  0.4620  0.3833
 3758TIP3    H132765   5.405   7.049  12.709  0.5564 -0.0648  0.5241
 3758TIP3    H232766   5.381   6.964  12.831 -1.1332  0.6239  0.6798
 3759TIP3   OH232767   6.805   2.242  10.822  0.2299 -0.5814 -0.2044
 3759TIP3    H132768   6.814   2.334  10.799 -1.8141 -0.4233 -0.4654
 3759TIP3    H232769   6.781   2.199  10.740 -0.2785 -1.0998  0.2127
 3760TIP3   OH232770   4.621   0.472  12.522  0.1098 -0.5372 -0.7187
 3760TIP3    H132771   4.547   0.442  12.470 -0.4091  2.5410 -1.9132
 3760TIP3    H232772   4.585   0.488  12.609 -0.7024  1.0885 -1.3328
 3761TIP3   OH232773   3.860   1.464  10.833 -0.4264 -0.9186  0.0024
 3761TIP3    H132774   3.880   1.494  10.744  0.9829 -2.2696 -0.1629
 3761TIP3    H232775   3.811   1.382  10.820  0.2673 -1.4141  0.4549
 3762TIP3   OH232776   4.418   1.035  14.332  0.2712 -0.2541  0.3296
 3762TIP3    H132777   4.414   1.121  14.289 -2.5332  1.5568  3.8649
 3762TIP3    H232778   4.494   1.041  14.389 -0.4169  0.2274  1.2055
 3763TIP3   OH232779   6.595   7.228  11.487 -0.0071  0.0386 -0.9453
 3763TIP3    H132780   6.665   7.293  11.474  0.6191  0.0277  1.9501
 3763TIP3    H232781   6.518   7.267  11.445  1.0811  1.3192 -1.8023
 3764TIP3   OH232782   4.951   1.134  12.003 -0.7691  0.0268  0.2224
 3764TIP3    H132783   4.935   1.141  11.909 -0.2533  0.1536  0.1425
 3764TIP3    H232784   4.950   1.039  12.021 -0.8410  0.0024  0.0891
 3765TIP3   OH232785   3.402   0.382  12.699  0.4053 -0.5053  0.2534
 3765TIP3    H132786   3.420   0.361  12.791 -0.0250 -1.1650  0.1908
 3765TIP3    H232787   3.344   0.312  12.670 -2.7829  1.8564  0.6348
 3766TIP3   OH232788   6.488   7.109  13.222 -0.1813  0.4579 -0.0056
 3766TIP3    H132789   6.583   7.103  13.211 -0.1664  1.0111 -0.2038
 3766TIP3    H232790   6.475   7.195  13.264 -0.6320  0.6143 -0.4592
 3767TIP3   OH232791   5.258   6.282  13.112 -0.1429  0.3323  0.9079
 3767TIP3    H132792   5.287   6.251  13.026 -0.5975  0.8319  0.5694
 3767TIP3    H232793   5.185   6.225  13.135 -0.8723  1.0418  0.3610
 3768TIP3   OH232794   5.382   2.578  10.290 -0.0135 -0.4494 -0.3696
 3768TIP3    H132795   5.380   2.669  10.317 -0.8187  0.0824 -2.1386
 3768TIP3    H232796   5.466   2.567  10.245  0.5657 -0.8770  0.8018
 3769TIP3   OH232797   0.283   6.238  13.388  0.0499 -0.4873  0.1412
 3769TIP3    H132798   0.261   6.147  13.371  0.0452 -0.7406  1.5058
 3769TIP3    H232799   0.351   6.259  13.323 -0.4323 -1.2515 -0.6147
 3770TIP3   OH232800   4.486   0.838  10.982  0.0955  0.5824 -0.1217
 3770TIP3    H132801   4.579   0.858  10.985  0.2990  0.1335 -2.4147
 3770TIP3    H232802   4.482   0.744  10.965 -0.7736  0.6344 -0.2474
 3771TIP3   OH232803   5.970   1.709  11.838 -0.0417  0.0426 -0.0125
 3771TIP3    H132804   5.985   1.648  11.766 -1.9532  1.5432 -1.7554
 3771TIP3    H232805   6.033   1.780  11.822  0.4018 -0.2365  0.5134
 3772TIP3   OH232806   5.500   1.398  10.803 -0.3818 -0.1658 -0.3842
 3772TIP3    H132807   5.447   1.321  10.784 -0.0877 -0.2620 -0.8126
 3772TIP3    H232808   5.441   1.472  10.790 -0.2232 -0.2341 -1.5364
 3773TIP3   OH232809   2.125   3.384  14.693  0.1364  0.1797  0.1521
 3773TIP3    H132810   2.132   3.317  14.626 -1.3200  0.9041 -0.7348
 3773TIP3    H232811   2.214   3.420  14.699 -0.0076  1.0429 -2.3702
 3774TIP3   OH232812   3.704   2.837  13.852 -0.1595 -0.1330  0.0774
 3774TIP3    H132813   3.770   2.791  13.800 -1.0936 -0.5134 -0.8039
 3774TIP3    H232814   3.655   2.888  13.787 -0.6991  0.1836  0.7267
 3775TIP3   OH232815   4.716   6.708  12.340 -0.1785  0.5826 -0.5028
 3775TIP3    H132816   4.734   6.639  12.404 -0.5846  2.4416  1.6929
 3775TIP3    H232817   4.746   6.672  12.257 -0.9767 -2.4857  0.4575
 3776TIP3   OH232818   4.246   1.958  13.813 -0.5354  0.3295  0.4858
 3776TIP3    H132819   4.162   1.951  13.769 -0.5572 -1.9169  0.8377
 3776TIP3    H232820   4.225   1.986  13.902 -0.7945  1.0419  0.2032
 3777TIP3   OH232821   6.239   6.425  12.481  0.8194 -0.5909 -0.3084
 3777TIP3    H132822   6.237   6.333  12.453 -0.0079 -0.7098  0.1367
 3777TIP3    H232823   6.157   6.438  12.528  0.1054  0.8727 -1.9058
 3778TIP3   OH232824   4.261   2.499   0.870 -0.0078  0.5797  0.0804
 3778TIP3    H132825   4.277   2.573   0.929 -0.9260  0.5219  0.4136
 3778TIP3    H232826   4.246   2.424   0.929  1.1659  0.0650 -0.2536
 3779TIP3   OH232827   3.551   2.310  14.862 -0.7324  0.4929 -0.0158
 3779TIP3    H132828   3.609   2.363  14.916  0.3104  0.5779 -1.2050
 3779TIP3    H232829   3.468   2.359  14.862 -0.1690  1.4638 -0.0362
 3780TIP3   OH232830   3.960   0.345  13.651  0.0768 -0.0633 -0.0376
 3780TIP3    H132831   3.905   0.378  13.722  0.5035  0.6046 -0.0114
 3780TIP3    H232832   4.030   0.409  13.643  0.6418 -0.7112 -0.3293
 3781TIP3   OH232833   4.851   7.259  13.609  0.6642  0.3807  0.1458
 3781TIP3    H132834   4.811   7.323  13.667  0.2367 -0.3948  0.7190
 3781TIP3    H232835   4.778   7.224  13.557  0.6052 -0.9403  1.1008
 3782TIP3   OH232836   4.882   0.378  12.521  0.0512  0.1983 -0.3489
 3782TIP3    H132837   4.793   0.413  12.517 -0.0130  0.3225  1.4351
 3782TIP3    H232838   4.875   0.299  12.576  0.9896  0.0685 -0.3922
 3783TIP3   OH232839   4.431   5.415  12.596 -0.5154  0.4042 -0.3355
 3783TIP3    H132840   4.473   5.409  12.510 -2.7954 -0.1202 -1.4551
 3783TIP3    H232841   4.402   5.325  12.615  1.0449  0.2756  1.5571
 3784TIP3   OH232842   4.422   0.957  13.260  0.1614  0.0568 -0.2028
 3784TIP3    H132843   4.387   0.954  13.171  0.6801  1.6872 -0.4875
 3784TIP3    H232844   4.493   1.022  13.255  0.0562  0.3100  1.4416
 3785TIP3   OH232845   3.534   2.208  11.765 -0.5559 -0.7509  0.0112
 3785TIP3    H132846   3.445   2.186  11.737 -0.4561  0.0286 -0.9739
 3785TIP3    H232847   3.578   2.236  11.684  0.0033  0.7192  0.7987
 3786TIP3   OH232848   2.601   1.201  11.682 -0.3245  1.0637 -0.3945
 3786TIP3    H132849   2.540   1.162  11.618 -0.3217 -0.6922  0.6442
 3786TIP3    H232850   2.675   1.230  11.630  0.5278 -2.0533 -1.0271
 3787TIP3   OH232851   3.463   7.271  11.558  0.3328  0.7355 -0.0962
 3787TIP3    H132852   3.495   7.361  11.552 -2.0121  1.5354 -1.1545
 3787TIP3    H232853   3.458   7.254  11.652 -1.4113  2.5794  0.2001
 3788TIP3   OH232854   6.382   0.614  11.243 -0.1134  0.6692 -0.1453
 3788TIP3    H132855   6.375   0.621  11.338  0.9559  0.6499 -0.0557
 3788TIP3    H232856   6.388   0.705  11.213 -1.1004  0.7061 -0.2588
 3789TIP3   OH232857   3.760   0.096  12.817 -0.5435 -0.7870 -0.2315
 3789TIP3    H132858   3.819   0.093  12.892 -1.3249  0.4879  0.4590
 3789TIP3    H232859   3.720   0.183  12.822 -1.1835 -0.9848 -1.6839
 3790TIP3   OH232860   7.127   1.050  13.130  0.3842 -0.0517  0.5166
 3790TIP3    H132861   7.187   1.075  13.060 -0.3367  1.1426  0.2986
 3790TIP3    H232862   7.180   1.050  13.210  0.5340  1.6565  0.4295
 3791TIP3   OH232863   0.147   1.174  10.370 -0.0627 -0.1001  0.3462
 3791TIP3    H132864   0.085   1.110  10.336  0.1463 -0.7499  1.1828
 3791TIP3    H232865   0.205   1.193  10.296 -1.3260  0.6200 -0.4879
 3792TIP3   OH232866   3.993   2.686  13.137  0.1067 -0.4896  0.2693
 3792TIP3    H132867   3.990   2.771  13.182 -1.1389  0.4714 -1.5608
 3792TIP3    H232868   4.022   2.707  13.049  2.5789 -2.3585  0.5855
 3793TIP3   OH232869   4.981   3.046  11.833 -0.6428  0.0767  0.3297
 3793TIP3    H132870   4.996   3.132  11.795  0.5578 -0.3402 -0.1629
 3793TIP3    H232871   4.930   3.063  11.912 -0.6624  1.2058  0.0832
 3794TIP3   OH232872   5.378   6.773  12.912  0.2854  1.0325 -0.0307
 3794TIP3    H132873   5.372   6.711  12.985 -0.1649  0.6238 -0.4127
 3794TIP3    H232874   5.465   6.759  12.875  0.8655  1.8561  0.9727
 3795TIP3   OH232875   6.436   0.376  12.595 -0.1695 -0.1788  0.3110
 3795TIP3    H132876   6.370   0.355  12.661  2.2584 -0.6205  2.6857
 3795TIP3    H232877   6.449   0.470  12.603 -0.4198 -0.1116 -0.0713
 3796TIP3   OH232878   6.095   6.071  11.985  1.0836  0.2081 -0.3336
 3796TIP3    H132879   6.050   6.156  11.993  0.8539 -0.0402  1.1708
 3796TIP3    H232880   6.026   6.011  11.955  1.1997  0.4986 -1.2060
 3797TIP3   OH232881   3.285   1.394  11.877 -0.3065 -0.4467  0.5362
 3797TIP3    H132882   3.368   1.347  11.886  0.6239  1.1123  0.2124
 3797TIP3    H232883   3.237   1.373  11.958  1.5996  0.9298  2.0892
 3798TIP3   OH232884   4.344   0.040  12.059  0.2138 -0.0147 -0.0006
 3798TIP3    H132885   4.394  -0.016  11.999  1.1978 -0.0126  0.7932
 3798TIP3    H232886   4.277  -0.017  12.095  1.2100 -0.6844  0.8008
 3799TIP3   OH232887   0.375   4.307  13.998 -0.4062  0.0583 -0.3511
 3799TIP3    H132888   0.444   4.255  13.957  1.7124  1.6645  1.0359
 3799TIP3    H232889   0.420   4.386  14.029 -3.1924  1.9865 -0.9615
 3800TIP3   OH232890   7.156   7.168  14.065 -0.1222 -0.3248 -0.6231
 3800TIP3    H132891   7.100   7.246  14.065 -0.7951 -0.8043 -0.0520
 3800TIP3    H232892   7.227   7.190  14.004  1.8728  2.3183  2.4421
 3801TIP3   OH232893   5.333   0.215  11.267  0.1728 -0.4041 -0.1723
 3801TIP3    H132894   5.273   0.291  11.266  0.0333 -0.4833  1.2084
 3801TIP3    H232895   5.417   0.251  11.239 -0.2249 -0.0408 -0.9397
 3802TIP3   OH232896   4.524   7.167  13.053 -0.3946  0.6901 -0.4595
 3802TIP3    H132897   4.486   7.239  13.104 -0.0188  2.0541 -2.0747
 3802TIP3    H232898   4.612   7.155  13.089 -1.4192 -0.8450  1.6556
 3803TIP3   OH232899   1.400   0.983  11.809 -0.0810 -0.9269 -0.0724
 3803TIP3    H132900   1.430   0.963  11.898  0.3749  0.4541  0.1086
 3803TIP3    H232901   1.457   0.931  11.753  0.0105 -1.3740  0.4256
 3804TIP3   OH232902   5.958   6.711  11.319  0.1581  0.2030  0.1243
 3804TIP3    H132903   5.893   6.766  11.362  0.2998 -0.2911  0.9794
 3804TIP3    H232904   5.948   6.731  11.225 -3.9493 -2.7676 -0.1753
 3805TIP3   OH232905   2.742   1.837  13.481 -0.2694  0.0160 -0.5674
 3805TIP3    H132906   2.649   1.818  13.494 -0.1166 -1.2760 -1.2647
 3805TIP3    H232907   2.772   1.870  13.565 -1.3587  0.4531 -0.3397
 3806TIP3   OH232908   5.915   6.231  15.096  0.2064  0.2428 -0.5749
 3806TIP3    H132909   5.939   6.237  15.188  2.3521  1.3318 -1.1694
 3806TIP3    H232910   5.847   6.164  15.093 -1.2902  1.5942  2.0510
 3807TIP3   OH232911   5.470   0.232  11.964 -0.2650  0.1203 -0.6128
 3807TIP3    H132912   5.400   0.246  12.028 -1.1864 -0.0471 -1.5627
 3807TIP3    H232913   5.483   0.137  11.963  0.6333  0.2306  0.2439
 3808TIP3   OH232914   3.415   2.364  11.431 -0.4668  0.1682 -0.0481
 3808TIP3    H132915   3.446   2.277  11.406 -1.4666 -0.7578  1.8609
 3808TIP3    H232916   3.387   2.404  11.349 -0.0568 -1.3368 -0.9354
 3809TIP3   OH232917   3.637   1.186  14.347  0.4443 -0.3401  0.1503
 3809TIP3    H132918   3.586   1.129  14.291  0.9781  0.3406 -1.0430
 3809TIP3    H232919   3.573   1.238  14.395 -0.1321 -3.3431  2.8093
 3810TIP3   OH232920   4.351   0.022  11.615 -0.9099 -0.1099 -0.5179
 3810TIP3    H132921   4.431  -0.017  11.580  0.2753  1.9813 -0.2459
 3810TIP3    H232922   4.366   0.117  11.609 -2.4478  0.3121  1.5869
 3811TIP3   OH232923   5.591   6.467  11.372  0.1396  0.4668 -0.4336
 3811TIP3    H132924   5.538   6.541  11.403 -2.4728 -0.5856 -2.2774
 3811TIP3    H232925   5.627   6.429  11.452  1.6968  3.8065  0.5631
 3812TIP3   OH232926   5.459   1.212  11.418 -0.1548  0.3093  0.0629
 3812TIP3    H132927   5.367   1.188  11.409 -0.6195  1.3370  1.9870
 3812TIP3    H232928   5.488   1.168  11.497  1.3337 -0.9077 -1.1240
 3813TIP3   OH232929   4.659   1.081  12.326  0.1673  0.3007  0.3174
 3813TIP3    H132930   4.668   1.142  12.399  0.6174  0.1495  0.3925
 3813TIP3    H232931   4.749   1.069  12.295 -0.3170  2.7467 -2.2258
 3814TIP3   OH232932   2.930   0.468  14.439  0.2988  0.2222 -0.3656
 3814TIP3    H132933   2.863   0.414  14.398  0.0026  1.1667 -1.1449
 3814TIP3    H232934   2.979   0.407  14.494 -1.2064 -0.4805  0.2403
 3815TIP3   OH232935   3.836   3.402  11.548 -0.2886  0.1899 -0.3894
 3815TIP3    H132936   3.808   3.399  11.457  2.0813 -0.4840 -1.1370
 3815TIP3    H232937   3.897   3.476  11.552  0.2428 -0.2853  0.4498
 3816TIP3   OH232938   7.094   0.816  11.957  0.4228  0.4642  0.0617
 3816TIP3    H132939   7.148   0.770  11.893  3.4352  1.1349  2.0401
 3816TIP3    H232940   7.106   0.908  11.937 -2.0588  0.5934 -1.0550
 3817TIP3   OH232941   3.821   0.341  15.580 -0.0882  0.3452  0.3560
 3817TIP3    H132942   3.730   0.327  15.605  0.2723 -0.4153  1.3231
 3817TIP3    H232943   3.839   0.275  15.514  0.6451 -1.6595  2.4759
 3818TIP3   OH232944   4.493   1.839  14.159 -0.2815 -0.1040  0.0578
 3818TIP3    H132945   4.440   1.815  14.235  1.7162  0.4346  1.6750
 3818TIP3    H232946   4.467   1.928  14.138  0.3108  0.3377  1.1573
 3819TIP3   OH232947   7.282   0.326  13.864 -0.0256 -0.3296  0.0110
 3819TIP3    H132948   7.259   0.234  13.873 -0.4061 -0.1358  1.0325
 3819TIP3    H232949   7.375   0.330  13.884 -0.4079 -0.2188  1.8221
 3820TIP3   OH232950   4.181   2.152  11.063  0.7021  0.3777 -0.3213
 3820TIP3    H132951   4.270   2.185  11.070  0.8581 -0.0320 -0.3820
 3820TIP3    H232952   4.126   2.230  11.068  1.0614  0.6258 -0.2477
 3821TIP3   OH232953   4.890   2.380  11.416  0.4777 -0.3596 -0.1028
 3821TIP3    H132954   4.797   2.372  11.397  0.5989 -1.3809 -0.3083
 3821TIP3    H232955   4.894   2.407  11.508 -0.0263 -0.0049 -0.1875
 3822TIP3   OH232956   4.006   1.680  13.375 -0.3998  0.4713  0.1486
 3822TIP3    H132957   4.091   1.713  13.347  0.3734 -1.6224 -0.0181
 3822TIP3    H232958   4.002   1.703  13.468  0.2609  0.7579  0.1135
 3823TIP3   OH232959   4.081   0.709  13.016  0.6606 -0.5418  0.1842
 3823TIP3    H132960   4.048   0.629  13.055 -1.3026  0.1590  0.0230
 3823TIP3    H232961   4.029   0.720  12.936 -0.1888  1.6962  1.0073
 3824TIP3   OH232962   4.664   2.583  15.002  0.3108  0.1290 -0.1310
 3824TIP3    H132963   4.734   2.645  14.985  0.9196 -0.4954  0.0871
 3824TIP3    H232964   4.703   2.517  15.058 -0.3257 -0.4668 -0.3811
 3825TIP3   OH232965   4.549   6.796  13.759  0.1901  0.3093  0.1734
 3825TIP3    H132966   4.534   6.891  13.763 -1.3090  0.0586  0.7128
 3825TIP3    H232967   4.470   6.761  13.719 -0.0408 -0.9064  1.6840
 3826TIP3   OH232968   4.779   6.363  11.571 -0.8447 -0.2569  0.8989
 3826TIP3    H132969   4.743   6.402  11.651 -1.5382 -2.1646  1.5473
 3826TIP3    H232970   4.806   6.275  11.598  2.6130  0.4784 -0.0264
 3827TIP3   OH232971   4.098   3.052  11.842 -0.3274  0.0131 -0.0394
 3827TIP3    H132972   4.004   3.058  11.862 -0.4250  2.2802 -1.0776
 3827TIP3    H232973   4.141   3.092  11.918 -0.2036 -0.6913  0.2660
 3828TIP3   OH232974   4.795   1.788  11.358 -0.0509 -0.0488  0.4684
 3828TIP3    H132975   4.755   1.849  11.419  0.4445  1.2764 -0.5094
 3828TIP3    H232976   4.722   1.753  11.307 -0.1355  1.3016 -0.3640
 3829TIP3   OH232977   4.426   6.894  11.255  0.0016  0.0508 -0.1175
 3829TIP3    H132978   4.426   6.828  11.324  1.0403 -0.1765 -0.3248
 3829TIP3    H232979   4.498   6.953  11.278  0.1233  0.1817 -0.8101
 3830TIP3   OH232980   3.682   0.194  12.197 -0.3632  0.1344 -0.5666
 3830TIP3    H132981   3.601   0.173  12.150  1.1575 -1.1506 -2.6983
 3830TIP3    H232982   3.730   0.251  12.136 -0.0884  1.7358  1.1050
 3831TIP3   OH232983   5.295   0.433  13.098  0.1283 -0.1769  0.4191
 3831TIP3    H132984   5.205   0.457  13.121  0.8036  0.6344  2.2537
 3831TIP3    H232985   5.338   0.415  13.182  1.3400 -1.8509 -0.5147
 3832TIP3   OH232986   5.406   5.477  11.676 -0.9831  0.1103  0.5402
 3832TIP3    H132987   5.408   5.511  11.586  2.6954  4.3607  2.0236
 3832TIP3    H232988   5.344   5.534  11.722  1.6469  1.9032  1.9815
 3833TIP3   OH232989   3.299   6.883  12.882  0.4932 -0.5345 -0.5564
 3833TIP3    H132990   3.212   6.922  12.869  0.9638  0.8296  0.2758
 3833TIP3    H232991   3.296   6.850  12.972  0.5772 -1.1676 -0.7871
 3834TIP3   OH232992   3.134   0.733  12.189 -0.0042 -0.4492  0.1906
 3834TIP3    H132993   3.139   0.707  12.280 -1.8494  0.7435  0.6437
 3834TIP3    H232994   3.042   0.727  12.166  0.1756  1.0796 -1.0526
 3835TIP3   OH232995   7.339   1.050  14.355 -0.3557 -0.0992  0.2396
 3835TIP3    H132996   7.372   0.990  14.289  2.0038  0.4290  0.8818
 3835TIP3    H232997   7.244   1.048  14.345 -0.1570 -1.9546 -1.4469
 3836TIP3   OH232998   6.141   2.310  10.196 -0.0635  0.0753  0.5037
 3836TIP3    H132999   6.185   2.283  10.115 -1.5092  0.8180 -0.5622
 3836TIP3    H233000   6.136   2.406  10.189 -1.4567  0.0222  0.8102
 3837TIP3   OH233001   3.138   1.139  13.404  0.0888 -0.4801 -0.6576
 3837TIP3    H133002   3.075   1.110  13.470  0.6694 -2.1579 -0.8186
 3837TIP3    H233003   3.086   1.187  13.340 -0.5890  0.5510  0.6263
 3838TIP3   OH233004   4.550   0.524  10.974  0.6041 -0.3016  0.2495
 3838TIP3    H133005   4.545   0.469  10.896  0.4783 -1.3429  0.9921
 3838TIP3    H233006   4.637   0.508  11.009  1.0167  0.8854 -0.1834
 3839TIP3   OH233007   5.390   2.649  12.389  0.0544 -0.1412  0.7341
 3839TIP3    H133008   5.412   2.724  12.444 -1.4925  0.9755 -0.1317
 3839TIP3    H233009   5.372   2.687  12.303  3.1294 -1.9309 -0.7967
 3840TIP3   OH233010   1.506   0.764  13.316 -0.0601 -0.0894  0.0027
 3840TIP3    H133011   1.507   0.672  13.339 -1.5844  0.4851  2.5200
 3840TIP3    H233012   1.537   0.809  13.395 -0.3901  1.6168 -0.8198
 3841TIP3   OH233013   2.735   1.049  13.395  0.0299  0.2169  0.3003
 3841TIP3    H133014   2.826   1.035  13.419 -0.3565 -3.4402 -0.0505
 3841TIP3    H233015   2.739   1.101  13.315  1.9016 -1.4634 -0.7405
 3842TIP3   OH233016   3.292   7.067  15.671 -0.0106  0.1377 -0.1733
 3842TIP3    H133017   3.219   7.063  15.608 -0.2111 -0.1987  0.0806
 3842TIP3    H233018   3.251   7.100  15.751  0.1477  0.0816 -0.0709
 3843TIP3   OH233019   4.765   2.589  10.505  0.1695  0.9295  0.3855
 3843TIP3    H133020   4.739   2.620  10.419  2.3284 -0.7862 -0.9386
 3843TIP3    H233021   4.711   2.511  10.520  0.6411  0.5338  0.0441
 3844TIP3   OH233022   3.855   1.014  14.621  0.2788  0.4429 -0.3351
 3844TIP3    H133023   3.870   1.107  14.608  1.8980  0.2608  0.1209
 3844TIP3    H233024   3.816   0.984  14.539 -1.1533  1.7014 -0.1247
 3845TIP3   OH233025   5.149   0.331  14.471  0.4473  0.0015 -0.6572
 3845TIP3    H133026   5.081   0.398  14.483 -0.7021 -1.3279  0.4112
 3845TIP3    H233027   5.191   0.324  14.556  0.5926 -0.6027 -0.7829
 3846TIP3   OH233028   5.929   6.437  12.637 -0.2175  0.0350 -0.2769
 3846TIP3    H133029   5.886   6.503  12.584  0.4225 -0.5172 -1.4969
 3846TIP3    H233030   5.985   6.487  12.697  1.2425  0.5810 -2.0508
 3847TIP3   OH233031   5.995   0.588  13.408  0.2479  0.1316  0.5795
 3847TIP3    H133032   6.027   0.554  13.324 -0.2699 -0.2431  0.5324
 3847TIP3    H233033   6.068   0.639  13.443  0.0216  1.3208 -0.6736
 3848TIP3   OH233034   0.611   0.915  15.812 -0.8312 -0.3738 -0.0758
 3848TIP3    H133035   0.616   0.850  15.882 -0.0627 -1.4983 -1.1606
 3848TIP3    H233036   0.518   0.935  15.804 -1.2035 -2.3095 -0.6230
 3849TIP3   OH233037   6.843   7.198  12.806 -0.0770  0.2358  0.3091
 3849TIP3    H133038   6.755   7.161  12.795 -0.3661  1.1371 -0.3582
 3849TIP3    H233039   6.854   7.258  12.733  1.9621 -1.5301 -0.8890
 3850TIP3   OH233040   4.523   1.780  11.296 -0.3068  0.1888 -0.2836
 3850TIP3    H133041   4.476   1.853  11.337 -0.9940 -0.2121 -0.3528
 3850TIP3    H233042   4.456   1.731  11.250  0.3252  0.1081 -1.1253
 3851TIP3   OH233043   4.923   6.579  10.354 -0.2319 -0.1440 -0.5476
 3851TIP3    H133044   4.963   6.533  10.428 -0.4589 -2.8919 -2.0705
 3851TIP3    H233045   4.976   6.555  10.279 -0.7160  1.6793 -1.5033
 3852TIP3   OH233046   5.889   3.394  12.129 -0.1621  0.4554  0.3907
 3852TIP3    H133047   5.978   3.370  12.103 -0.0864  0.2934  0.7859
 3852TIP3    H233048   5.832   3.336  12.079  0.0868 -1.8561  2.7229
 3853TIP3   OH233049   6.275   2.046  10.361  0.7663  0.1645 -0.2858
 3853TIP3    H133050   6.340   1.982  10.388  0.2434 -0.7635 -1.2112
 3853TIP3    H233051   6.215   1.998  10.304 -1.6997  0.6169  1.8600
 3854TIP3   OH233052   5.787   2.233   9.637 -0.0893 -0.6079 -0.4167
 3854TIP3    H133053   5.750   2.300   9.695 -1.8070 -0.7708 -1.3011
 3854TIP3    H233054   5.743   2.246   9.553  1.4672 -1.1839 -1.3575
 3855TIP3   OH233055   0.512   5.721  12.146  0.4092 -0.4251 -0.3649
 3855TIP3    H133056   0.552   5.803  12.175  0.5203 -0.6823  0.2202
 3855TIP3    H233057   0.548   5.655  12.205  1.0214 -1.0393 -1.4009
 3856TIP3   OH233058   7.160   6.724  15.160 -0.0402  0.1498  0.7533
 3856TIP3    H133059   7.080   6.713  15.212 -1.2950  1.9279 -0.7205
 3856TIP3    H233060   7.152   6.659  15.090 -0.5634  0.8030  0.1975
 3857TIP3   OH233061   0.237   6.378  11.367  0.7121 -0.1148  0.1307
 3857TIP3    H133062   0.281   6.366  11.452 -0.2828 -1.5861  0.4715
 3857TIP3    H233063   0.152   6.335  11.379  0.4498 -0.0615 -1.5286
 3858TIP3   OH233064   6.024   0.954  11.501  0.8238 -0.2279  0.7473
 3858TIP3    H133065   6.044   0.900  11.425  0.6117 -0.0867  0.5900
 3858TIP3    H233066   5.971   1.026  11.467  1.1208  0.0926  0.9490
 3859TIP3   OH233067   5.213   0.886  13.158  0.1086  0.3512  0.7169
 3859TIP3    H133068   5.195   0.885  13.064 -3.6207  2.5972  1.2748
 3859TIP3    H233069   5.188   0.798  13.188 -3.7255  1.1731  0.2838
 3860TIP3   OH233070   0.577   0.628  13.363 -0.1782  0.6330 -0.5370
 3860TIP3    H133071   0.617   0.707  13.326  0.5383  0.7741  0.5302
 3860TIP3    H233072   0.561   0.571  13.287  1.5842  0.7762 -1.0280
 3861TIP3   OH233073   0.813   2.310  12.839  0.3962 -0.3185 -0.4072
 3861TIP3    H133074   0.796   2.403  12.855  1.4037 -0.1469 -0.2606
 3861TIP3    H233075   0.760   2.288  12.762 -0.1595  0.2736 -0.1966
 3862TIP3   OH233076   5.471   1.655  12.983 -0.6094  0.3276  0.8472
 3862TIP3    H133077   5.476   1.591  12.913  0.6119 -0.4975  1.6609
 3862TIP3    H233078   5.442   1.736  12.940 -0.7639 -0.4026 -0.4320
 3863TIP3   OH233079   2.077   7.167  13.889 -0.6735  0.0091  0.5176
 3863TIP3    H133080   2.050   7.231  13.954 -0.4112  0.8518 -0.1924
 3863TIP3    H233081   2.117   7.219  13.819  0.9212 -1.0384  0.6197
 3864TIP3   OH233082   6.583   0.653  11.530 -0.6262 -0.1790 -0.1722
 3864TIP3    H133083   6.614   0.744  11.528 -1.4781  0.0961 -1.5315
 3864TIP3    H233084   6.637   0.608  11.464 -0.4390 -0.5856  0.2541
 3865TIP3   OH233085   6.267   0.930  11.668  0.3059 -0.1468  0.4654
 3865TIP3    H133086   6.186   0.940  11.718 -0.9812 -1.2257 -1.3584
 3865TIP3    H233087   6.238   0.919  11.578  2.5939  1.9488 -0.5913
 3866TIP3   OH233088   6.911   0.563  11.645  0.1667  0.5687 -0.0490
 3866TIP3    H133089   6.978   0.599  11.703  0.7919 -0.4051 -0.1517
 3866TIP3    H233090   6.922   0.612  11.563  2.3462 -1.1804 -0.8555
 3867TIP3   OH233091   6.003   7.103  13.378 -0.1025 -0.2223  0.0955
 3867TIP3    H133092   5.966   7.167  13.439 -0.0364 -0.5205  0.4521
 3867TIP3    H233093   6.093   7.091  13.407  0.0563 -0.0502 -0.3207
 3868TIP3   OH233094   0.853   6.776  13.384  0.2788  0.0461 -0.3769
 3868TIP3    H133095   0.810   6.860  13.400 -1.0420 -0.6364 -0.3091
 3868TIP3    H233096   0.943   6.790  13.414 -0.0059  1.3361 -0.0609
 3869TIP3   OH233097   0.493   5.222  14.865  0.4433  0.2510 -0.4413
 3869TIP3    H133098   0.459   5.300  14.821  0.2546  0.3554 -0.1059
 3869TIP3    H233099   0.422   5.194  14.922  0.7193  0.1567 -0.1454
 3870TIP3   OH233100   1.037   1.638  13.617  0.4965  0.0591 -0.1978
 3870TIP3    H133101   1.012   1.641  13.709 -0.2870 -0.6777 -0.3717
 3870TIP3    H233102   0.988   1.563  13.582  1.3545 -0.1134 -1.0396
 3871TIP3   OH233103   6.247   0.390  12.809 -0.6439 -0.2975  0.0068
 3871TIP3    H133104   6.239   0.466  12.866 -1.3028 -0.8270  0.6248
 3871TIP3    H233105   6.188   0.325  12.846  0.7105 -1.5008  0.1024
 3872TIP3   OH233106   2.363   1.500  12.888 -0.0422 -0.2153 -0.1901
 3872TIP3    H133107   2.353   1.495  12.983  0.1867  0.1417 -0.1442
 3872TIP3    H233108   2.358   1.594  12.868 -0.2423 -0.3020 -0.5462
 3873TIP3   OH233109   0.225   6.634  11.268 -0.0527  0.1342  0.0314
 3873TIP3    H133110   0.251   6.576  11.197  1.0871  0.5527  0.0882
 3873TIP3    H233111   0.207   6.576  11.342  1.6293 -0.1183  0.2528
 3874TIP3   OH233112   2.077   6.192  13.291  0.2675  0.0914  0.2186
 3874TIP3    H133113   2.011   6.261  13.278 -0.9684 -0.6850  2.2725
 3874TIP3    H233114   2.084   6.150  13.205 -1.8914  0.2105 -0.0441
 3875TIP3   OH233115   0.669   6.450  13.536  0.2129  0.5021  0.3032
 3875TIP3    H133116   0.758   6.440  13.503  0.0497 -0.4121  0.1381
 3875TIP3    H233117   0.615   6.452  13.457 -0.2377 -2.2407  0.4951
 3876TIP3   OH233118   1.226   1.296  11.204 -0.5859  0.1224 -0.0121
 3876TIP3    H133119   1.156   1.231  11.203  1.5887 -2.4062  2.7045
 3876TIP3    H233120   1.301   1.251  11.243  2.6666  2.6475 -2.9300
 3877TIP3   OH233121   7.031   0.127  12.302  0.0224 -0.5509 -0.0113
 3877TIP3    H133122   7.091   0.189  12.260 -1.8599  1.2079 -0.1841
 3877TIP3    H233123   7.013   0.061  12.235  1.1626 -0.6740 -0.2022
 3878TIP3   OH233124   6.319   6.407  13.999 -0.0498 -0.6122  0.4802
 3878TIP3    H133125   6.351   6.324  13.965  2.3527  0.0297  1.0632
 3878TIP3    H233126   6.267   6.384  14.076  1.5093 -1.5321  1.2771
 3879TIP3   OH233127   6.440   2.084  11.820  0.1953  0.3777 -0.1985
 3879TIP3    H133128   6.481   2.053  11.739  2.9110 -0.2774  1.3341
 3879TIP3    H233129   6.456   2.013  11.883  1.0192  2.2350  1.7534
 3880TIP3   OH233130   6.401   0.145  13.770 -0.3167 -0.3874  0.2303
 3880TIP3    H133131   6.329   0.199  13.803  0.7483 -0.7604  3.4214
 3880TIP3    H233132   6.474   0.206  13.760 -0.1173 -0.6019  0.3644
 3881TIP3   OH233133   0.070   1.001  10.928  0.5985 -0.2469 -0.1154
 3881TIP3    H133134   0.047   1.071  10.866  0.3019  1.1115  1.4823
 3881TIP3    H233135   0.030   1.028  11.010  0.6099 -2.2497  0.5732
 3882TIP3   OH233136   6.402   6.879  13.110  0.1609 -0.7616 -0.1767
 3882TIP3    H133137   6.425   6.967  13.139 -0.0014 -0.5955 -0.5480
 3882TIP3    H233138   6.337   6.849  13.174 -1.7217  0.3895 -1.4977
 3883TIP3   OH233139   1.466   1.987  11.606  0.5932 -0.0483  0.8377
 3883TIP3    H133140   1.478   2.082  11.613 -1.0976  0.1295  1.4292
 3883TIP3    H233141   1.471   1.956  11.696  3.0624 -0.7993  0.4966
 3884TIP3   OH233142   5.613   1.125  12.183 -0.1645 -0.9901  0.4128
 3884TIP3    H133143   5.689   1.075  12.152  0.3313  0.3066 -0.4695
 3884TIP3    H233144   5.641   1.216  12.181 -0.8419 -0.7052  2.6686
 3885TIP3   OH233145   6.603   0.436  14.503 -0.4783 -0.0480  0.1690
 3885TIP3    H133146   6.672   0.414  14.566  0.0281 -0.9251 -0.6720
 3885TIP3    H233147   6.534   0.372  14.520  0.0786 -0.9257 -0.8218
 3886TIP3   OH233148   0.875   0.407  10.941  0.0397  0.1117  0.1141
 3886TIP3    H133149   0.964   0.425  10.911 -0.4310  0.1102 -1.3375
 3886TIP3    H233150   0.838   0.348  10.874 -0.7610 -0.5862  1.1498
 3887TIP3   OH233151   5.735   0.534  10.142 -0.2240 -0.2647  0.3664
 3887TIP3    H133152   5.813   0.496  10.102  0.4248  1.0485  0.3517
 3887TIP3    H233153   5.757   0.627  10.154 -2.9553  0.8429 -2.5819
 3888TIP3   OH233154   6.962   0.487  12.133  0.4171  0.3577  0.0128
 3888TIP3    H133155   6.954   0.530  12.219  0.0555 -1.4243  0.9017
 3888TIP3    H233156   6.930   0.552  12.071 -0.9374  1.0727  1.4096
 3889TIP3   OH233157   6.079   5.021  12.769  0.0956 -0.6469 -0.3037
 3889TIP3    H133158   6.042   5.065  12.692  0.1621 -0.6275 -0.3244
 3889TIP3    H233159   6.002   4.992  12.819  0.0547 -0.8250 -0.4719
 3890TIP3   OH233160   6.017   1.980  15.497 -0.3410  0.7055  0.0549
 3890TIP3    H133161   5.928   1.998  15.466  0.1414  0.4534 -1.5156
 3890TIP3    H233162   6.006   1.959  15.589 -1.7220  2.3640  0.3078
 3891TIP3   OH233163   3.875   0.615  11.892  0.3140 -0.4407 -0.0912
 3891TIP3    H133164   3.804   0.644  11.834  0.3345  1.1681  0.6861
 3891TIP3    H233165   3.885   0.685  11.955  2.2109 -0.9317  0.1772
 3892TIP3   OH233166   5.557   1.841  13.185  0.1984  0.0754 -0.2637
 3892TIP3    H133167   5.531   1.788  13.110  1.3571  0.1968 -0.7629
 3892TIP3    H233168   5.579   1.927  13.148  2.6987 -0.4423 -0.0893
 3893TIP3   OH233169   6.017   2.135  10.758 -0.2369  0.5815 -0.5867
 3893TIP3    H133170   5.929   2.138  10.722 -0.1829 -0.3292 -0.8058
 3893TIP3    H233171   6.005   2.124  10.852 -0.3735 -2.3113 -0.8894
 3894TIP3   OH233172   1.055   0.457  10.574 -0.3258 -0.2160  0.3141
 3894TIP3    H133173   1.079   0.463  10.667 -0.1123 -1.2542  0.3330
 3894TIP3    H233174   0.985   0.521  10.564 -0.9304 -0.6829  1.3980
 3895TIP3   OH233175   6.520   0.831  12.877  0.0836  0.0051  0.7179
 3895TIP3    H133176   6.593   0.877  12.836  0.2257 -0.3261  0.6051
 3895TIP3    H233177   6.469   0.797  12.804  0.6810 -1.1323  0.8263
 3896TIP3   OH233178   7.318   0.267  11.742 -0.0800 -0.7287 -0.3039
 3896TIP3    H133179   7.398   0.236  11.785 -1.0482 -2.2296  0.4323
 3896TIP3    H233180   7.279   0.328  11.804 -0.8051 -1.9214  0.4445
 3897TIP3   OH233181   5.655   6.253  14.648  0.0183 -0.9522  0.1896
 3897TIP3    H133182   5.563   6.280  14.639 -0.0255 -0.9409  0.6244
 3897TIP3    H233183   5.681   6.287  14.734  0.7908  0.0790 -0.4516
 3898TIP3   OH233184   1.073   5.714  13.380  0.1863  0.3067 -0.0095
 3898TIP3    H133185   1.029   5.707  13.465 -0.0735 -1.3743 -0.2627
 3898TIP3    H233186   1.130   5.790  13.389 -0.1981  0.4403  1.5070
 3899TIP3   OH233187   0.119   0.706  13.092 -0.5870 -0.4735 -0.4475
 3899TIP3    H133188   0.208   0.697  13.059 -0.7586  0.0622 -1.0608
 3899TIP3    H233189   0.075   0.626  13.065 -0.3188 -0.6885 -0.2407
 3900TIP3   OH233190   7.316   0.914  12.114 -0.1372  0.1450  0.0745
 3900TIP3    H133191   7.297   0.875  12.200  1.5607 -2.5303 -0.7279
 3900TIP3    H233192   7.284   0.850  12.051 -0.0639  1.4491 -1.3162
 3901TIP3   OH233193   6.681   6.519  12.870 -0.0782  0.4063 -0.7817
 3901TIP3    H133194   6.762   6.496  12.824 -0.6139 -3.5903  0.0252
 3901TIP3    H233195   6.611   6.495  12.808 -0.7027  1.1416 -0.3768
 3902TIP3   OH233196   0.053   6.535  13.313 -0.0582  0.0271  0.1232
 3902TIP3    H133197   0.075   6.450  13.351 -0.2476 -0.0258  0.1180
 3902TIP3    H233198   0.003   6.514  13.234 -1.5161  0.1583  0.9959
 3903TIP3   OH233199   4.352   0.864  10.685  0.1074 -0.0320  0.1223
 3903TIP3    H133200   4.401   0.789  10.651 -1.0988 -1.2599  1.0448
 3903TIP3    H233201   4.419   0.919  10.728  0.8856 -0.9773  0.1392
 3904TIP3   OH233202   0.595   0.596  12.625  0.1109  0.2051 -0.4451
 3904TIP3    H133203   0.547   0.677  12.641 -0.8346 -0.1882 -1.2121
 3904TIP3    H233204   0.676   0.624  12.582  0.1167  0.7937 -0.0550
 3905TIP3   OH233205   0.750   7.239  12.221 -0.1311  0.5179  0.0605
 3905TIP3    H133206   0.794   7.202  12.145 -0.5707  0.2498 -0.0613
 3905TIP3    H233207   0.659   7.250  12.194 -1.0347 -2.6096  1.5695
 3906TIP3   OH233208   7.196   6.681  11.049  0.5752  0.0809  0.9128
 3906TIP3    H133209   7.255   6.710  10.979  0.0718  0.7511  0.7647
 3906TIP3    H233210   7.239   6.711  11.129  1.8120 -1.8227  0.9930
 3907TIP3   OH233211   0.653   6.231  12.364 -0.2340  0.0796 -0.5738
 3907TIP3    H133212   0.717   6.212  12.433 -0.1530  0.9361 -0.4091
 3907TIP3    H233213   0.577   6.267  12.411 -0.0249  1.0377 -0.9626
 3908TIP3   OH233214   5.540   6.028  14.468 -0.2600  0.3803  0.0370
 3908TIP3    H133215   5.483   6.010  14.394  1.2196  0.3151 -1.0989
 3908TIP3    H233216   5.528   5.954  14.527  0.4610 -0.8499 -1.3317
 3909TIP3   OH233217   3.210   2.400  12.907 -0.6746  0.5866 -0.9542
 3909TIP3    H133218   3.232   2.488  12.938  2.2571 -0.4075 -0.0723
 3909TIP3    H233219   3.257   2.391  12.824  1.1669 -1.0601  0.2392
 3910TIP3   OH233220   0.085   6.600  11.542  0.1181 -0.2938  0.2262
 3910TIP3    H133221   0.103   6.535  11.611  2.3416  2.7327  2.6316
 3910TIP3    H233222   0.014   6.653  11.577  0.7497  0.7795 -0.0799
 3911TIP3   OH233223   1.047   6.999  12.183 -0.9322  0.1918 -0.4245
 3911TIP3    H133224   1.026   6.948  12.261  1.8064  2.0450  1.5884
 3911TIP3    H233225   1.080   6.934  12.120 -0.9294 -0.9977  0.7837
 3912TIP3   OH233226   0.189   1.609  11.781 -0.5224 -0.4185 -0.7313
 3912TIP3    H133227   0.184   1.525  11.735  1.4433 -0.8345 -0.2589
 3912TIP3    H233228   0.212   1.672  11.712 -0.7309 -0.4976 -0.8732
 3913TIP3   OH233229   4.809   6.883  12.042 -0.1035  0.1847 -0.5358
 3913TIP3    H133230   4.822   6.816  12.109 -0.3082  1.2483  0.5792
 3913TIP3    H233231   4.814   6.966  12.089 -2.6241  0.8956 -1.4087
 3914TIP3   OH233232   5.865   0.073  13.007 -0.2030 -0.9755  0.2171
 3914TIP3    H133233   5.777   0.081  12.970 -0.7068 -1.2824  1.3178
 3914TIP3    H233234   5.857   0.003  13.072  1.0574 -1.5729 -0.2550
 3915TIP3   OH233235   0.230   6.945  12.400 -0.7473  0.1890  0.6449
 3915TIP3    H133236   0.143   6.905  12.413 -1.5414  0.9002 -2.1631
 3915TIP3    H233237   0.211   7.036  12.375  0.5422 -0.7267 -4.1936
 3916TIP3   OH233238   6.045   1.009  11.825  0.2737  0.5852  0.2308
 3916TIP3    H133239   5.990   0.940  11.789  0.8039  0.5900 -0.5825
 3916TIP3    H233240   6.047   0.990  11.919 -0.9397  0.4662  0.2465
 3917TIP3   OH233241   6.558   0.357  13.767  0.5526  0.1576  0.1565
 3917TIP3    H133242   6.554   0.393  13.856  1.6718  0.3102  0.1457
 3917TIP3    H233243   6.559   0.433  13.710  0.8626  0.0753  0.0522
 3918TIP3   OH233244   1.342   6.782  14.327 -0.1569 -0.7406 -0.2630
 3918TIP3    H133245   1.263   6.750  14.370  0.2367 -1.1538  0.1557
 3918TIP3    H233246   1.312   6.855  14.273 -0.4971  0.4505  1.4908
 3919TIP3   OH233247   2.617   4.766  12.398  0.7260 -0.2101 -0.1072
 3919TIP3    H133248   2.711   4.782  12.398  0.7536 -0.3686  0.0416
 3919TIP3    H233249   2.602   4.710  12.475  0.5987 -0.7029 -0.4880
 3920TIP3   OH233250   5.694   4.647  10.164 -0.3630  0.1507  0.0066
 3920TIP3    H133251   5.678   4.606  10.249  0.0582  0.8374  0.4239
 3920TIP3    H233252   5.613   4.635  10.115  0.1720 -2.3348 -0.3593
 3921TIP3   OH233253   6.561   5.672  13.780 -0.3509 -0.0491  0.2462
 3921TIP3    H133254   6.581   5.761  13.810 -2.7820  0.4813  0.3937
 3921TIP3    H233255   6.646   5.629  13.775  0.9942  2.6037 -0.8508
 3922TIP3   OH233256   7.045   1.509  11.499 -0.1837 -0.5233  0.5026
 3922TIP3    H133257   6.961   1.523  11.454 -0.6321  1.9184  2.0391
 3922TIP3    H233258   7.090   1.444  11.445 -1.2778  1.2723 -2.7173
 3923TIP3   OH233259   3.186   2.183  13.102  0.5186 -0.1842  0.3537
 3923TIP3    H133260   3.125   2.238  13.152  2.0284 -0.3780  2.4982
 3923TIP3    H233261   3.221   2.241  13.034  0.5412  0.9319  1.2995
 3924TIP3   OH233262   0.800   0.224  12.750 -0.3764  0.3582 -0.5425
 3924TIP3    H133263   0.710   0.252  12.735 -0.3783  1.0032  0.5811
 3924TIP3    H233264   0.843   0.234  12.666 -1.8719 -1.9962 -1.6324
 3925TIP3   OH233265   6.241   2.615  11.742 -0.0178  0.5032 -0.1688
 3925TIP3    H133266   6.179   2.664  11.689 -0.0289  1.8814  1.0988
 3925TIP3    H233267   6.324   2.661  11.733 -0.2812  1.4693  1.9099
 3926TIP3   OH233268   1.921   7.161  14.205 -0.1127 -0.0310  0.1398
 3926TIP3    H133269   1.848   7.141  14.147 -0.8293 -1.6303  1.5647
 3926TIP3    H233270   1.891   7.236  14.256 -0.8714 -0.8088  0.8653
 3927TIP3   OH233271   4.672   1.424  13.350  0.0259 -0.0880  0.5996
 3927TIP3    H133272   4.714   1.474  13.280 -2.1875  0.4517 -0.3670
 3927TIP3    H233273   4.617   1.488  13.396  1.7494 -0.3302  3.1357
 3928TIP3   OH233274   1.745   2.208  14.684  0.4115 -0.0118 -0.3661
 3928TIP3    H133275   1.675   2.164  14.635  0.7999 -0.6767 -0.3164
 3928TIP3    H233276   1.812   2.141  14.697  0.4522  0.2460  0.8078
 3929TIP3   OH233277   3.992   7.231  11.984  0.2414 -0.1372 -0.1565
 3929TIP3    H133278   3.909   7.184  11.987  0.5087 -0.7330 -1.5699
 3929TIP3    H233279   4.011   7.240  11.890  1.4356  0.5812  0.1420
 3930TIP3   OH233280   0.682   5.624  14.515 -0.2491  0.2502  0.2407
 3930TIP3    H133281   0.774   5.626  14.540 -0.1547  0.2522 -0.1004
 3930TIP3    H233282   0.648   5.542  14.551 -0.7480  1.4247  2.5631
 3931TIP3   OH233283   6.834   0.722  12.092 -0.7222 -0.6810  0.2408
 3931TIP3    H133284   6.922   0.749  12.064 -1.5265  0.1617 -1.5519
 3931TIP3    H233285   6.776   0.757  12.024 -2.6937  0.9334  2.6880
 3932TIP3   OH233286   6.830   6.421  11.755  0.5509  0.0725 -0.3717
 3932TIP3    H133287   6.741   6.418  11.791  1.4248  0.1351  1.8870
 3932TIP3    H233288   6.818   6.446  11.664 -1.6148  2.3331  0.4608
 3933TIP3   OH233289   0.266   6.373  13.948 -0.0813 -0.5444 -0.1493
 3933TIP3    H133290   0.350   6.332  13.927  0.4875  0.2307  0.5678
 3933TIP3    H233291   0.289   6.455  13.990 -1.2089 -0.2404 -0.0999
 3934TIP3   OH233292   2.369   0.424  14.302 -0.6889  0.3019  0.2382
 3934TIP3    H133293   2.419   0.387  14.230 -0.1879  1.3192  0.0546
 3934TIP3    H233294   2.311   0.488  14.261 -2.5817 -1.2956  0.3739
 3935TIP3   OH233295   3.672   7.175  12.283 -0.3692  0.7657 -0.3546
 3935TIP3    H133296   3.716   7.207  12.362 -0.2907 -2.8158  1.1840
 3935TIP3    H233297   3.583   7.207  12.290  0.2422  2.4216 -0.0165
 3936TIP3   OH233298   6.283   0.389  13.928 -0.3344  0.4249  0.0793
 3936TIP3    H133299   6.347   0.459  13.934  1.0356 -0.7028 -1.0488
 3936TIP3    H233300   6.199   0.434  13.916  0.1889  1.9165  1.7654
 3937TIP3   OH233301   4.912   1.980  11.207 -0.1113  0.1572  0.3547
 3937TIP3    H133302   4.955   2.029  11.278 -0.0144  0.1844  0.2777
 3937TIP3    H233303   4.875   1.903  11.251  0.5376 -0.1770  0.3230
 3938TIP3   OH233304   1.871   3.184  12.551  0.0186  0.1883  0.3507
 3938TIP3    H133305   1.840   3.263  12.506 -0.9398 -0.4825 -0.1674
 3938TIP3    H233306   1.864   3.205  12.644 -1.4422  0.2580  0.2340
 3939TIP3   OH233307   6.836   1.797  11.681  0.0114 -0.3200 -0.2882
 3939TIP3    H133308   6.808   1.818  11.592  0.0679  0.7592 -0.0660
 3939TIP3    H233309   6.773   1.842  11.737 -0.5677 -1.7548  0.2233
 3940TIP3   OH233310   1.868   7.229  10.990 -0.2724 -0.0202  0.1469
 3940TIP3    H133311   1.843   7.262  11.076 -1.1804  0.4041 -0.2839
 3940TIP3    H233312   1.964   7.226  10.993 -0.3212 -0.5531  1.3766
 3941TIP3   OH233313   5.310   1.348  11.867 -0.3868  0.4800 -0.2104
 3941TIP3    H133314   5.386   1.402  11.843  0.2174  0.2602  1.2035
 3941TIP3    H233315   5.326   1.322  11.957 -0.7998 -1.8826 -0.7891
 3942TIP3   OH233316   4.980   1.433  11.158 -0.1057 -0.8448 -0.3979
 3942TIP3    H133317   4.895   1.407  11.121 -1.0888 -0.2301  1.3471
 3942TIP3    H233318   4.989   1.378  11.236  1.8271 -1.9874 -1.4134
 3943TIP3   OH233319   1.954   0.692  11.069  0.5847  0.1003 -0.5300
 3943TIP3    H133320   1.870   0.699  11.023  0.5728  1.5057 -0.3144
 3943TIP3    H233321   2.003   0.628  11.019 -0.7852 -1.0849 -0.3978
 3944TIP3   OH233322   5.233   0.086  12.698  0.5453  0.4924  0.6889
 3944TIP3    H133323   5.138   0.099  12.705  0.4169 -0.6400  1.0923
 3944TIP3    H233324   5.253   0.020  12.764  1.2573 -0.9903 -0.9622
 3945TIP3   OH233325   5.918   2.029   9.816  0.2681 -0.3924 -0.0598
 3945TIP3    H133326   5.963   1.948   9.792  0.1176 -0.6057  0.3713
 3945TIP3    H233327   5.919   2.082   9.736 -0.7088 -1.3160 -0.7042
 3946TIP3   OH233328   7.341   1.745  11.017 -0.1589 -0.2632  0.0541
 3946TIP3    H133329   7.363   1.778  11.104 -1.0723 -2.4994  1.1727
 3946TIP3    H233330   7.246   1.757  11.010 -0.2666 -1.1990 -0.1409
 3947TIP3   OH233331   5.559   0.799  12.760  0.5286  0.8085  0.4076
 3947TIP3    H133332   5.609   0.789  12.841 -0.7004 -0.5635  1.0385
 3947TIP3    H233333   5.470   0.769  12.783  0.5581 -1.2092 -1.8356
 3948TIP3   OH233334   7.187   6.673  11.665  0.1935 -0.0811  0.4595
 3948TIP3    H133335   7.164   6.765  11.654  2.6961  0.9509  3.1538
 3948TIP3    H233336   7.155   6.651  11.753 -0.9643 -2.0139 -0.4132
 3949TIP3   OH233337   6.622   6.690  15.448 -0.2452  0.1696  0.1070
 3949TIP3    H133338   6.557   6.675  15.379  0.9367 -0.6610 -0.8503
 3949TIP3    H233339   6.570   6.718  15.524 -1.6519  0.1862 -0.8348
 3950TIP3   OH233340   7.159   3.119  10.653  0.6316  0.5690 -0.0321
 3950TIP3    H133341   7.160   3.137  10.747  0.6788 -0.6206  0.2033
 3950TIP3    H233342   7.127   3.200  10.613  0.3582  0.9867  1.0253
 3951TIP3   OH233343   6.796   7.034  11.529 -0.0420  0.3811  0.3197
 3951TIP3    H133344   6.860   7.030  11.458 -0.1967  2.6678  0.0085
 3951TIP3    H233345   6.721   7.080  11.491 -0.8714 -0.0310  1.4170
 3952TIP3   OH233346   6.370   6.800  14.174 -0.2684 -0.1256 -0.3043
 3952TIP3    H133347   6.288   6.790  14.222  0.3522 -0.5942  0.6689
 3952TIP3    H233348   6.423   6.858  14.229  0.4296 -0.6122 -0.4576
 3953TIP3   OH233349   0.263   1.378  11.637  0.3301  0.2184  0.0990
 3953TIP3    H133350   0.226   1.315  11.576 -1.1002 -0.3470  1.5314
 3953TIP3    H233351   0.348   1.402  11.598  0.1518 -1.3242 -1.2803
 3954TIP3   OH233352   0.037   1.693  12.571 -0.5346  0.1151  0.3971
 3954TIP3    H133353   0.106   1.694  12.505 -0.0046  1.1295  0.9548
 3954TIP3    H233354  -0.011   1.612  12.555  0.5234 -0.3807 -0.2613
 3955TIP3   OH233355   5.865   0.511  12.715  0.5409  0.2849  0.2184
 3955TIP3    H133356   5.819   0.592  12.694  1.7816  1.1605  0.7915
 3955TIP3    H233357   5.820   0.477  12.792 -1.8234 -1.1242 -1.7327
 3956TIP3   OH233358   6.899   4.813  15.184 -0.0349  0.5660  0.4752
 3956TIP3    H133359   6.931   4.722  15.185  0.6087  0.7928  2.3592
 3956TIP3    H233360   6.966   4.862  15.231  0.5745  2.3927 -2.2031
 3957TIP3   OH233361   3.751   2.464  12.538 -0.1526 -0.2881  0.0905
 3957TIP3    H133362   3.682   2.400  12.558  0.3532 -0.8822 -0.0427
 3957TIP3    H233363   3.761   2.460  12.443 -0.5959  0.4931  0.0055
 3958TIP3   OH233364   6.357   1.456  11.885  0.2761 -0.0074 -0.2385
 3958TIP3    H133365   6.452   1.459  11.884  0.3163  0.1746  1.6857
 3958TIP3    H233366   6.334   1.377  11.836  1.4929 -1.1901  1.0715
 3959TIP3   OH233367   5.127   7.191  13.224 -0.1963  0.3583 -0.4610
 3959TIP3    H133368   5.159   7.101  13.216  1.3838  0.7186  1.3057
 3959TIP3    H233369   5.206   7.245  13.217 -1.0525  1.5886 -0.8880
 3960TIP3   OH233370   1.841   6.995  13.448 -0.4522 -0.2185  0.3168
 3960TIP3    H133371   1.783   6.923  13.423  0.0616 -0.1172 -1.2009
 3960TIP3    H233372   1.927   6.954  13.459 -0.1933  0.1413 -0.3856
 3961TIP3   OH233373   6.639   7.072  13.835  0.1379 -0.2183 -0.0713
 3961TIP3    H133374   6.568   7.122  13.796  1.8322 -0.5202 -3.7044
 3961TIP3    H233375   6.615   6.980  13.820  1.2160 -0.3241 -1.2052
 3962TIP3   OH233376   4.602   0.756  12.511  0.4958 -0.7678 -0.1518
 3962TIP3    H133377   4.614   0.661  12.520 -0.1378 -0.8560 -0.2106
 3962TIP3    H233378   4.691   0.791  12.502  0.6416 -1.5380 -1.8465
 3963TIP3   OH233379   3.376   1.068  11.638  0.0479  0.0957 -0.2677
 3963TIP3    H133380   3.359   1.161  11.623 -0.4932  0.2792  1.3535
 3963TIP3    H233381   3.403   1.034  11.553 -0.9915  1.4671 -1.1639
 3964TIP3   OH233382   6.197   0.661  13.019 -0.1278  0.6597  0.2960
 3964TIP3    H133383   6.128   0.727  13.007 -0.1153  0.8265  1.0796
 3964TIP3    H233384   6.272   0.711  13.051 -0.3574  0.1728  1.6468
 3965TIP3   OH233385   1.092   5.420  13.702 -0.1005  0.0563 -0.5023
 3965TIP3    H133386   1.024   5.372  13.654  0.5057 -0.1289 -1.1900
 3965TIP3    H233387   1.071   5.406  13.794 -0.9296 -0.0949 -0.7071
 3966TIP3   OH233388   0.029   1.305  14.167 -0.7797  0.6043  0.7530
 3966TIP3    H133389   0.026   1.249  14.090  0.9727  1.5102  0.0137
 3966TIP3    H233390  -0.053   1.286  14.213 -2.0467  0.3601 -1.5199
 3967TIP3   OH233391   1.694   2.007  13.893  0.5084  0.1629 -0.0404
 3967TIP3    H133392   1.741   2.043  13.819 -1.1902  0.7113 -0.8800
 3967TIP3    H233393   1.706   2.071  13.963  1.5463 -0.0298 -0.0332
 3968TIP3   OH233394   5.542   1.363  12.383  0.0750  0.0446  0.0824
 3968TIP3    H133395   5.615   1.423  12.398  2.1889 -1.9687 -1.6957
 3968TIP3    H233396   5.570   1.281  12.425 -0.8770 -0.9539 -1.2051
 3969TIP3   OH233397   0.651   0.642  12.924 -0.1001  0.0736 -0.1772
 3969TIP3    H133398   0.703   0.603  12.854  2.0164  2.6707 -0.1114
 3969TIP3    H233399   0.616   0.722  12.886 -2.3664 -0.5510  0.4713
 3970TIP3   OH233400   4.084   2.513  12.194  0.1674 -0.1505 -0.0842
 3970TIP3    H133401   4.045   2.538  12.110  0.0730  1.3949  0.4150
 3970TIP3    H233402   4.173   2.550  12.192 -0.0384  0.4068  0.7357
 3971TIP3   OH233403   7.315   1.380  12.315 -0.2957 -0.2868  0.1063
 3971TIP3    H133404   7.258   1.308  12.289  0.0660  0.1223 -1.8818
 3971TIP3    H233405   7.391   1.338  12.355 -0.4072 -0.9757 -0.4060
 3972TIP3   OH233406   6.548   0.059  14.532 -0.3383  0.1395  0.1834
 3972TIP3    H133407   6.632   0.103  14.540 -0.4898  0.5711 -0.5609
 3972TIP3    H233408   6.538   0.011  14.614  0.3425  0.5920  0.5340
 3973TIP3   OH233409   0.914   0.268  14.632  0.1775 -0.5894 -0.0905
 3973TIP3    H133410   0.946   0.326  14.564 -0.9411  0.0859 -0.0501
 3973TIP3    H233411   0.992   0.244  14.683  0.6200  0.9513 -0.0401
 3974TIP3   OH233412   5.446   6.270  12.712 -0.5669  0.2290  0.3513
 3974TIP3    H133413   5.463   6.236  12.625  0.6664  1.2008  0.2048
 3974TIP3    H233414   5.366   6.323  12.702 -1.5082 -1.1973  0.2250
 3975TIP3   OH233415   6.817   0.133  14.535 -0.1977 -0.2828  0.3156
 3975TIP3    H133416   6.883   0.188  14.493 -0.8863 -0.6231 -1.2351
 3975TIP3    H233417   6.866   0.085  14.602  0.5586  1.6080  1.1499
 3976TIP3   OH233418   5.275   1.984  11.960 -0.5972 -0.1134  0.1923
 3976TIP3    H133419   5.295   1.998  11.867  0.6772 -0.3299  0.4244
 3976TIP3    H233420   5.238   2.067  11.990 -1.0137 -0.0447 -0.5039
 3977TIP3   OH233421   0.252   4.877  13.843  0.1309  0.0967 -0.2797
 3977TIP3    H133422   0.309   4.935  13.794 -0.3057  0.8713  0.1235
 3977TIP3    H233423   0.311   4.823  13.895  0.5045  0.6219 -0.1629
 3978TIP3   OH233424   0.426   5.117  13.361 -0.4438 -0.0935  0.0785
 3978TIP3    H133425   0.505   5.087  13.315  1.4760  0.5429  2.8306
 3978TIP3    H233426   0.437   5.212  13.366 -2.9012  0.3787 -2.1084
 3979TIP3   OH233427   6.273   1.220  12.028 -0.0884 -0.7122  0.1836
 3979TIP3    H133428   6.270   1.315  12.013  1.5524 -0.4314  1.5044
 3979TIP3    H233429   6.181   1.192  12.021 -0.6504  1.0402  0.1988
 3980TIP3   OH233430   5.896   1.233  12.570  0.6101  0.3822  0.0967
 3980TIP3    H133431   5.823   1.172  12.560  0.3574  0.9078 -1.4084
 3980TIP3    H233432   5.960   1.205  12.505  0.2116  2.1036 -1.0671
 3981TIP3   OH233433   5.128   0.653  13.298 -0.0510  0.1541 -0.0705
 3981TIP3    H133434   5.181   0.607  13.363 -0.2432 -0.3320 -0.2588
 3981TIP3    H233435   5.048   0.677  13.345  0.7367  1.7332  0.4829
 3982TIP3   OH233436   1.330   4.412  12.389 -0.1167  0.3410  0.2388
 3982TIP3    H133437   1.339   4.355  12.313  0.5252  0.1452  0.4590
 3982TIP3    H233438   1.252   4.464  12.371 -0.4925 -0.3407 -0.1407
 3983TIP3   OH233439   5.341   6.431  13.465 -0.5943  0.2603 -0.1686
 3983TIP3    H133440   5.324   6.525  13.474 -0.4423  0.2553  0.1744
 3983TIP3    H233441   5.261   6.396  13.423 -1.3598  0.2672  1.2620
 3984TIP3   OH233442   6.797   5.656  13.555  0.1090 -0.5107 -0.3010
 3984TIP3    H133443   6.771   5.729  13.498 -1.1237 -0.4459  0.3341
 3984TIP3    H233444   6.790   5.579  13.499 -1.2309 -0.4653 -0.2196
 3985TIP3   OH233445   6.878   1.683  15.304 -0.0738 -0.4911 -0.7056
 3985TIP3    H133446   6.940   1.706  15.234  0.7962  1.7755  0.7453
 3985TIP3    H233447   6.921   1.611  15.350  1.0691  0.4310 -0.2955
 3986TIP3   OH233448   6.737   6.561  14.561  0.0966 -0.5913 -0.3931
 3986TIP3    H133449   6.711   6.517  14.642  1.6286 -1.3973 -0.3214
 3986TIP3    H233450   6.673   6.533  14.496  0.4842 -2.1691 -0.1092
 3987TIP3   OH233451   6.208   0.439  13.490 -0.2392 -0.5932 -0.2641
 3987TIP3    H133452   6.295   0.477  13.476 -0.5039 -0.5211 -1.8536
 3987TIP3    H233453   6.175   0.422  13.401 -0.8372 -2.9454  0.3891
 3988TIP3   OH233454   1.299   1.465  13.816  0.1406  0.3360  0.0694
 3988TIP3    H133455   1.260   1.406  13.881  0.4326  0.1018  0.0312
 3988TIP3    H233456   1.283   1.553  13.851 -0.6696  0.2596 -0.0790
 3989TIP3   OH233457   6.608   0.946   0.346 -0.3160  0.1757 -0.4440
 3989TIP3    H133458   6.637   0.975   0.433 -0.1067  0.2201 -0.5310
 3989TIP3    H233459   6.664   0.871   0.326  0.4130  0.8905 -1.0589
 3990TIP3   OH233460   0.124   6.370  15.284 -0.0894  0.0403 -0.0642
 3990TIP3    H133461   0.191   6.307  15.256  1.5514  2.5818 -2.1258
 3990TIP3    H233462   0.046   6.345  15.235 -0.0171 -1.5669  0.6216
 3991TIP3   OH233463   1.843   2.143  12.581 -1.0346 -0.4851  0.0587
 3991TIP3    H133464   1.841   2.149  12.676  2.1435 -3.1295  0.3687
 3991TIP3    H233465   1.897   2.217  12.553 -0.4669 -0.7345  0.4761
 3992TIP3   OH233466   0.131   0.076  11.386 -0.2353 -0.1259 -0.0992
 3992TIP3    H133467   0.190   0.020  11.336 -0.6553  0.1839 -0.9450
 3992TIP3    H233468   0.165   0.072  11.476  0.4649 -0.7496 -0.3862
 3993TIP3   OH233469   2.721   6.839  11.418 -0.0563 -0.6071  0.3357
 3993TIP3    H133470   2.773   6.905  11.372 -0.0986 -0.0530  1.0693
 3993TIP3    H233471   2.694   6.882  11.499 -1.1526 -1.0991  0.2442
 3994TIP3   OH233472   4.612   7.194  11.274 -0.1817  0.3453  0.1922
 3994TIP3    H133473   4.699   7.231  11.260 -0.0014  0.3718  1.3860
 3994TIP3    H233474   4.580   7.176  11.186  1.3683 -0.4576 -0.2260
 3995TIP3   OH233475   4.919   0.887  15.560 -0.0914 -0.0153 -0.1896
 3995TIP3    H133476   5.000   0.851  15.525 -0.3152 -0.7969  0.0817
 3995TIP3    H233477   4.915   0.976  15.526  0.6495 -0.1322 -0.5794
 3996TIP3   OH233478   5.748   1.350  12.099 -0.2991 -0.2434  0.3813
 3996TIP3    H133479   5.726   1.379  12.010 -2.9095  0.0163  1.0837
 3996TIP3    H233480   5.753   1.432  12.149  0.8996 -0.4137  0.5638
 3997TIP3   OH233481   0.076   0.170  10.633 -0.3271 -0.2900 -0.1993
 3997TIP3    H133482   0.137   0.154  10.560 -0.1370  0.4621 -0.2019
 3997TIP3    H233483   0.078   0.264  10.646 -1.8737 -0.2032 -0.5196
 3998TIP3   OH233484   3.425   6.783  11.060 -0.1831 -0.1739 -0.2036
 3998TIP3    H133485   3.448   6.811  11.148 -0.1320  1.6852 -0.7870
 3998TIP3    H233486   3.502   6.804  11.007 -1.6261  2.4342 -1.4190
 3999TIP3   OH233487   5.003   4.956  11.420  0.1868  0.0786 -0.4664
 3999TIP3    H133488   5.082   5.009  11.414  1.5640 -2.0240 -1.8415
 3999TIP3    H233489   4.970   4.952  11.330 -1.8371  1.3702  0.1656
 4000TIP3   OH233490   7.310   2.169  14.636 -0.0178  0.2132  0.1112
 4000TIP3    H133491   7.289   2.262  14.639 -0.8983 -0.0009  0.5757
 4000TIP3    H233492   7.336   2.153  14.545  0.2562  0.9293  0.0577
 4001TIP3   OH233493   1.224   5.775  13.121  0.5990 -0.2129 -0.1645
 4001TIP3    H133494   1.189   5.719  13.190 -0.7691 -0.9593 -1.4419
 4001TIP3    H233495   1.297   5.725  13.084  1.5618  0.3384  0.9390
 4002TIP3   OH233496   5.715   7.011  13.624  0.6506  0.2657 -0.6665
 4002TIP3    H133497   5.701   6.960  13.704  1.4350  1.5146  0.2881
 4002TIP3    H233498   5.697   6.949  13.553 -1.2107 -0.5317  0.4574
 4003TIP3   OH233499   0.614   6.841  10.309 -0.4997 -0.5777 -0.5665
 4003TIP3    H133500   0.584   6.840  10.219  1.9829  1.5991 -1.4890
 4003TIP3    H233501   0.694   6.789  10.309  0.6628  1.1717 -0.0809
 4004TIP3   OH233502   1.031   3.385  14.668 -0.2365  0.0380 -0.0625
 4004TIP3    H133503   0.937   3.390  14.651 -0.1414  0.7102 -0.3818
 4004TIP3    H233504   1.058   3.300  14.632 -0.4535  0.4664 -1.2278
 4005TIP3   OH233505   5.774   1.527  11.834 -0.0595  0.0911 -0.4019
 4005TIP3    H133506   5.714   1.597  11.808  1.4280  0.5662 -2.7306
 4005TIP3    H233507   5.852   1.573  11.865 -0.0887 -0.5251  0.5914
 4006TIP3   OH233508   2.429   1.041  10.353  0.0905  0.2709 -0.2173
 4006TIP3    H133509   2.440   1.031  10.259 -3.1517  0.2669 -0.6682
 4006TIP3    H233510   2.402   1.132  10.364  2.1343  0.7675  0.9184
 4007TIP3   OH233511   3.934   6.088  12.427 -0.3316  0.6486 -0.3437
 4007TIP3    H133512   3.864   6.027  12.402  0.1553  0.2176 -0.6515
 4007TIP3    H233513   3.936   6.083  12.523 -0.5402  0.4548 -0.3476
 4008TIP3   OH233514   1.767   2.156  13.296  0.0599 -0.5022 -0.0392
 4008TIP3    H133515   1.811   2.100  13.359 -0.7425  0.2357  1.2058
 4008TIP3    H233516   1.823   2.234  13.291  0.5974 -0.9314 -0.9411
 4009TIP3   OH233517   4.974   0.042  11.722  0.0037 -0.5768  0.1649
 4009TIP3    H133518   5.040   0.106  11.747  0.2209 -0.6758 -0.1499
 4009TIP3    H233519   4.994   0.022  11.630 -2.8982  2.4270 -1.2253
 4010TIP3   OH233520   0.246   1.180  12.636  0.2582  0.1467 -1.0392
 4010TIP3    H133521   0.290   1.252  12.682 -0.5426  1.1821 -1.8707
 4010TIP3    H233522   0.257   1.201  12.543 -1.8075  0.3195 -1.2615
 4011TIP3   OH233523   5.142   5.200  14.640  0.1241  0.3490 -0.2767
 4011TIP3    H133524   5.121   5.282  14.685 -0.0015  0.5571 -0.7015
 4011TIP3    H233525   5.095   5.207  14.557  0.7636  0.1948 -0.6505
 4012TIP3   OH233526   0.622   6.493  13.797  0.1733 -0.1017  0.5544
 4012TIP3    H133527   0.663   6.471  13.713  1.6060 -2.0657  1.7054
 4012TIP3    H233528   0.582   6.411  13.826 -1.3245  0.8622  1.2531
 4013TIP3   OH233529   6.788   2.164  13.105  0.7279  0.2587  0.3296
 4013TIP3    H133530   6.800   2.163  13.010  0.6446  4.0359  0.2119
 4013TIP3    H233531   6.876   2.153  13.141  0.6094 -2.4429 -0.1203
 4014TIP3   OH233532   5.763   0.869  13.446  0.2129  0.0074  0.1812
 4014TIP3    H133533   5.697   0.800  13.439  1.6453 -1.3055 -0.7051
 4014TIP3    H233534   5.794   0.863  13.536  1.4484 -1.5780 -0.3348
 4015TIP3   OH233535   2.123   6.256  14.077 -0.2079  0.2112  0.0598
 4015TIP3    H133536   2.201   6.231  14.027 -1.8402 -1.6417 -1.6406
 4015TIP3    H233537   2.127   6.202  14.156 -0.8795 -1.4912 -1.0458
 4016TIP3   OH233538   5.796   1.402  13.841  1.2180 -0.3632  0.2739
 4016TIP3    H133539   5.708   1.368  13.860  1.4045  0.5455  2.9817
 4016TIP3    H233540   5.780   1.477  13.784  0.4558 -1.9272 -1.6069
 4017TIP3   OH233541   0.111   0.506  11.850 -0.2538 -0.1856  0.3765
 4017TIP3    H133542   0.205   0.496  11.864 -0.2153  0.3692  0.5028
 4017TIP3    H233543   0.071   0.445  11.912  0.0324 -0.8121 -0.0399
 4018TIP3   OH233544   6.987   1.167  11.162  0.2587 -0.3572  0.5892
 4018TIP3    H133545   7.072   1.202  11.136 -0.5357  1.1909 -0.0069
 4018TIP3    H233546   6.928   1.193  11.091 -0.7721 -1.1469  1.1422
 4019TIP3   OH233547   5.487   2.232  13.969 -0.5006 -0.2445 -0.3895
 4019TIP3    H133548   5.570   2.186  13.963  0.4475  1.4999 -1.1882
 4019TIP3    H233549   5.474   2.268  13.881 -2.1550 -0.5966 -0.3023
 4020TIP3   OH233550   5.954   2.368  12.451  0.5450  0.1506 -0.8038
 4020TIP3    H133551   5.994   2.353  12.537 -3.0384 -0.5245  0.8348
 4020TIP3    H233552   5.970   2.460  12.433 -2.4902  1.4795  2.7480
 4021TIP3   OH233553   7.248   0.093  11.195  0.2401  0.2018 -0.2128
 4021TIP3    H133554   7.320   0.067  11.252 -0.2798  1.2430  0.9553
 4021TIP3    H233555   7.172   0.045  11.228  0.5328 -1.5213 -1.9524
 4022TIP3   OH233556   6.671   0.822  11.231  0.3844  0.3207  0.2507
 4022TIP3    H133557   6.747   0.790  11.182  0.2583 -0.1681  0.3724
 4022TIP3    H233558   6.695   0.812  11.323 -0.6570 -1.8841  0.3150
 4023TIP3   OH233559   0.569   0.803  12.076  0.3747 -0.2269 -0.3457
 4023TIP3    H133560   0.540   0.843  11.994 -0.7916 -0.7028 -0.1819
 4023TIP3    H233561   0.661   0.782  12.062  0.0349 -0.8253 -1.7388
 4024TIP3   OH233562   7.186   0.047  11.632  0.4177  0.5451 -0.0791
 4024TIP3    H133563   7.267  -0.001  11.613 -0.4869 -0.5070 -1.3480
 4024TIP3    H233564   7.216   0.126  11.678  1.9331 -1.3489  2.3731
 4025TIP3   OH233565   6.499   6.714  12.230  0.2555 -0.2881 -0.4214
 4025TIP3    H133566   6.519   6.653  12.301 -2.4325 -1.5845 -0.6969
 4025TIP3    H233567   6.583   6.752  12.206  1.4289 -1.0134  2.3785
 4026TIP3   OH233568   6.302   0.048  12.914  0.3029 -0.1177  0.2879
 4026TIP3    H133569   6.360  -0.011  12.963  0.2441 -0.2142  0.2417
 4026TIP3    H233570   6.355   0.126  12.899  0.0590  0.2221  1.1917
 4027TIP3   OH233571   0.223   5.866  14.650  0.3433  0.4393 -0.0108
 4027TIP3    H133572   0.181   5.782  14.668  0.1761  0.5643  0.1811
 4027TIP3    H233573   0.227   5.909  14.735 -1.7397  1.6351 -0.4766
 4028TIP3   OH233574   1.019   0.005  14.552 -0.5516  0.1723  0.0614
 4028TIP3    H133575   1.075   0.073  14.513  0.4261 -0.2828  0.6608
 4028TIP3    H233576   0.954  -0.013  14.484  0.6286  0.0014 -1.0480
 4029TIP3   OH233577   6.573   4.728  13.956 -0.0933 -0.2325  0.4025
 4029TIP3    H133578   6.493   4.685  13.984  0.3091 -0.8052  0.6888
 4029TIP3    H233579   6.622   4.745  14.037  0.2394 -0.2148  0.2023
 4030TIP3   OH233580   1.218   0.217  13.279 -0.0377  0.2022 -0.1600
 4030TIP3    H133581   1.128   0.186  13.269  0.7727 -1.3927 -3.2534
 4030TIP3    H233582   1.247   0.182  13.363 -2.0313  0.0239  0.4673
 4031TIP3   OH233583   5.445   4.048  11.768  0.0447 -0.1720  0.1595
 4031TIP3    H133584   5.364   4.029  11.719  0.7330 -1.0516 -0.6603
 4031TIP3    H233585   5.501   4.093  11.705  0.5604 -0.4180  0.4442
 4032TIP3   OH233586   7.168   0.771  10.783 -0.3325 -0.3724  0.5094
 4032TIP3    H133587   7.215   0.850  10.811 -2.3674  1.4066 -0.9452
 4032TIP3    H233588   7.212   0.746  10.702 -0.7314  0.2508  0.0931
 4033TIP3   OH233589   2.831   1.455  13.194  0.4942  0.7851 -0.3909
 4033TIP3    H133590   2.881   1.376  13.176  1.2651  1.1921 -0.0717
 4033TIP3    H233591   2.781   1.435  13.273 -0.8940 -0.0943 -1.4709
 4034TIP3   OH233592   6.929   1.309  12.189  0.0820 -0.4160  0.3320
 4034TIP3    H133593   6.961   1.379  12.245 -0.4895  0.0727  0.0610
 4034TIP3    H233594   6.977   1.320  12.107 -0.0229 -0.3189  0.2822
 4035TIP3   OH233595   4.569   0.484  12.815 -0.1001  0.3285  0.1469
 4035TIP3    H133596   4.653   0.459  12.853 -0.8804 -0.1812  1.5756
 4035TIP3    H233597   4.564   0.579  12.826 -0.8991  0.0291  2.5824
 4036TIP3   OH233598   3.877   0.661  12.335  0.1769  0.6572  0.3911
 4036TIP3    H133599   3.914   0.579  12.301  0.7248  1.1263 -0.1650
 4036TIP3    H233600   3.783   0.653  12.320  0.3221  0.4991 -0.4630
 4037TIP3   OH233601   6.982   0.814  11.593 -0.1458  0.1463  0.0987
 4037TIP3    H133602   6.996   0.885  11.531  0.1177 -0.3005 -0.3588
 4037TIP3    H233603   7.068   0.802  11.635 -0.0222 -0.3089 -0.2689
 4038TIP3   OH233604   4.496   2.963  15.264  0.3621 -0.3263  0.0911
 4038TIP3    H133605   4.492   2.884  15.210  0.1374 -0.4361  0.2707
 4038TIP3    H233606   4.420   2.958  15.321  0.9501 -0.5354  0.8715
 4039TIP3   OH233607   7.192   0.400  12.353 -0.2609  0.2750 -0.5326
 4039TIP3    H133608   7.141   0.480  12.347 -0.0067  0.5304  0.5728
 4039TIP3    H233609   7.242   0.409  12.434  1.7563  0.1584 -1.7468
 4040TIP3   OH233610   1.338   1.146  12.696  0.3372 -0.0477 -0.1405
 4040TIP3    H133611   1.336   1.189  12.781  1.8433  0.9890 -0.5921
 4040TIP3    H233612   1.359   1.055  12.715  1.3818  0.3271  0.5663
 4041TIP3   OH233613   2.853   3.622  11.849  0.0201 -0.0643 -0.4614
 4041TIP3    H133614   2.763   3.647  11.869 -0.7264 -1.6635 -1.6902
 4041TIP3    H233615   2.879   3.682  11.779  0.1156  0.7816  0.2954
 4042TIP3   OH233616   0.778   3.195  13.097 -0.0999  0.1584  0.0457
 4042TIP3    H133617   0.716   3.264  13.073  1.5466  0.9936 -1.9308
 4042TIP3    H233618   0.864   3.236  13.087  0.8820 -1.9936 -0.4945
 4043TIP3   OH233619   7.084   1.407  13.272 -0.6353  0.2264 -0.5286
 4043TIP3    H133620   7.128   1.383  13.191 -0.8446 -0.7189 -0.3609
 4043TIP3    H233621   7.136   1.366  13.341 -1.0990  0.0976 -0.2542
 4044TIP3   OH233622   2.974   4.079  11.530  0.4549  0.2823  0.2233
 4044TIP3    H133623   2.897   4.044  11.485  0.9427 -0.7837  0.2064
 4044TIP3    H233624   3.019   4.131  11.463  1.2662 -1.4309 -0.6012
 4045TIP3   OH233625   0.376   2.495  11.240 -0.5070 -1.0072 -0.0709
 4045TIP3    H133626   0.336   2.431  11.181 -0.0905 -2.7059  1.4267
 4045TIP3    H233627   0.393   2.571  11.185 -0.2747 -2.4833 -2.1000
 4046TIP3   OH233628   0.722   4.013  13.886  0.0085 -0.6837 -0.0937
 4046TIP3    H133629   0.779   4.031  13.811 -0.2030 -0.1276 -0.1206
 4046TIP3    H233630   0.720   4.095  13.935 -2.3713 -0.0510 -1.1639
 4047TIP3   OH233631   6.866   3.555  13.381 -0.3317  0.3034  0.1545
 4047TIP3    H133632   6.775   3.573  13.359 -0.6267 -0.9573  0.2902
 4047TIP3    H233633   6.916   3.623  13.336 -1.3756  1.3800  0.5860
 4048TIP3   OH233634   2.137   4.829  12.551 -0.0060  0.3608 -0.0804
 4048TIP3    H133635   2.095   4.846  12.467  2.3621 -0.1972 -1.4248
 4048TIP3    H233636   2.138   4.733  12.559  2.6946  0.2769 -0.9945
 4049TIP3   OH233637   2.430   3.291  13.390  0.1718  0.7893  0.0538
 4049TIP3    H133638   2.429   3.268  13.483 -3.6991 -0.6884 -0.2845
 4049TIP3    H233639   2.392   3.379  13.386 -0.5634  0.4588 -0.2223
 4050TIP3   OH233640   0.385   0.413  12.607  0.2349 -0.1144 -0.0862
 4050TIP3    H133641   0.340   0.411  12.692  0.0227  1.5061 -0.1474
 4050TIP3    H233642   0.451   0.483  12.617  0.1764  0.1055 -1.2651
 4051TIP3   OH233643   0.186   3.119  11.469  0.3104 -0.1405  0.1893
 4051TIP3    H133644   0.134   3.122  11.389 -2.0287 -1.5835  1.6140
 4051TIP3    H233645   0.238   3.040  11.461 -0.6388 -0.8057  0.5071
 4052TIP3   OH233646   1.695   7.077  10.839  0.3523 -0.0074  0.1795
 4052TIP3    H133647   1.631   7.142  10.811 -0.6152 -0.5671  1.0551
 4052TIP3    H233648   1.761   7.128  10.886 -0.1964  0.3979  0.5237
 4053TIP3   OH233649   0.878   1.652  11.388  0.0310  0.4830  0.2726
 4053TIP3    H133650   0.970   1.661  11.411 -0.1623  0.3574  1.1260
 4053TIP3    H233651   0.832   1.711  11.448 -0.4339  0.6623 -0.2496
 4054TIP3   OH233652   0.858   0.888  11.730  0.2985  0.0654 -0.5006
 4054TIP3    H133653   0.921   0.960  11.737  0.3976 -0.2523  2.4238
 4054TIP3    H233654   0.903   0.813  11.768 -0.8035 -0.8942 -1.0461
 4055TIP3   OH233655   1.989   3.155  13.368 -0.4133  0.0509 -0.4692
 4055TIP3    H133656   1.992   3.114  13.281 -2.5410 -0.5568 -0.2725
 4055TIP3    H233657   2.030   3.091  13.426 -2.5729 -1.2769 -0.3780
 4056TIP3   OH233658   0.634   1.444  12.454 -0.3714  0.4463  0.0539
 4056TIP3    H133659   0.718   1.489  12.462 -0.2355  0.0989  0.6162
 4056TIP3    H233660   0.654   1.365  12.403 -0.5073  0.7505 -0.4742
 4057TIP3   OH233661   2.079   3.638  15.718  0.3967 -0.0710 -0.3523
 4057TIP3    H133662   2.005   3.601  15.670 -0.1768  0.9501 -0.2651
 4057TIP3    H233663   2.115   3.704  15.659  0.6278  0.1263  0.0084
 4058TIP3   OH233664   2.495   3.579  10.372  0.2003 -0.1299 -0.1336
 4058TIP3    H133665   2.511   3.638  10.298  0.7297 -0.7918 -0.5601
 4058TIP3    H233666   2.399   3.575  10.379  0.1478  0.0515 -0.6946
 4059TIP3   OH233667   3.197   1.911  14.192 -0.3906  1.1624  0.2267
 4059TIP3    H133668   3.261   1.873  14.252 -0.8002 -0.7456 -0.4875
 4059TIP3    H233669   3.249   1.957  14.127  0.2183  0.4580  0.2129
 4060TIP3   OH233670   6.653   6.723  13.077 -0.3227 -0.1327  0.5159
 4060TIP3    H133671   6.667   6.654  13.012  0.7106  1.2908 -0.8125
 4060TIP3    H233672   6.568   6.760  13.054  0.6082  1.2114 -0.8546
 4061TIP3   OH233673   1.499   3.696  10.421 -0.4203  0.4562 -0.2638
 4061TIP3    H133674   1.482   3.677  10.328 -0.5934 -0.2620 -0.0901
 4061TIP3    H233675   1.426   3.654  10.467  0.8482 -1.1147  0.3663
 4062TIP3   OH233676   1.781   3.678  11.559  0.0301  0.1470 -0.0554
 4062TIP3    H133677   1.765   3.711  11.470 -0.2712  0.9562  0.2873
 4062TIP3    H233678   1.863   3.721  11.585  0.6850 -0.9220 -0.3355
 4063TIP3   OH233679   2.332   3.047  12.854 -0.8236  0.0174 -0.3637
 4063TIP3    H133680   2.339   2.955  12.881 -1.1418 -0.1277 -0.7622
 4063TIP3    H233681   2.416   3.086  12.879 -0.3387 -0.6002 -0.9917
 4064TIP3   OH233682   2.695   7.062  13.050  0.1431 -0.4694  0.1223
 4064TIP3    H133683   2.663   7.150  13.070  0.6229 -0.0411 -0.9915
 4064TIP3    H233684   2.623   7.019  13.005  0.1642 -0.4025  0.0241
 4065TIP3   OH233685   7.099   0.521  13.511 -0.3137  0.0790 -0.5554
 4065TIP3    H133686   7.162   0.457  13.478  0.0069  0.0019  0.1873
 4065TIP3    H233687   7.150   0.602  13.520 -0.5960  0.3098 -1.0273
 4066TIP3   OH233688   1.162   3.064  10.755  0.3059  0.1392  0.0049
 4066TIP3    H133689   1.226   3.101  10.694 -0.1766  0.3122 -0.3940
 4066TIP3    H233690   1.187   3.100  10.841  0.5147  0.5021 -0.2067
 4067TIP3   OH233691   1.597   3.233  10.323 -0.2399  0.6234 -0.0739
 4067TIP3    H133692   1.582   3.315  10.368  2.3966  1.3725 -0.4675
 4067TIP3    H233693   1.538   3.171  10.365 -2.2418  2.6846  0.2439
 4068TIP3   OH233694   0.070   2.863  11.769  0.7004 -0.5115 -0.0081
 4068TIP3    H133695   0.066   2.830  11.680 -0.1644 -1.7164  0.4672
 4068TIP3    H233696  -0.019   2.857  11.802  0.5358  2.1349  0.1882
 4069TIP3   OH233697   3.127   3.843  11.273 -0.0597  0.7411 -0.0460
 4069TIP3    H133698   3.194   3.886  11.220 -0.3159  0.2371 -0.8017
 4069TIP3    H233699   3.088   3.779  11.213 -0.6521  0.4651  0.6337
 4070TIP3   OH233700   5.349   1.999  10.674  0.2845 -0.4497 -0.0731
 4070TIP3    H133701   5.348   1.978  10.580 -1.0417  0.3403 -0.2426
 4070TIP3    H233702   5.278   1.948  10.711  0.1289  0.0474  0.3197
 4071TIP3   OH233703   2.094   3.013  13.578 -0.0559  0.2688  0.1095
 4071TIP3    H133704   2.061   2.958  13.649 -1.5913  0.3852 -0.5020
 4071TIP3    H233705   2.099   3.100  13.617  0.7273  0.0223  0.5711
 4072TIP3   OH233706   1.283   6.311  13.547 -0.1891  0.5101  0.5141
 4072TIP3    H133707   1.300   6.257  13.624  1.0950  1.6851  1.0738
 4072TIP3    H233708   1.227   6.257  13.491  1.3167 -1.5116  0.9170
 4073TIP3   OH233709   2.090   1.033  11.471  0.2039  0.0573 -0.2159
 4073TIP3    H133710   2.109   0.988  11.553 -0.0678 -0.7360 -0.5877
 4073TIP3    H233711   2.113   0.969  11.403 -3.8689 -0.9779 -0.6990
 4074TIP3   OH233712   1.975   3.009  10.508 -0.1370 -0.3221 -0.1686
 4074TIP3    H133713   1.931   2.929  10.480  0.9793 -0.3969 -1.7928
 4074TIP3    H233714   1.951   3.073  10.441 -2.9453  1.4153  2.3253
 4075TIP3   OH233715   1.362   4.761  12.186  0.6889 -0.3480  0.2232
 4075TIP3    H133716   1.337   4.741  12.096  0.1069  0.7341  0.1414
 4075TIP3    H233717   1.451   4.727  12.194  0.1700 -1.8764 -0.2766
 4076TIP3   OH233718   1.092   7.189  11.442 -0.1180  0.3025  0.0963
 4076TIP3    H133719   1.063   7.113  11.393  0.1899  0.5343 -0.4482
 4076TIP3    H233720   1.138   7.244  11.378  0.2940  0.6043  0.6375
 4077TIP3   OH233721   6.150   2.513  13.493  0.0856  0.1062 -0.0828
 4077TIP3    H133722   6.234   2.507  13.448  0.1694 -0.6610  0.1691
 4077TIP3    H233723   6.122   2.604  13.480  0.7345  0.2410 -0.5515
 4078TIP3   OH233724   1.745   2.375  11.410 -0.2361  0.2660  0.0263
 4078TIP3    H133725   1.730   2.324  11.330  1.6402  0.6875 -0.6160
 4078TIP3    H233726   1.688   2.451  11.401 -0.0105  0.3253 -0.9282
 4079TIP3   OH233727   0.001   5.474  12.539 -0.3858  0.1589  0.0761
 4079TIP3    H133728   0.058   5.493  12.465  0.1948  0.4684  0.5940
 4079TIP3    H233729  -0.052   5.400  12.511  0.0645  0.0638 -0.5204
 4080TIP3   OH233730   7.233   2.856  13.270 -0.0278  0.3561  0.0863
 4080TIP3    H133731   7.258   2.948  13.259 -0.4926  0.5051  0.2427
 4080TIP3    H233732   7.138   2.856  13.256 -0.0513 -0.0734  0.2594
 4081TIP3   OH233733   6.807   1.845  13.222 -0.8129 -0.7141 -0.2268
 4081TIP3    H133734   6.901   1.827  13.220 -1.0575 -2.0705 -3.0517
 4081TIP3    H233735   6.799   1.937  13.197 -0.2294 -0.5542  0.1683
 4082TIP3   OH233736   0.741   2.602  12.975  0.0309  0.1146 -0.3614
 4082TIP3    H133737   0.723   2.695  12.984 -0.1236  0.1698 -1.2379
 4082TIP3    H233738   0.672   2.559  13.025  0.7817  0.5023  1.0275
 4083TIP3   OH233739   7.209   0.839  12.949  0.1201 -0.7796 -0.5387
 4083TIP3    H133740   7.159   0.774  12.998  0.4553 -0.9406 -0.4091
 4083TIP3    H233741   7.296   0.837  12.988 -0.1801  0.5600  0.2046
 4084TIP3   OH233742   2.669   0.047  12.457  0.0325  0.1127 -0.5105
 4084TIP3    H133743   2.622   0.097  12.390 -1.0735 -0.2563 -0.0233
 4084TIP3    H233744   2.630   0.076  12.540  0.2962 -0.5978 -0.1364
 4085TIP3   OH233745   2.252   3.832  10.646  0.0315 -0.4483 -0.3242
 4085TIP3    H133746   2.207   3.755  10.681  0.6890 -0.3974  0.6482
 4085TIP3    H233747   2.259   3.815  10.552 -0.6378 -1.1589 -0.2459
 4086TIP3   OH233748   1.417   4.400  13.614  0.1913  0.0750  0.2481
 4086TIP3    H133749   1.496   4.382  13.664  0.8645  2.0757 -0.0475
 4086TIP3    H233750   1.438   4.373  13.524  0.7287  1.0442  0.0728
 4087TIP3   OH233751   0.011   4.698  13.003 -0.1939  0.1098  0.3776
 4087TIP3    H133752  -0.064   4.686  12.945  0.0762  1.4708 -0.2839
 4087TIP3    H233753   0.084   4.719  12.944  0.9210 -2.0283  0.9408
 4088TIP3   OH233754   3.147   4.091  14.188  0.3810 -0.8250  0.2260
 4088TIP3    H133755   3.218   4.059  14.244  2.3238  2.4044 -0.2353
 4088TIP3    H233756   3.138   4.183  14.213 -0.0136  0.1884 -3.4502
 4089TIP3   OH233757   1.556   2.902  11.731 -0.2545 -0.2121 -0.5930
 4089TIP3    H133758   1.491   2.873  11.795 -0.3920 -1.0684 -1.1053
 4089TIP3    H233759   1.506   2.917  11.651 -0.2894  2.1508 -0.1476
 4090TIP3   OH233760   0.434   1.524  13.185 -0.5291  0.7046 -0.0554
 4090TIP3    H133761   0.366   1.538  13.252 -1.7109 -1.2759 -0.7937
 4090TIP3    H233762   0.392   1.549  13.103  0.5319  1.9989 -0.2076
 4091TIP3   OH233763   0.872   4.141  11.872  0.5183 -0.4941 -0.1654
 4091TIP3    H133764   0.837   4.152  11.960 -0.0826 -0.1722 -0.4365
 4091TIP3    H233765   0.937   4.072  11.880  0.3386 -0.5903  0.4949
 4092TIP3   OH233766   0.530   6.914  13.184 -0.7336 -0.0612  0.3403
 4092TIP3    H133767   0.477   6.945  13.111 -0.1830  1.5080  0.5950
 4092TIP3    H233768   0.597   6.859  13.144 -1.8529 -1.1494 -0.0903
 4093TIP3   OH233769   1.094   1.826  14.305  0.2337  0.0973  0.1325
 4093TIP3    H133770   1.150   1.900  14.328  1.7793 -1.1961  0.6067
 4093TIP3    H233771   1.040   1.859  14.234  2.1661  1.1308 -0.9039
 4094TIP3   OH233772   2.154   5.128  12.819  0.1055  0.1740 -0.0371
 4094TIP3    H133773   2.175   5.173  12.737 -0.8091 -0.3561 -0.5813
 4094TIP3    H233774   2.155   5.035  12.795  0.5437 -0.0225  0.7305
 4095TIP3   OH233775   6.505   1.549  13.464  0.5156  0.0420 -0.1318
 4095TIP3    H133776   6.520   1.458  13.441  0.2114 -0.2244  0.7081
 4095TIP3    H233777   6.415   1.567  13.437  0.0192 -0.3895  1.1836
 4096TIP3   OH233778   1.962   1.176  13.416 -0.2535 -0.4805  0.5367
 4096TIP3    H133779   1.918   1.241  13.470  0.9683  0.3149  0.5876
 4096TIP3    H233780   1.900   1.103  13.410 -1.2291  0.2872  1.2801
 4097TIP3   OH233781   2.563   3.919  12.716 -0.1092 -0.1162 -0.7957
 4097TIP3    H133782   2.629   3.973  12.673 -0.2302  0.0556 -0.7661
 4097TIP3    H233783   2.604   3.833  12.725 -0.3484 -0.3452 -1.9075
 4098TIP3   OH233784   2.429   3.334  11.523  0.3928 -0.2267  0.5061
 4098TIP3    H133785   2.355   3.297  11.571  0.4957 -0.4099  0.5273
 4098TIP3    H233786   2.395   3.354  11.436  0.4485 -0.7904  0.3546
 4099TIP3   OH233787   0.704   2.752  11.268 -0.1620 -0.0304 -0.2153
 4099TIP3    H133788   0.752   2.783  11.192  1.9151  0.0197  1.0790
 4099TIP3    H233789   0.733   2.809  11.340 -0.1939 -1.6637  1.1195
 4100TIP3   OH233790   2.837   7.079  11.324  0.0146  0.3959  0.0599
 4100TIP3    H133791   2.798   7.163  11.299 -0.5129 -0.0916 -0.7620
 4100TIP3    H233792   2.879   7.047  11.244 -0.8339 -0.6957  0.0348
 4101TIP3   OH233793   2.884   2.320  12.732 -0.7492 -0.0061  0.2172
 4101TIP3    H133794   2.972   2.292  12.706 -1.1988 -0.0434 -1.3008
 4101TIP3    H233795   2.898   2.367  12.815  0.5687 -0.8576  0.4981
 4102TIP3   OH233796   1.052   2.886  13.129  0.9250  0.5313 -0.2107
 4102TIP3    H133797   1.041   2.852  13.218 -0.7532 -0.0274 -0.5945
 4102TIP3    H233798   1.145   2.879  13.111  0.7192 -3.5855 -0.1156
 4103TIP3   OH233799   1.596   3.704  13.232 -0.0245 -0.0961 -0.0732
 4103TIP3    H133800   1.629   3.757  13.159  0.3883 -0.9873 -0.5470
 4103TIP3    H233801   1.675   3.673  13.276 -0.2586  2.0138  1.9404
 4104TIP3   OH233802   2.247   2.331  10.954  0.4031 -0.2783 -0.0898
 4104TIP3    H133803   2.177   2.306  11.014  0.5016  0.9882  0.5751
 4104TIP3    H233804   2.208   2.396  10.897  0.9450  0.2204  0.0939
 4105TIP3   OH233805   6.644   7.199  12.259  0.1863  0.0607 -0.3228
 4105TIP3    H133806   6.659   7.153  12.176  2.4412 -0.3869  0.3092
 4105TIP3    H233807   6.705   7.159  12.320 -1.1029  0.7468  1.4397
 4106TIP3   OH233808   5.786   6.820  12.594  0.3877 -0.6365 -0.7165
 4106TIP3    H133809   5.833   6.902  12.580 -0.2523 -0.3320 -1.1455
 4106TIP3    H233810   5.774   6.783  12.506  0.9145 -1.3339 -0.5036
 4107TIP3   OH233811   1.851   0.469  11.461  0.0036 -0.2738 -0.5692
 4107TIP3    H133812   1.820   0.382  11.432 -0.2565 -1.0647  1.9612
 4107TIP3    H233813   1.937   0.478  11.420 -1.3589 -0.2475 -3.5897
 4108TIP3   OH233814   7.033   3.853  11.905  0.0364 -0.0524  0.2415
 4108TIP3    H133815   6.978   3.774  11.911 -0.7542  0.4805  0.0781
 4108TIP3    H233816   7.010   3.892  11.821  0.9400 -0.0183  0.0036
 4109TIP3   OH233817   0.565   2.879  12.421 -0.2862  0.1545  0.0195
 4109TIP3    H133818   0.641   2.934  12.443 -0.6150  0.1645  1.1826
 4109TIP3    H233819   0.532   2.915  12.339  1.6144 -0.5299 -1.0953
 4110TIP3   OH233820   2.970   4.495  12.723 -0.7946  0.0164  0.0906
 4110TIP3    H133821   3.062   4.519  12.733 -0.3401 -0.6081 -2.2329
 4110TIP3    H233822   2.965   4.405  12.755 -0.3342 -0.3475 -0.8306
 4111TIP3   OH233823   0.979   1.791  12.286 -0.4281 -0.1594 -0.1689
 4111TIP3    H133824   0.990   1.732  12.211 -1.6562  0.2750 -0.7000
 4111TIP3    H233825   1.068   1.806  12.318  0.0955 -0.4121 -1.4853
 4112TIP3   OH233826   0.476   0.491  13.107  0.0361 -0.0311  0.5767
 4112TIP3    H133827   0.486   0.397  13.097 -2.5398 -0.3089  0.1762
 4112TIP3    H233828   0.537   0.529  13.044  1.6889 -1.3907  1.3329
 4113TIP3   OH233829   1.959   2.406  11.856  0.3865 -0.3305  0.3894
 4113TIP3    H133830   1.989   2.442  11.772  0.4878  0.5143  0.7819
 4113TIP3    H233831   1.915   2.479  11.899  0.5099 -0.7056  1.1619
 4114TIP3   OH233832   2.112   0.927  14.193  0.5435  0.1835  0.1750
 4114TIP3    H133833   2.030   0.890  14.225  0.1777  1.8186  1.2484
 4114TIP3    H233834   2.175   0.910  14.263  1.1545 -1.1485 -0.6850
 4115TIP3   OH233835   6.467   3.798  11.176  0.1166  0.3487 -0.2388
 4115TIP3    H133836   6.424   3.729  11.125 -0.7487  1.5122 -1.0885
 4115TIP3    H233837   6.496   3.862  11.111 -0.1539  1.3832  0.6503
 4116TIP3   OH233838   3.017   5.845  13.317  0.2175  0.4709  0.1509
 4116TIP3    H133839   3.093   5.904  13.322  0.1678  0.6586 -1.2426
 4116TIP3    H233840   2.947   5.895  13.359  0.1091  1.5221 -1.2555
 4117TIP3   OH233841   2.428   1.784  13.226  0.2366  0.8233  0.7222
 4117TIP3    H133842   2.473   1.706  13.259 -0.9786 -0.4636 -0.5970
 4117TIP3    H233843   2.340   1.777  13.261 -0.5177  0.4261 -1.2013
 4118TIP3   OH233844   2.008   2.553  10.515 -0.3882  0.0055 -0.1770
 4118TIP3    H133845   1.944   2.517  10.453 -1.0282  1.4091 -0.3457
 4118TIP3    H233846   2.005   2.647  10.501  1.4404  0.1229  0.1050
 4119TIP3   OH233847   7.073   2.596  13.037 -0.5696 -0.3451 -0.1429
 4119TIP3    H133848   7.162   2.605  13.072  0.4160  0.6492 -2.8035
 4119TIP3    H233849   7.072   2.653  12.960 -3.4365 -0.5617 -0.2961
 4120TIP3   OH233850   2.571   6.964  15.731 -0.2646  0.7201 -0.4123
 4120TIP3    H133851   2.629   6.936  15.660  2.0086  0.3183  1.5151
 4120TIP3    H233852   2.601   7.052  15.754 -1.0670  0.9039 -0.0458
 4121TIP3   OH233853   1.042   4.367  11.916  0.2122  0.2066  0.0209
 4121TIP3    H133854   0.975   4.299  11.926  0.8889 -0.5647 -0.6248
 4121TIP3    H233855   1.024   4.406  11.831 -0.8318  1.5754  0.8550
 4122TIP3   OH233856   6.963   3.478  12.754  0.2393 -0.1261 -0.5886
 4122TIP3    H133857   6.970   3.563  12.710 -0.4607 -0.4018 -1.2635
 4122TIP3    H233858   6.877   3.481  12.796 -0.0348 -0.7052 -1.0912
 4123TIP3   OH233859   1.770   0.768  13.756  0.9570  0.1583  0.2193
 4123TIP3    H133860   1.858   0.783  13.721  1.0480 -1.8531 -0.4810
 4123TIP3    H233861   1.782   0.767  13.851  1.4059  1.4442  0.1939
 4124TIP3   OH233862   1.388   4.493  12.645  0.1988 -0.3825 -0.6991
 4124TIP3    H133863   1.387   4.461  12.555  0.6380  0.0761 -0.8634
 4124TIP3    H233864   1.481   4.497  12.668  0.0641 -1.2712  0.0515
 4125TIP3   OH233865   0.973   6.244  10.679  0.0796  0.7143  0.0885
 4125TIP3    H133866   0.936   6.327  10.650 -0.1276  0.6678  0.2239
 4125TIP3    H233867   0.900   6.197  10.718  0.0262  0.1349 -0.7063
 4126TIP3   OH233868   0.983   3.646  10.601 -0.4374  0.5210 -0.0864
 4126TIP3    H133869   1.009   3.702  10.528  1.7247 -1.0956 -0.6273
 4126TIP3    H233870   0.967   3.706  10.674 -1.5799  2.0692 -1.5760
 4127TIP3   OH233871   2.943   3.422  10.857  0.3372 -0.2242  0.3135
 4127TIP3    H133872   2.970   3.414  10.766  0.0927  1.4334  0.0802
 4127TIP3    H233873   2.947   3.332  10.891  0.9781 -0.7756 -1.1568
 4128TIP3   OH233874   7.267   0.321  12.842 -0.2676  0.7074 -0.1028
 4128TIP3    H133875   7.301   0.329  12.753 -1.4925  0.1625 -0.6324
 4128TIP3    H233876   7.248   0.228  12.853 -2.0164  1.0526 -0.0119
 4129TIP3   OH233877   0.460   3.900  11.167 -0.4761 -0.4732 -0.0103
 4129TIP3    H133878   0.541   3.849  11.166  0.1323  0.5030 -1.6965
 4129TIP3    H233879   0.394   3.839  11.133 -0.4942 -1.3203  1.5178
 4130TIP3   OH233880   3.614   6.555  13.346 -0.1269 -0.1553  0.2675
 4130TIP3    H133881   3.551   6.588  13.283 -1.2489 -0.4866  1.1905
 4130TIP3    H233882   3.690   6.613  13.337 -1.2381  1.3603  0.3758
 4131TIP3   OH233883   1.534   2.267  11.605 -0.3825  0.3279  0.8522
 4131TIP3    H133884   1.586   2.319  11.544 -0.3631 -2.7261 -1.8741
 4131TIP3    H233885   1.598   2.234  11.668  0.7700 -1.7921 -1.3335
 4132TIP3   OH233886   0.420   2.214  12.031 -0.1180  1.0004  0.1903
 4132TIP3    H133887   0.446   2.148  12.096  0.4465  1.2756  0.2510
 4132TIP3    H233888   0.325   2.212  12.031 -0.1056 -0.3904 -0.3975
 4133TIP3   OH233889   2.333   5.695  14.521 -0.0967 -0.2639 -0.5690
 4133TIP3    H133890   2.371   5.621  14.474 -1.0514  0.3168 -2.3005
 4133TIP3    H233891   2.310   5.660  14.607  1.5494 -1.3808 -0.5756
 4134TIP3   OH233892   1.437   0.494  11.158  0.0808  0.2847  0.3360
 4134TIP3    H133893   1.522   0.536  11.171  0.5339  0.0228 -1.6207
 4134TIP3    H233894   1.373   0.562  11.178  0.7330  0.5070  1.7447
 4135TIP3   OH233895   1.304   3.587  11.968  0.2368 -0.0725 -0.0114
 4135TIP3    H133896   1.369   3.637  12.017 -0.7214  1.2228 -0.0504
 4135TIP3    H233897   1.222   3.601  12.014 -0.1125 -1.3202 -0.2341
 4136TIP3   OH233898   5.257   2.583  11.356 -0.0631  0.0596 -0.6029
 4136TIP3    H133899   5.273   2.677  11.343  0.7001  0.0355  0.1257
 4136TIP3    H233900   5.171   2.568  11.317 -0.3472  1.1357 -0.4124
 4137TIP3   OH233901   6.836   3.387  11.096 -0.0286  0.2921 -0.2360
 4137TIP3    H133902   6.828   3.471  11.143  0.5327  0.0245  0.3429
 4137TIP3    H233903   6.831   3.411  11.004 -1.0122  0.8434 -0.0445
 4138TIP3   OH233904   1.413   2.100  12.828  0.1674 -0.5772  0.9080
 4138TIP3    H133905   1.497   2.116  12.870  0.9252  1.5061 -1.2626
 4138TIP3    H233906   1.360   2.177  12.850 -0.6574 -1.1785  1.0455
 4139TIP3   OH233907   0.525   4.617  13.431 -0.1424  0.0169 -0.6088
 4139TIP3    H133908   0.477   4.694  13.400 -1.0369 -0.4607 -0.4440
 4139TIP3    H233909   0.568   4.646  13.511 -0.7441  0.2621 -0.3695
 4140TIP3   OH233910   0.257   2.762  13.385  0.1027  0.1212  0.6643
 4140TIP3    H133911   0.173   2.726  13.413  0.9449 -0.6370  2.2526
 4140TIP3    H233912   0.242   2.857  13.381 -0.9669 -0.0537  0.4304
 4141TIP3   OH233913   0.977   1.295  13.160 -0.6403 -0.1102 -0.0107
 4141TIP3    H133914   0.968   1.371  13.103  0.4964  0.3220  0.3779
 4141TIP3    H233915   1.070   1.292  13.182 -0.4090 -2.4685 -1.1701
 4142TIP3   OH233916   7.054   2.681  12.588 -0.3434 -0.5022 -0.1629
 4142TIP3    H133917   7.050   2.586  12.594 -0.1339 -0.5095 -0.1670
 4142TIP3    H233918   6.986   2.704  12.524 -0.3675 -0.6509 -0.1899
 4143TIP3   OH233919   1.519   1.646  11.663  1.0997  0.2061  0.0408
 4143TIP3    H133920   1.598   1.617  11.616  0.6637 -0.2666 -0.4077
 4143TIP3    H233921   1.507   1.737  11.637  0.9171 -0.0254 -0.6883
 4144TIP3   OH233922   0.299   0.156  12.597 -0.4229  0.7026 -0.0925
 4144TIP3    H133923   0.311   0.249  12.579  1.4729  0.9265  2.0306
 4144TIP3    H233924   0.357   0.112  12.535 -1.7198  0.8754 -1.4615
 4145TIP3   OH233925   3.453   1.766  12.219  0.5137  0.2521  0.1900
 4145TIP3    H133926   3.399   1.794  12.145  1.3487  0.1472 -0.4686
 4145TIP3    H233927   3.396   1.708  12.269  0.1925 -0.3343 -0.8214
 4146TIP3   OH233928   7.019   4.450  11.863  0.5618 -0.1607 -0.5404
 4146TIP3    H133929   7.039   4.474  11.953 -0.4017  0.2413 -0.4272
 4146TIP3    H233930   7.059   4.364  11.851 -0.1161 -0.6415  0.5729
 4147TIP3   OH233931   6.997   2.840  10.694 -0.3894 -0.6515  0.0961
 4147TIP3    H133932   6.992   2.924  10.648  0.8133 -0.6817 -0.1143
 4147TIP3    H233933   6.916   2.835  10.744 -0.9745  0.1337 -0.7475
 4148TIP3   OH233934   6.410   3.354  13.354 -0.5090 -0.0451  0.2567
 4148TIP3    H133935   6.462   3.290  13.305 -0.8625  0.2174 -0.4634
 4148TIP3    H233936   6.471   3.426  13.371  0.2778 -1.1359  2.2458
 4149TIP3   OH233937   0.080   3.079  13.558  0.5672  0.3058  0.6237
 4149TIP3    H133938   0.132   3.081  13.478 -0.1313  0.1448  0.1598
 4149TIP3    H233939   0.001   3.128  13.537  0.9385  1.3832  1.6308
 4150TIP3   OH233940   3.977   2.360  13.741  0.5307  0.1926 -0.3407
 4150TIP3    H133941   3.936   2.303  13.806 -0.2927  1.2186  0.0689
 4150TIP3    H233942   4.035   2.303  13.691  0.0358 -0.9034  0.3248
 4151TIP3   OH233943   1.046   1.365  12.566  0.1910  0.1992  0.6286
 4151TIP3    H133944   1.086   1.336  12.649  2.2091  1.1942  0.0258
 4151TIP3    H233945   1.112   1.346  12.500 -1.8786 -1.6945 -0.9625
 4152TIP3   OH233946   1.761   5.485  12.319  0.2503 -0.3832 -0.2422
 4152TIP3    H133947   1.762   5.498  12.414  1.9424 -0.7841 -0.1926
 4152TIP3    H233948   1.853   5.489  12.293 -0.1265 -1.1341 -1.7586
 4153TIP3   OH233949   0.132   1.185  11.360  0.3345  0.2198  0.2534
 4153TIP3    H133950   0.158   1.108  11.411 -0.1069  0.3204  0.6319
 4153TIP3    H233951   0.200   1.193  11.293  0.3114 -0.5865  0.1240
 4154TIP3   OH233952   1.689   3.882  11.872 -0.4520  0.2601 -0.5364
 4154TIP3    H133953   1.618   3.877  11.937  0.6396 -2.8983  0.5211
 4154TIP3    H233954   1.696   3.793  11.838  1.6812  0.9936 -2.1076
 4155TIP3   OH233955   0.497   7.208  12.638 -0.6166  0.3677 -0.3319
 4155TIP3    H133956   0.577   7.155  12.644 -0.4694  0.5875 -0.3496
 4155TIP3    H233957   0.509   7.260  12.559 -1.0274 -0.0106 -0.6460
 4156TIP3   OH233958   0.350   6.539  12.548 -0.3304 -0.0167  0.2642
 4156TIP3    H133959   0.340   6.560  12.641 -2.1584 -0.4240  0.1825
 4156TIP3    H233960   0.285   6.594  12.505  0.6751  0.3418 -0.8195
 4157TIP3   OH233961   5.841   1.632  13.653  0.0334  0.5529  0.9449
 4157TIP3    H133962   5.794   1.711  13.627 -0.3023  0.9893  2.7956
 4157TIP3    H233963   5.883   1.601  13.573  0.4037  2.7720  0.2583
 4158TIP3   OH233964   4.448   5.028  12.363 -0.9210 -0.1726 -0.4722
 4158TIP3    H133965   4.406   5.083  12.430  0.1923  0.6358 -0.4100
 4158TIP3    H233966   4.401   4.945  12.366 -1.7244  0.3112  0.4184
 4159TIP3   OH233967   2.351   1.525  12.169 -0.2194 -0.0959  0.0328
 4159TIP3    H133968   2.312   1.583  12.104 -0.4487  0.8644  1.0152
 4159TIP3    H233969   2.365   1.443  12.123 -1.3743  0.2405 -0.9281
 4160TIP3   OH233970   6.943   1.629  12.815 -0.2801  0.1559 -0.2463
 4160TIP3    H133971   6.975   1.539  12.823 -0.5797  0.1050  0.4141
 4160TIP3    H233972   6.873   1.624  12.751 -1.6099 -0.4271  1.2286
 4161TIP3   OH233973   0.195   0.214  11.905  0.3309  0.3094 -0.5880
 4161TIP3    H133974   0.241   0.193  11.986 -1.8073 -0.3825  0.4668
 4161TIP3    H233975   0.245   0.168  11.837 -0.1548 -2.4073  0.8382
 4162TIP3   OH233976   0.527   6.099  11.299 -0.5888 -0.5244  0.4479
 4162TIP3    H133977   0.519   6.195  11.296 -0.9915 -0.5346  0.9438
 4162TIP3    H233978   0.481   6.075  11.380 -1.0493 -1.1942 -0.0158
 4163TIP3   OH233979   0.512   1.947  13.061 -0.1123 -0.0481  0.1317
 4163TIP3    H133980   0.443   2.011  13.041 -0.0736 -0.5641 -1.7996
 4163TIP3    H233981   0.482   1.866  13.019  1.7430 -0.2331 -0.9010
 4164TIP3   OH233982   1.958   4.885  12.312 -0.2136  0.1195  0.1138
 4164TIP3    H133983   1.873   4.899  12.354 -0.4359  0.5297 -0.4650
 4164TIP3    H233984   1.936   4.848  12.226  0.2060  0.0187  0.0528
 4165TIP3   OH233985   0.204   1.629  12.348  0.7318  0.6937 -0.2060
 4165TIP3    H133986   0.261   1.567  12.303 -2.0634 -1.4572 -0.9443
 4165TIP3    H233987   0.186   1.696  12.282  0.8889  0.3567 -0.6007
 4166TIP3   OH233988   7.237   0.050  15.352  0.3575 -0.2335  0.2248
 4166TIP3    H133989   7.246   0.082  15.442 -1.0343 -0.4925  0.4628
 4166TIP3    H233990   7.285   0.114  15.299 -0.0455  0.7147  0.9921
 4167TIP3   OH233991   1.599   3.560  13.551  0.0178  0.5627 -0.6146
 4167TIP3    H133992   1.663   3.631  13.558 -0.6814  1.1696 -0.2227
 4167TIP3    H233993   1.595   3.541  13.458  0.2583  1.0072 -0.7192
 4168TIP3   OH233994   2.220   2.617  15.871  0.8926  0.0415 -0.5070
 4168TIP3    H133995   2.158   2.611  15.799  0.8381  1.9406 -0.6613
 4168TIP3    H233996   2.219   2.531  15.913 -1.8700  0.0576 -0.5010
 4169TIP3   OH233997   0.786   3.554  11.676  0.2874 -0.2547 -0.5132
 4169TIP3    H133998   0.867   3.551  11.726  0.3431 -0.0823 -0.5948
 4169TIP3    H233999   0.719   3.521  11.736  0.1578  1.0378  0.0545
 4170TIP3   OH234000   0.017   1.951  11.186 -0.3660 -0.2701 -0.1818
 4170TIP3    H134001  -0.038   2.029  11.175 -0.8531 -0.4826  0.8001
 4170TIP3    H234002   0.103   1.986  11.208 -0.5515 -0.0105  0.1228
 4171TIP3   OH234003   1.662   1.903  11.066 -0.0512  0.3188 -0.3689
 4171TIP3    H134004   1.714   1.836  11.110  0.3015 -0.1760 -1.5147
 4171TIP3    H234005   1.623   1.954  11.137  2.6551  1.2290  0.5476
 4172TIP3   OH234006   1.437   1.871  14.103 -0.1332 -0.2796 -0.8720
 4172TIP3    H134007   1.493   1.793  14.115  0.6889  0.1095 -2.0924
 4172TIP3    H234008   1.474   1.915  14.027  0.8928  2.5824  1.1959
 4173TIP3   OH234009   4.284   0.305  10.802  0.0637  0.4543 -0.6601
 4173TIP3    H134010   4.380   0.304  10.803  0.0944  2.0557  1.2008
 4173TIP3    H234011   4.260   0.274  10.715  2.2065 -3.2054 -0.0222
 4174TIP3   OH234012   2.199   3.539  13.718  0.8166  0.4816 -0.2519
 4174TIP3    H134013   2.225   3.478  13.787 -0.4291  1.9172  1.5662
 4174TIP3    H234014   2.210   3.625  13.758 -0.8377  1.3022 -1.5152
 4175TIP3   OH234015   2.186   2.597  11.697 -0.2124 -0.1792  0.0703
 4175TIP3    H134016   2.198   2.679  11.650 -3.2381  0.5699  0.4564
 4175TIP3    H234017   2.199   2.529  11.632 -2.1733  0.7780 -1.3794
 4176TIP3   OH234018   1.174   1.926  12.684 -0.2291  0.1889  0.4311
 4176TIP3    H134019   1.168   1.835  12.715 -0.2125 -0.6754 -2.0049
 4176TIP3    H234020   1.254   1.959  12.724  2.1073 -2.2525 -2.0063
 4177TIP3   OH234021   6.934   3.339  10.223  0.9169 -0.0769 -0.2260
 4177TIP3    H134022   6.939   3.419  10.171 -2.0996  0.4777  0.2343
 4177TIP3    H234023   7.020   3.299  10.213  0.7847  0.4942 -4.8583
 4178TIP3   OH234024   0.362   2.576  10.952  0.0234  0.5682  0.1927
 4178TIP3    H134025   0.415   2.575  10.873  0.3714  0.5907  0.4221
 4178TIP3    H234026   0.387   2.657  10.996  1.1545 -0.3148  1.2143
 4179TIP3   OH234027   0.824   2.758  14.834  0.9149  0.2361  0.2117
 4179TIP3    H134028   0.905   2.726  14.875 -0.0882 -1.4168  0.9514
 4179TIP3    H234029   0.781   2.680  14.801 -0.2671  1.1314 -0.4221
 4180TIP3   OH234030   3.165   4.213  13.080 -0.7432 -0.7947 -0.3726
 4180TIP3    H134031   3.092   4.156  13.105  1.3541 -3.2747  0.2730
 4180TIP3    H234032   3.222   4.158  13.026  1.6561  0.5084  0.7443
 4181TIP3   OH234033   6.114   1.415  13.134 -0.5176 -0.1871  0.3005
 4181TIP3    H134034   6.193   1.390  13.086  0.1628  1.2910  0.6444
 4181TIP3    H234035   6.128   1.381  13.223  0.5062  1.5278  0.8269
 4182TIP3   OH234036   1.375   1.054  13.726 -0.1406 -0.1883  0.0933
 4182TIP3    H134037   1.299   1.111  13.717 -0.3769 -0.1623  2.1941
 4182TIP3    H234038   1.338   0.966  13.736  0.1178 -0.1826  1.0573
 4183TIP3   OH234039   2.309   1.866  11.789  0.2361 -0.4463 -0.3828
 4183TIP3    H134040   2.262   1.946  11.811 -0.9313 -1.7835  2.2037
 4183TIP3    H234041   2.259   1.828  11.716 -1.1154 -0.4574  0.5256
 4184TIP3   OH234042   1.617   3.385  14.240 -0.5520  0.3093 -0.1775
 4184TIP3    H134043   1.579   3.344  14.163  1.4521  0.6514 -1.3782
 4184TIP3    H234044   1.682   3.446  14.206  0.9395 -0.1015  1.7874
 4185TIP3   OH234045   1.639   2.609  13.395  0.0815 -0.7472  0.5192
 4185TIP3    H134046   1.673   2.677  13.452 -0.7663 -0.3829  0.5893
 4185TIP3    H234047   1.643   2.647  13.307  0.3310 -0.8955  0.4653
 4186TIP3   OH234048   2.031   0.927  15.686  0.1177 -0.2654 -0.3049
 4186TIP3    H134049   2.102   0.906  15.746  0.0433 -0.7076 -0.3740
 4186TIP3    H234050   1.991   0.843  15.664  0.1787 -0.1166 -1.0200
 4187TIP3   OH234051   1.828   2.713  12.908 -0.4251  0.4155  0.0093
 4187TIP3    H134052   1.869   2.789  12.866  0.5738 -0.5282 -0.7296
 4187TIP3    H234053   1.882   2.696  12.985 -0.7604  0.5568  0.2798
 4188TIP3   OH234054   2.792   2.754  15.104 -0.2943 -0.4047  0.3657
 4188TIP3    H134055   2.829   2.841  15.092 -1.2314 -0.1286 -0.4952
 4188TIP3    H234056   2.715   2.768  15.160  0.2735 -0.8464  1.2768
 4189TIP3   OH234057   1.552   3.458  13.132  0.0882  0.6609  0.3266
 4189TIP3    H134058   1.522   3.540  13.172 -0.3406  0.5599  0.2123
 4189TIP3    H234059   1.633   3.481  13.086 -0.4239  1.1666 -0.3095
 4190TIP3   OH234060   2.056   0.984  14.558 -0.3195  0.1525  0.2776
 4190TIP3    H134061   1.974   0.937  14.542 -1.2529  1.7271  0.3499
 4190TIP3    H234062   2.043   1.070  14.518  2.4548 -0.5880 -2.4108
 4191TIP3   OH234063   1.939   6.649   0.184 -0.2277  0.0452 -0.3594
 4191TIP3    H134064   1.876   6.698   0.131  1.4666  0.9192 -1.5983
 4191TIP3    H234065   1.985   6.593   0.122  0.9579  0.2086  0.3523
 4192TIP3   OH234066   1.378   1.869  11.843  0.9752 -0.2239 -0.4329
 4192TIP3    H134067   1.372   1.959  11.875  1.8442  0.2448 -1.5691
 4192TIP3    H234068   1.308   1.862  11.777  1.6515 -0.0135 -1.1856
 4193TIP3   OH234069   2.130   3.516  11.448  0.3743  0.8479  0.4963
 4193TIP3    H134070   2.214   3.562  11.445  0.6255  0.4734  1.4292
 4193TIP3    H234071   2.120   3.479  11.360  0.3541  2.3445 -0.1390
 4194TIP3   OH234072   1.733   3.278  13.376  0.0639  0.0084  0.4232
 4194TIP3    H134073   1.743   3.358  13.323  0.8417 -0.5346 -0.2598
 4194TIP3    H234074   1.817   3.232  13.365 -0.8367 -1.5166 -0.2043
 4195TIP3   OH234075   6.351   3.860  10.354  0.1759  0.1911 -0.2208
 4195TIP3    H134076   6.317   3.949  10.361  3.5697  1.5606  0.1192
 4195TIP3    H234077   6.375   3.837  10.444 -0.1607 -0.8344 -0.3951
 4196TIP3   OH234078   1.217   3.185  10.990  0.4119 -0.0586  0.3996
 4196TIP3    H134079   1.226   3.098  11.029  1.8194  0.0930  0.4147
 4196TIP3    H234080   1.169   3.236  11.055 -0.0674 -0.7007  0.5581
 4197TIP3   OH234081   1.964   4.551  12.142 -0.4564  0.1309 -0.0961
 4197TIP3    H134082   1.889   4.610  12.130 -0.5118  0.5351  2.0721
 4197TIP3    H234083   2.037   4.609  12.164  0.5376 -0.2612 -2.2317
 4198TIP3   OH234084   1.650   4.504  12.683 -0.2406  0.0392 -0.3352
 4198TIP3    H134085   1.679   4.510  12.592  2.3457  1.6461  0.5315
 4198TIP3    H234086   1.701   4.432  12.719 -1.8276 -1.0984 -0.3402
 4199TIP3   OH234087   2.836   4.761  13.383 -0.6546 -0.3429  0.0013
 4199TIP3    H134088   2.817   4.799  13.297 -2.3662 -0.1974  0.4335
 4199TIP3    H234089   2.750   4.746  13.422  0.1075 -0.7916  1.5286
 4200TIP3   OH234090   1.271   3.522  12.874 -0.3192  1.3176  0.4812
 4200TIP3    H134091   1.213   3.581  12.922 -1.4576  0.6272 -0.0274
 4200TIP3    H234092   1.227   3.437  12.877  1.2386  0.5106  1.0919
 4201TIP3   OH234093   1.272   4.168  12.088  0.2278 -0.3113  0.6173
 4201TIP3    H134094   1.197   4.223  12.110  0.2906 -0.1166  0.3480
 4201TIP3    H234095   1.247   4.080  12.115 -0.0403 -0.2228  0.6528
 4202TIP3   OH234096   0.970   1.887  11.838  0.4708  0.2741 -0.2515
 4202TIP3    H134097   1.012   1.813  11.881  1.5860  0.4665 -0.9994
 4202TIP3    H234098   0.904   1.917  11.901 -1.3924 -2.6040 -0.7520
 4203TIP3   OH234099   1.593   1.442  11.882  0.2451 -0.2792  0.8469
 4203TIP3    H134100   1.550   1.381  11.942 -1.0718  0.8294  1.0401
 4203TIP3    H234101   1.554   1.527  11.901 -1.3445 -0.1374 -2.6281
 4204TIP3   OH234102   6.745   2.611  14.238  1.0063 -0.5583  0.5884
 4204TIP3    H134103   6.797   2.575  14.310  0.3868  0.0976  1.3649
 4204TIP3    H234104   6.674   2.658  14.280 -0.8766 -2.3526 -0.4484
 4205TIP3   OH234105   1.325   2.334  12.920 -0.1707  0.0829  0.1077
 4205TIP3    H134106   1.289   2.343  13.008 -1.4763  0.6673 -0.4676
 4205TIP3    H234107   1.249   2.345  12.862  0.4993 -1.2191 -1.0587
 4206TIP3   OH234108   0.785   6.822  11.409 -0.0197 -0.6983  0.4475
 4206TIP3    H134109   0.794   6.734  11.444 -1.3913 -0.6173  1.0477
 4206TIP3    H234110   0.694   6.846  11.429  0.0439  0.4535 -0.6023
 4207TIP3   OH234111   1.291   2.131  11.944 -0.1328 -0.2264 -0.0071
 4207TIP3    H134112   1.196   2.140  11.951 -0.2668 -1.5986 -0.0725
 4207TIP3    H234113   1.325   2.196  12.006 -1.1443 -0.9073  1.3009
 4208TIP3   OH234114   1.885   5.679  11.194  0.2141  0.2395  0.0091
 4208TIP3    H134115   1.929   5.655  11.113  3.5170  0.8280  1.5310
 4208TIP3    H234116   1.871   5.596  11.240  1.2222  0.1857  0.2236
 4209TIP3   OH234117   2.987   5.206  13.713 -0.2293  0.2396 -0.4631
 4209TIP3    H134118   3.079   5.228  13.697 -0.1470  0.8337  0.7716
 4209TIP3    H234119   2.967   5.245  13.798 -1.4700 -0.3652 -0.4596
 4210TIP3   OH234120   1.410   3.430  11.105  0.1020 -0.9187  0.5408
 4210TIP3    H134121   1.403   3.409  11.012 -1.8972  2.2655 -0.0955
 4210TIP3    H234122   1.346   3.373  11.148 -1.4607  0.0304 -0.4859
 4211TIP3   OH234123   2.946   0.288  10.657 -0.1140 -0.6300  0.4050
 4211TIP3    H134124   2.964   0.353  10.589 -0.2607  1.3306  2.2063
 4211TIP3    H234125   2.898   0.219  10.611 -0.1213  0.6015 -1.5081
 4212TIP3   OH234126   5.821   1.462  12.457 -0.3334  0.5349 -0.0983
 4212TIP3    H134127   5.836   1.381  12.505 -0.1236  1.5043  1.5284
 4212TIP3    H234128   5.883   1.524  12.496 -0.5949  1.5088 -1.2127
 4213TIP3   OH234129   3.356   6.751  14.853 -0.0787  0.1374 -0.0661
 4213TIP3    H134130   3.371   6.784  14.941  1.9321  2.7746 -1.3551
 4213TIP3    H234131   3.266   6.777  14.833  0.1157  1.2820  0.4894
 4214TIP3   OH234132   0.644   5.224  13.098  0.0040 -0.0749  0.3120
 4214TIP3    H134133   0.736   5.226  13.071  0.2047 -0.4438  0.9474
 4214TIP3    H234134   0.620   5.316  13.105  0.9239  0.0687  2.0747
 4215TIP3   OH234135   0.261   1.877  10.859  0.4010  0.0824 -0.2947
 4215TIP3    H134136   0.292   1.846  10.774  0.9516  0.2557 -0.1569
 4215TIP3    H234137   0.179   1.829  10.873  0.8059 -0.6806 -0.4788
 4216TIP3   OH234138   3.782   2.356  15.184  0.0234 -0.2731 -0.3305
 4216TIP3    H134139   3.804   2.372  15.276 -0.1690 -0.4235 -0.2568
 4216TIP3    H234140   3.717   2.285  15.187 -0.6759  0.3587 -0.5276
 4217TIP3   OH234141   3.396   2.626  12.968 -0.4067 -0.1714  0.5408
 4217TIP3    H134142   3.374   2.684  12.895  0.3841  0.4900  0.8287
 4217TIP3    H234143   3.405   2.684  13.043 -1.0612 -0.8352  1.1431
 4218TIP3   OH234144   0.132   2.229  12.027  1.0530  0.2950  0.3208
 4218TIP3    H134145   0.049   2.234  12.074  0.2223 -1.5271 -0.9053
 4218TIP3    H234146   0.109   2.238  11.935  2.1628 -0.5595 -0.0586
 4219TIP3   OH234147   6.534   4.089  10.495  0.5129 -0.0999  0.0470
 4219TIP3    H134148   6.557   4.173  10.534 -0.8810  0.4957 -0.3626
 4219TIP3    H234149   6.594   4.079  10.421  0.0370  1.0074 -0.4969
 4220TIP3   OH234150   2.846   4.493  13.435 -0.0801  0.4507 -0.4879
 4220TIP3    H134151   2.761   4.502  13.479  0.7203 -0.3203  1.2504
 4220TIP3    H234152   2.864   4.579  13.399 -0.7221  1.1175  0.7665
 4221TIP3   OH234153   2.097   1.931  14.318  0.6218  0.0529  0.3442
 4221TIP3    H134154   2.056   1.954  14.235  2.1495 -0.7844 -0.6849
 4221TIP3    H234155   2.032   1.878  14.364 -0.6144  1.3714  0.1228
 4222TIP3   OH234156   6.009   2.106  11.457  0.4982  0.1332  0.0731
 4222TIP3    H134157   6.068   2.060  11.398  0.8449  0.7490 -0.0712
 4222TIP3    H234158   5.925   2.110  11.410  0.3910 -0.5827  0.2030
 4223TIP3   OH234159   0.711   3.510  10.232  0.4644  0.6867  0.6469
 4223TIP3    H134160   0.788   3.566  10.245  0.7274  0.1468  1.3949
 4223TIP3    H234161   0.725   3.471  10.145  1.5104 -0.1516  1.1753
 4224TIP3   OH234162   7.142   0.506  11.030 -0.2106  0.3501 -0.2231
 4224TIP3    H134163   7.200   0.432  11.049 -0.4402  0.0897 -0.5388
 4224TIP3    H234164   7.108   0.532  11.116  1.4824  1.4295  0.1619
 4225TIP3   OH234165   1.616   2.391  11.987 -0.0605  0.1529 -0.6829
 4225TIP3    H134166   1.613   2.486  11.973  1.0705  0.3984  0.6044
 4225TIP3    H234167   1.661   2.357  11.910 -0.8813  0.6049 -1.3733
 4226TIP3   OH234168   6.409   0.633  12.347 -0.1350  0.4017  0.0124
 4226TIP3    H134169   6.482   0.677  12.302 -1.7731  1.8755 -1.2720
 4226TIP3    H234170   6.441   0.620  12.436  1.7864  0.8303 -0.5839
 4227TIP3   OH234171   1.756   3.765  12.686 -0.3492 -0.7476  0.4905
 4227TIP3    H134172   1.661   3.775  12.696 -0.3166  0.2416 -0.1395
 4227TIP3    H234173   1.789   3.854  12.682  0.6726 -1.0903  1.2233
 4228TIP3   OH234174   0.580   3.470  11.817  0.4762 -0.0418  0.0181
 4228TIP3    H134175   0.554   3.478  11.909 -0.0619 -0.2903 -0.1101
 4228TIP3    H234176   0.606   3.378  11.808 -1.1545 -0.4682 -0.5031
 4229TIP3   OH234177   4.159   4.207  12.059 -0.2195 -0.6481  0.0717
 4229TIP3    H134178   4.074   4.165  12.042 -0.4313  0.6118 -2.0943
 4229TIP3    H234179   4.138   4.299  12.073  0.9096 -0.0184 -2.0655
 4230TIP3   OH234180   1.069   2.986  11.357  0.1110 -0.9632  0.5771
 4230TIP3    H134181   1.149   2.945  11.326  1.3284  1.2802  0.6732
 4230TIP3    H234182   1.024   2.916  11.405  0.9463 -2.8415 -1.2823
 4231TIP3   OH234183   1.820   5.940  13.397  0.3588 -0.1031 -0.8109
 4231TIP3    H134184   1.812   5.845  13.406  0.7280 -0.1099 -0.5547
 4231TIP3    H234185   1.837   5.954  13.304 -0.6177 -0.2259 -1.0142
 4232TIP3   OH234186   2.155   3.180  10.964  0.0032  0.3317  0.1249
 4232TIP3    H134187   2.117   3.149  10.882 -3.7590  0.4987  1.7372
 4232TIP3    H234188   2.199   3.104  11.001 -0.7208 -0.4809 -0.6847
 4233TIP3   OH234189   1.246   0.271  13.573 -0.3032  0.0790 -0.4414
 4233TIP3    H134190   1.218   0.212  13.643 -0.2074 -1.5338 -1.7521
 4233TIP3    H234191   1.165   0.305  13.536 -0.3554  2.2376  1.4743
 4234TIP3   OH234192   0.592   4.138  11.039  0.3814 -0.0942  0.6698
 4234TIP3    H134193   0.600   4.109  10.948  0.4948  0.2733  0.5632
 4234TIP3    H234194   0.535   4.073  11.080  0.3459 -0.2706  0.3399
 4235TIP3   OH234195   6.639   4.696  12.534  0.2662  0.0151  0.3660
 4235TIP3    H134196   6.643   4.658  12.622  0.2709 -0.5246  0.1318
 4235TIP3    H234197   6.631   4.621  12.476  1.6623  0.2996 -0.2030
 4236TIP3   OH234198   0.024   3.357  12.997 -0.4420 -0.6004  0.4190
 4236TIP3    H134199  -0.047   3.307  12.957 -0.4045 -1.9753  2.0240
 4236TIP3    H234200   0.101   3.303  12.985 -0.0220 -0.0124  0.4271
 4237TIP3   OH234201   7.298   5.920  12.331  0.6134  0.1354  0.0915
 4237TIP3    H134202   7.286   5.950  12.241  2.3789 -1.2021 -0.6233
 4237TIP3    H234203   7.255   5.986  12.385  0.2887  1.3998 -1.6943
 4238TIP3   OH234204   2.612   0.407  10.456  0.5087 -0.7125  0.4168
 4238TIP3    H134205   2.544   0.373  10.514 -0.5878  0.4409 -0.1770
 4238TIP3    H234206   2.601   0.358  10.374 -0.1972  0.1068  0.0168
 4239TIP3   OH234207   3.713   6.384  12.129 -0.4507  0.2230 -0.3937
 4239TIP3    H134208   3.691   6.465  12.082 -1.7210 -0.4519 -0.9891
 4239TIP3    H234209   3.644   6.323  12.104  0.9686 -1.3121 -0.5988
 4240TIP3   OH234210   2.391   3.816  11.654 -0.2440 -0.3554 -0.0983
 4240TIP3    H134211   2.380   3.746  11.590  0.4972 -0.8045  0.2599
 4240TIP3    H234212   2.369   3.896  11.606 -0.5800 -0.7786 -0.6551
 4241TIP3   OH234213   1.864   1.189  13.035  0.1140  0.3038 -0.2851
 4241TIP3    H134214   1.908   1.180  12.951  2.3529  1.3031  0.7480
 4241TIP3    H234215   1.909   1.126  13.093 -2.0283 -1.0690 -0.0495
 4242TIP3   OH234216   0.749   0.747  11.538 -0.3536  0.1449 -0.0046
 4242TIP3    H134217   0.653   0.743  11.540 -0.3433  0.7000  1.5844
 4242TIP3    H234218   0.773   0.797  11.616  1.2076  0.5843 -0.7522
 4243TIP3   OH234219   6.837   0.809  13.236 -0.8828  0.3214  0.1256
 4243TIP3    H134220   6.853   0.834  13.145 -0.5065  0.2517  0.1709
 4243TIP3    H234221   6.876   0.880  13.288 -0.9631  0.2871  0.2329
 4244TIP3   OH234222   6.396   1.321  12.278  0.1579 -0.0307  1.0944
 4244TIP3    H134223   6.326   1.375  12.316 -0.3373 -0.3621  0.6730
 4244TIP3    H234224   6.349   1.257  12.225  0.8802  1.8439 -1.9588
 4245TIP3   OH234225   2.007   1.079  12.804  0.1204 -0.1466 -0.1460
 4245TIP3    H134226   1.982   1.005  12.749  0.6843 -0.5258  0.1092
 4245TIP3    H234227   2.086   1.050  12.850  0.8147  0.8837 -0.6401
 4246TIP3   OH234228   6.827   5.013  13.172 -0.0234  0.1437  0.0728
 4246TIP3    H134229   6.790   5.030  13.086  0.5070  0.9266 -0.0062
 4246TIP3    H234230   6.910   5.062  13.172 -0.2502  0.5360  1.1936
 4247TIP3   OH234231   0.744   2.350  12.470 -0.2983  0.1592  0.1230
 4247TIP3    H134232   0.709   2.316  12.552 -0.8116  0.3385 -0.0199
 4247TIP3    H234233   0.695   2.303  12.402  0.5482 -0.4397 -0.0902
 4248TIP3   OH234234   6.879   3.255  11.547 -0.1668  0.1870  0.1098
 4248TIP3    H134235   6.820   3.182  11.564  2.1923 -1.4728  1.4229
 4248TIP3    H234236   6.925   3.231  11.466 -1.2853  1.5003 -0.9443
 4249TIP3   OH234237   1.231   3.033  12.276 -0.0869  0.5797  0.1403
 4249TIP3    H134238   1.208   2.947  12.240  0.0507 -0.1028  1.6185
 4249TIP3    H234239   1.240   3.090  12.200 -1.3105 -0.4470 -0.7932
 4250TIP3   OH234240   2.067   5.125  11.277 -0.3337  0.1458 -0.1369
 4250TIP3    H134241   2.160   5.103  11.285 -0.9155 -2.7208 -0.6492
 4250TIP3    H234242   2.062   5.217  11.302  2.7628  0.5810 -0.8773
 4251TIP3   OH234243   2.471   1.328  13.268  0.6228  0.1647 -0.1495
 4251TIP3    H134244   2.394   1.352  13.217  0.8385  2.5463  0.6152
 4251TIP3    H234245   2.437   1.272  13.337 -0.4318  1.1905  0.1795
 4252TIP3   OH234246   3.560   1.389  12.812  0.3377 -0.2117 -0.0230
 4252TIP3    H134247   3.480   1.424  12.852  1.2779  0.1429  1.5830
 4252TIP3    H234248   3.529   1.322  12.752 -1.1798 -0.0731  0.5776
 4253TIP3   OH234249   0.469   6.524  13.353  0.0606 -0.1293  0.3490
 4253TIP3    H134250   0.413   6.600  13.367 -0.9376 -1.2179  2.4513
 4253TIP3    H234251   0.412   6.458  13.314  0.2840 -0.6864  0.9567
 4254TIP3   OH234252   0.327   2.724  12.368 -0.4598 -0.0219 -0.1125
 4254TIP3    H134253   0.304   2.642  12.325 -0.5313  0.7312 -1.5330
 4254TIP3    H234254   0.412   2.748  12.331  0.1671 -0.1212  1.2567
 4255TIP3   OH234255   0.823   2.221  14.755 -0.1912 -0.0735 -0.1750
 4255TIP3    H134256   0.750   2.161  14.774  0.3373 -0.5616  0.3467
 4255TIP3    H234257   0.900   2.176  14.791  0.1766  1.0187  0.4228
 4256TIP3   OH234258   2.667   2.381  12.213 -0.0311  1.2733 -0.0713
 4256TIP3    H134259   2.606   2.420  12.276  1.8570  2.0721  1.2840
 4256TIP3    H234260   2.622   2.302  12.183 -2.0671  2.2485  0.3230
 4257TIP3   OH234261   4.886   3.565  12.292 -0.3347 -0.0727 -0.2164
 4257TIP3    H134262   4.922   3.582  12.206 -0.8927  0.9167 -0.2620
 4257TIP3    H234263   4.943   3.498  12.330  0.3303  0.0163 -1.0676
 4258TIP3   OH234264   0.160   3.091  13.807 -0.0539 -0.3883  0.0566
 4258TIP3    H134265   0.253   3.075  13.789  0.1216 -0.4715  1.0105
 4258TIP3    H234266   0.120   3.098  13.721  0.7231 -1.0435 -0.3671
 4259TIP3   OH234267   3.638   3.629  14.127  0.4012 -0.0201  0.5308
 4259TIP3    H134268   3.725   3.616  14.087  0.4600 -0.7441  0.8819
 4259TIP3    H234269   3.580   3.573  14.075  0.0374  0.8982 -0.0568
 4260TIP3   OH234270   2.981   2.608  13.324 -0.2560 -0.1433 -0.7797
 4260TIP3    H134271   2.995   2.514  13.324  0.5887 -0.0185 -1.1113
 4260TIP3    H234272   3.004   2.637  13.236  1.4552  0.6474 -0.1005
 4261TIP3   OH234273   1.966   3.597  12.547 -0.2470  0.4496  0.3307
 4261TIP3    H134274   1.907   3.531  12.511  0.2774 -1.0141  2.0913
 4261TIP3    H234275   1.920   3.633  12.622  0.9336 -0.4276  1.4891
 4262TIP3   OH234276   2.608   4.368  13.233 -0.3623 -0.0377 -0.2186
 4262TIP3    H134277   2.658   4.301  13.281  0.4772  0.6745 -0.0891
 4262TIP3    H234278   2.604   4.442  13.292  0.4970  0.7726 -1.1458
 4263TIP3   OH234279   3.280   3.539  11.747 -0.1975 -0.6554  0.5581
 4263TIP3    H134280   3.352   3.601  11.758  0.3832 -1.2270  0.0152
 4263TIP3    H234281   3.221   3.582  11.686 -0.2895 -0.2069  0.9609
 4264TIP3   OH234282   3.442   3.218  10.503 -0.3695  0.1628  0.2545
 4264TIP3    H134283   3.490   3.135  10.502 -1.3228 -0.4386  1.9226
 4264TIP3    H234284   3.509   3.285  10.490  1.1644 -0.5716  3.7797
 4265TIP3   OH234285   4.208   0.854  12.037 -0.0785  0.1814 -0.0106
 4265TIP3    H134286   4.263   0.929  12.058  1.0992 -0.4419 -0.8652
 4265TIP3    H234287   4.119   0.889  12.041  0.4177  1.4458  0.3258
 4266TIP3   OH234288   2.634   3.394  11.979  0.2425  0.0815 -0.4942
 4266TIP3    H134289   2.645   3.422  11.889  1.1233  0.9523 -0.1187
 4266TIP3    H234290   2.553   3.436  12.008  0.3560  0.4078 -0.6484
 4267TIP3   OH234291   2.365   2.348  13.898  0.3092 -0.1904  0.3106
 4267TIP3    H134292   2.425   2.382  13.964  0.2383 -1.0784  0.8475
 4267TIP3    H234293   2.390   2.256  13.888  0.1435 -0.1267 -0.7016
 4268TIP3   OH234294   3.918   4.244  14.574  0.0276  0.1116  0.2173
 4268TIP3    H134295   3.956   4.331  14.590  0.9160 -0.4689  1.3414
 4268TIP3    H234296   3.991   4.192  14.541 -0.6816 -0.0085 -1.1720
 4269TIP3   OH234297   2.765   3.708  13.019  0.0727  0.2568  0.1760
 4269TIP3    H134298   2.838   3.751  13.064 -0.6145  1.0910  0.4835
 4269TIP3    H234299   2.801   3.685  12.933  1.4395 -1.4679  1.1453
 4270TIP3   OH234300   2.385   0.412  15.794 -0.5412  0.1274 -0.4197
 4270TIP3    H134301   2.473   0.448  15.791 -0.4470 -0.1302 -0.7874
 4270TIP3    H234302   2.345   0.452  15.871  0.1800 -0.4173  0.2429
 4271TIP3   OH234303   3.086   2.472  14.058  0.1094  0.1336 -0.0149
 4271TIP3    H134304   3.090   2.437  14.147  1.1399  0.4849  0.0932
 4271TIP3    H234305   3.033   2.552  14.066 -0.4949 -0.2782  0.1250
 4272TIP3   OH234306   1.492   4.156  12.793  0.7108 -0.1711  0.4646
 4272TIP3    H134307   1.579   4.164  12.832  1.4151 -4.9179  0.1224
 4272TIP3    H234308   1.504   4.184  12.702  1.8660 -0.7559  0.4266
 4273TIP3   OH234309   3.376   7.100  12.220 -0.3435  0.2437 -0.1484
 4273TIP3    H134310   3.456   7.067  12.178 -1.3013 -2.9107  0.3320
 4273TIP3    H234311   3.306   7.077  12.160 -1.0852  1.3179  0.2989
 4274TIP3   OH234312   0.662   7.187  13.954  0.3640  0.9755 -0.7952
 4274TIP3    H134313   0.599   7.122  13.921  1.1067 -0.8419  1.2527
 4274TIP3    H234314   0.654   7.181  14.050  0.3853  3.9932 -0.5593
 4275TIP3   OH234315   3.158   3.329  11.383  0.5832  0.1304 -0.2541
 4275TIP3    H134316   3.225   3.392  11.411 -0.8719  1.3140  0.6639
 4275TIP3    H234317   3.206   3.265  11.330  2.5948  0.4664  1.0852
 4276TIP3   OH234318   2.112   2.046  13.161  0.0862  0.4943 -0.2135
 4276TIP3    H134319   2.052   1.972  13.176 -2.8623  2.8602  0.1298
 4276TIP3    H234320   2.092   2.074  13.072  1.7953  0.3816 -0.6406
 4277TIP3   OH234321   1.990   2.838  11.474  0.0277 -0.4566 -0.0884
 4277TIP3    H134322   1.906   2.809  11.509  1.9628 -3.0266  2.6970
 4277TIP3    H234323   2.036   2.875  11.550  0.2571  3.9666 -2.2057
 4278TIP3   OH234324   1.117   2.417  12.749 -0.1575  0.4840 -0.1294
 4278TIP3    H134325   1.032   2.462  12.754  1.2264  3.1388  0.1618
 4278TIP3    H234326   1.130   2.402  12.655 -0.5012  0.9060 -0.2459
 4279TIP3   OH234327   2.701   2.466  13.790 -0.2390 -0.2227 -0.4584
 4279TIP3    H134328   2.672   2.516  13.866 -0.0275  0.4323 -0.8027
 4279TIP3    H234329   2.758   2.398  13.826 -0.8144 -0.4410  0.0453
 4280TIP3   OH234330   1.609   3.624  14.433  0.3507  0.1983 -0.5213
 4280TIP3    H134331   1.656   3.541  14.444  1.1648  0.3194 -2.7754
 4280TIP3    H234332   1.517   3.601  14.442  0.6656 -0.6018  0.8212
 4281TIP3   OH234333   2.411   2.974  13.545  0.0864  0.4101  0.4617
 4281TIP3    H134334   2.320   2.962  13.516  0.6253  0.1739 -1.1707
 4281TIP3    H234335   2.404   3.029  13.623 -1.5465 -0.6485  1.0937
 4282TIP3   OH234336   5.162   1.641  12.620  0.2653  0.4240 -0.0884
 4282TIP3    H134337   5.212   1.621  12.541 -0.4531  1.5199 -0.8462
 4282TIP3    H234338   5.200   1.723  12.652  2.0890 -1.2148  2.0317
 4283TIP3   OH234339   4.878   6.877  10.826 -0.7761 -0.1557 -0.9853
 4283TIP3    H134340   4.871   6.940  10.755 -0.7725 -0.6008 -1.3816
 4283TIP3    H234341   4.936   6.808  10.792 -0.5395 -0.2276 -0.4497
 4284TIP3   OH234342   3.974   3.179  14.981  0.0412  0.0576  0.0096
 4284TIP3    H134343   3.922   3.186  14.901 -0.1708  2.8799  0.3432
 4284TIP3    H234344   3.956   3.259  15.029  1.0904 -1.0432  2.3607
 4285TIP3   OH234345   2.606   3.750  11.858 -0.4522  0.1639 -0.1736
 4285TIP3    H134346   2.564   3.702  11.786 -0.7328  0.2110 -0.0452
 4285TIP3    H234347   2.582   3.842  11.842 -1.3255  0.0622  0.5147
 4286TIP3   OH234348   3.347   3.308  12.281 -0.0434 -0.1990  0.1281
 4286TIP3    H134349   3.442   3.306  12.286  0.0276  0.6742 -0.7823
 4286TIP3    H234350   3.324   3.238  12.220  0.0266 -0.2497  0.1608
 4287TIP3   OH234351   1.794   3.157  12.835  0.1991 -0.9782  0.6071
 4287TIP3    H134352   1.758   3.233  12.790 -1.3027 -2.6688 -1.1660
 4287TIP3    H234353   1.733   3.141  12.907 -0.4807 -1.5603 -0.0939
 4288TIP3   OH234354   1.814   1.152  10.258 -0.0420  0.3895 -0.3629
 4288TIP3    H134355   1.724   1.121  10.243 -0.2213  0.4110  0.6201
 4288TIP3    H234356   1.805   1.246  10.275  0.2848  0.5970 -1.3512
 4289TIP3   OH234357   3.520   2.705  14.810  0.0177 -0.1640 -0.1397
 4289TIP3    H134358   3.570   2.691  14.890 -0.0153 -0.1976 -0.1252
 4289TIP3    H234359   3.435   2.664  14.826  0.4093 -1.1627 -0.6065
 4290TIP3   OH234360   3.317   3.240  11.741 -0.3568 -0.1634 -0.4466
 4290TIP3    H134361   3.231   3.206  11.715 -0.2264  0.3791 -1.6494
 4290TIP3    H234362   3.300   3.332  11.761  0.0198  0.0695 -1.1648
 4291TIP3   OH234363   1.569   5.420  11.901 -0.3118 -0.0769  0.2982
 4291TIP3    H134364   1.568   5.512  11.878 -2.5432 -0.2652 -0.4617
 4291TIP3    H234365   1.605   5.376  11.825 -1.6945 -0.0622 -0.3872
 4292TIP3   OH234366   3.816   2.632  12.763  0.3663  0.2869 -0.4765
 4292TIP3    H134367   3.806   2.560  12.701  1.0801  1.6540 -2.2042
 4292TIP3    H234368   3.815   2.590  12.849 -1.3961 -1.5595 -1.3599
 4293TIP3   OH234369   4.451   3.248  14.276  0.1663 -0.2341 -0.0867
 4293TIP3    H134370   4.412   3.271  14.191 -2.0072 -0.6792  0.7419
 4293TIP3    H234371   4.433   3.155  14.285  1.4593 -0.4407  0.3281
 4294TIP3   OH234372   4.419   5.641  11.830 -0.2841  0.5843 -0.1262
 4294TIP3    H134373   4.344   5.582  11.816 -1.6145  2.1823  0.0592
 4294TIP3    H234374   4.399   5.718  11.776  1.4460  0.8531 -0.3866
 4295TIP3   OH234375   4.848   5.068  13.533  0.6409 -0.1978  0.4050
 4295TIP3    H134376   4.806   5.079  13.448  3.8099 -0.9831 -1.3213
 4295TIP3    H234377   4.855   4.973  13.545  2.8268 -0.0954  0.1583
 4296TIP3   OH234378   2.119   2.906  12.634  0.1731 -0.5270 -0.4533
 4296TIP3    H134379   2.025   2.889  12.646  0.2141 -0.8034 -0.5157
 4296TIP3    H234380   2.143   2.853  12.558  0.8942 -2.3683  1.0036
 4297TIP3   OH234381   3.321   4.683  13.597 -0.3703 -0.0078  0.6344
 4297TIP3    H134382   3.363   4.710  13.515  0.2041  0.1186  0.9688
 4297TIP3    H234383   3.383   4.710  13.665 -2.3245  2.8415  1.3482
 4298TIP3   OH234384   2.921   4.460  11.910  0.1621  0.1930 -0.0103
 4298TIP3    H134385   2.976   4.421  11.841  1.1187 -2.2228  2.0565
 4298TIP3    H234386   2.929   4.554  11.896  1.8258 -0.2112 -2.0834
 4299TIP3   OH234387   4.392   0.780  14.193  0.7672 -0.1409 -0.0236
 4299TIP3    H134388   4.316   0.723  14.178  0.6437 -0.1361  0.5721
 4299TIP3    H234389   4.362   0.843  14.258  0.9121  0.5921 -0.6519
 4300TIP3   OH234390   1.932   3.863  10.427 -0.0201 -0.1303 -0.4155
 4300TIP3    H134391   1.996   3.933  10.439 -0.7195  0.5461 -0.5448
 4300TIP3    H234392   1.982   3.782  10.438  0.0800  0.3820  3.6552
 4301TIP3   OH234393   3.903   2.734  15.438 -0.0748 -0.9732  0.1300
 4301TIP3    H134394   3.851   2.813  15.423  1.7125 -0.1945 -2.3500
 4301TIP3    H234395   3.941   2.746  15.525  2.1661  2.1668 -1.1886
 4302TIP3   OH234396   7.332   1.648  12.887 -0.3195 -0.3125  0.1522
 4302TIP3    H134397   7.346   1.680  12.798  0.7620  0.2635  0.5152
 4302TIP3    H234398   7.281   1.717  12.929  1.0406  0.4558  0.6003
 4303TIP3   OH234399   4.410   2.237  11.960  0.0778  0.2352  0.0619
 4303TIP3    H134400   4.439   2.279  12.041 -0.8038  1.7896 -0.4279
 4303TIP3    H234401   4.402   2.308  11.897 -2.7424 -0.4443 -0.4154
 4304TIP3   OH234402   4.505   4.096  12.915  0.6245 -0.1897 -0.2069
 4304TIP3    H134403   4.510   4.156  12.840 -2.1750 -1.0005 -1.0883
 4304TIP3    H234404   4.470   4.015  12.879 -0.2743 -0.7545  1.8755
 4305TIP3   OH234405   0.601   2.646  13.749 -0.9025 -0.6305 -0.3797
 4305TIP3    H134406   0.643   2.563  13.724  0.3420  0.0563 -0.5989
 4305TIP3    H234407   0.522   2.650  13.694 -0.1099 -0.8859 -1.5416
 4306TIP3   OH234408   3.742   6.236  12.676 -0.4697 -0.1293 -0.7346
 4306TIP3    H134409   3.655   6.263  12.704  0.2694  0.0765  1.5056
 4306TIP3    H234410   3.767   6.298  12.608 -1.2969  1.0024 -0.0166
 4307TIP3   OH234411   1.053   1.059  11.790 -0.1149 -0.2625 -0.5883
 4307TIP3    H134412   1.131   1.113  11.774 -0.5375  0.6546  0.4606
 4307TIP3    H234413   1.073   1.011  11.870 -0.8736  0.4216  0.0156
 4308TIP3   OH234414   1.357   1.815  13.710  0.0983 -0.3084  0.0448
 4308TIP3    H134415   1.392   1.900  13.738 -0.0951 -0.8443  1.9688
 4308TIP3    H234416   1.287   1.795  13.773 -0.6077 -1.3769 -1.0496
 4309TIP3   OH234417   1.641   3.135  10.892  0.0792  0.1935 -0.2926
 4309TIP3    H134418   1.588   3.130  10.812 -0.8991 -0.0624  0.3712
 4309TIP3    H234419   1.726   3.099  10.866 -0.2098  0.1620 -1.2295
 4310TIP3   OH234420   2.470   2.207  14.240  0.0085  0.4073 -0.2084
 4310TIP3    H134421   2.395   2.260  14.214  0.5527  0.4112 -1.8217
 4310TIP3    H234422   2.543   2.268  14.245  0.9492 -0.3315 -3.4552
 4311TIP3   OH234423   4.214   6.217  12.575 -0.3596  0.0841  0.0901
 4311TIP3    H134424   4.298   6.184  12.606 -0.4139  0.2699  0.4435
 4311TIP3    H234425   4.228   6.311  12.563 -0.7404  0.2484  0.9137
 4312TIP3   OH234426   4.398   4.173   1.726 -0.2560 -0.4266 -0.3238
 4312TIP3    H134427   4.387   4.267   1.741  0.0838 -0.7800  2.3936
 4312TIP3    H234428   4.351   4.156   1.644 -0.8860  1.9838 -0.4951
 4313TIP3   OH234429   1.294   1.527  11.760 -0.1119 -0.3763  0.2576
 4313TIP3    H134430   1.370   1.568  11.720 -0.6158  0.4319  0.1228
 4313TIP3    H234431   1.316   1.520  11.853  1.0544 -2.2511 -0.1537
 4314TIP3   OH234432   1.984   1.227  14.418 -0.1028 -0.0771  0.2346
 4314TIP3    H134433   2.010   1.309  14.461  1.9035  1.1769 -3.1925
 4314TIP3    H234434   1.909   1.251  14.363 -1.1436 -1.1393  1.1639
 4315TIP3   OH234435   4.476   2.580  13.074 -0.2054  0.0555 -0.2777
 4315TIP3    H134436   4.527   2.504  13.047  1.0848  0.6432  0.4563
 4315TIP3    H234437   4.413   2.593  13.003  0.9384 -0.4386 -1.4168
 4316TIP3   OH234438   1.876   0.300  12.574  0.5236 -0.0455 -0.1660
 4316TIP3    H134439   1.854   0.341  12.658  1.0686 -0.1583  0.0338
 4316TIP3    H234440   1.825   0.219  12.573  0.5466 -0.0644  0.0775
 4317TIP3   OH234441   3.423   3.163  12.902 -0.2121  0.0705 -0.0551
 4317TIP3    H134442   3.455   3.248  12.933 -0.9082  0.3044  0.0143
 4317TIP3    H234443   3.477   3.145  12.825  1.4854 -0.4842  1.2083
 4318TIP3   OH234444   3.538   4.002  10.857  0.2917  0.5266  0.0265
 4318TIP3    H134445   3.488   4.063  10.912 -0.2566 -1.0485  1.3224
 4318TIP3    H234446   3.629   4.015  10.885  0.3705  1.9310 -0.8781
 4319TIP3   OH234447   2.214   2.838  10.836  0.0862  0.7668 -0.4899
 4319TIP3    H134448   2.284   2.779  10.808  0.2167  0.4738  0.4199
 4319TIP3    H234449   2.243   2.872  10.920 -2.5467 -2.3837  1.8436
 4320TIP3   OH234450   2.161   2.722  12.895  1.2347 -0.1352  0.2739
 4320TIP3    H134451   2.134   2.728  12.803 -0.1709  0.1900  0.6978
 4320TIP3    H234452   2.176   2.629  12.909 -1.4544 -0.5550  0.5117
 4321TIP3   OH234453   3.969   2.701  15.176 -0.9568 -0.0044 -0.3824
 4321TIP3    H134454   3.996   2.612  15.156 -1.2366 -0.0358 -0.6225
 4321TIP3    H234455   3.948   2.699  15.270 -1.3226 -0.2852 -0.4662
 4322TIP3   OH234456   4.529   5.502  14.667  0.8566  0.5309  0.1248
 4322TIP3    H134457   4.451   5.466  14.625  1.9042  1.6740 -2.9046
 4322TIP3    H234458   4.562   5.431  14.722 -0.1466 -1.2780 -1.5834
 4323TIP3   OH234459   3.871   3.634  10.976  0.4122 -0.5908 -0.4788
 4323TIP3    H134460   3.955   3.588  10.977 -0.2511 -1.8298 -1.1317
 4323TIP3    H234461   3.810   3.573  10.936 -0.6015  0.6695 -0.9108
 4324TIP3   OH234462   2.057   0.271  11.188 -0.3513  0.2277  0.3018
 4324TIP3    H134463   2.105   0.312  11.261  0.1687  1.6379 -0.8129
 4324TIP3    H234464   2.049   0.179  11.214  0.1396  0.6303  1.9798
 4325TIP3   OH234465   2.176   1.544  12.634 -0.3625  0.4585 -0.1771
 4325TIP3    H134466   2.228   1.486  12.689 -0.8458  0.1623 -0.0260
 4325TIP3    H234467   2.238   1.610  12.603 -0.2177  1.0428  1.2931
 4326TIP3   OH234468   2.995   2.723  14.036  0.0094 -0.8908 -0.3465
 4326TIP3    H134469   2.957   2.729  14.123 -1.3544  0.3217 -1.0116
 4326TIP3    H234470   3.007   2.814  14.008  2.3169 -1.2476 -0.6296
 4327TIP3   OH234471   2.116   1.449  14.558  0.6968 -0.0601  0.4490
 4327TIP3    H134472   2.051   1.490  14.616 -0.8851 -0.7385 -0.8428
 4327TIP3    H234473   2.200   1.466  14.602 -0.3700  0.4423  2.3532
 4328TIP3   OH234474   2.722   4.251  11.949  0.7594  1.0494  0.8509
 4328TIP3    H134475   2.662   4.325  11.942  0.9026  1.2326  1.4676
 4328TIP3    H234476   2.808   4.292  11.963  0.6994  0.7467  2.1136
 4329TIP3   OH234477   4.537   1.273  12.012 -0.2514  0.2216 -0.0965
 4329TIP3    H134478   4.594   1.309  11.944  0.2472 -1.3032 -0.4976
 4329TIP3    H234479   4.580   1.295  12.094 -0.4749  1.4169 -0.2840
 4330TIP3   OH234480   3.549   6.598  12.579 -0.1408 -0.3726  0.0014
 4330TIP3    H134481   3.558   6.506  12.552  1.2349 -0.2824  0.1140
 4330TIP3    H234482   3.456   6.617  12.567 -0.5237 -1.8921  0.3167
 4331TIP3   OH234483   0.760   4.511  11.239  0.1314  0.0598 -0.5651
 4331TIP3    H134484   0.761   4.426  11.285  2.4616 -0.5248 -1.6190
 4331TIP3    H234485   0.708   4.495  11.161 -0.3336 -0.1000 -0.2271
 4332TIP3   OH234486   1.720   4.699  13.037 -0.5568 -0.3963 -0.4458
 4332TIP3    H134487   1.707   4.787  13.074 -0.5901 -0.9378  0.8757
 4332TIP3    H234488   1.663   4.696  12.961 -1.6074  0.2494  0.3118
 4333TIP3   OH234489   2.286   3.816  13.756  0.3092  0.8002 -0.2720
 4333TIP3    H134490   2.194   3.842  13.749 -0.1284 -0.1649  1.6984
 4333TIP3    H234491   2.334   3.890  13.719 -1.2578  1.1206 -1.7566
 4334TIP3   OH234492   1.775   2.395  12.218  0.0968 -0.5405 -0.0871
 4334TIP3    H134493   1.723   2.408  12.139  1.8485 -1.2807 -1.3962
 4334TIP3    H234494   1.730   2.325  12.265 -0.3530 -0.8667 -0.9865
 4335TIP3   OH234495   0.304   6.821  14.251 -0.5165  0.3555  0.9200
 4335TIP3    H134496   0.306   6.843  14.344 -1.0074 -1.3759  1.3420
 4335TIP3    H234497   0.212   6.809  14.230 -0.3710  0.2531  0.3045
 4336TIP3   OH234498   2.389   2.618  12.258  0.2653  0.0957  0.3639
 4336TIP3    H134499   2.433   2.599  12.176 -1.7127  0.2088 -0.7661
 4336TIP3    H234500   2.320   2.680  12.234 -0.7985 -0.4375  1.9643
 4337TIP3   OH234501   1.508   2.510  11.207 -0.3157  0.2372  0.2947
 4337TIP3    H134502   1.456   2.481  11.132 -0.8899  0.6728  0.5198
 4337TIP3    H234503   1.571   2.571  11.169 -0.4237  0.2481  0.1292
 4338TIP3   OH234504   3.539   2.594  13.922 -0.3530 -0.0816  0.2173
 4338TIP3    H134505   3.570   2.684  13.926 -0.4732  0.0986 -2.3074
 4338TIP3    H234506   3.446   2.601  13.901 -0.1467 -0.7758 -1.0178
 4339TIP3   OH234507   3.904   2.220  12.030 -0.4232  0.2167  0.1529
 4339TIP3    H134508   3.988   2.187  11.999  0.1579  2.4043 -0.7073
 4339TIP3    H234509   3.839   2.162  11.991  0.6210 -0.5733 -0.4174
 4340TIP3   OH234510   0.882   2.229  13.720  0.6276 -0.2037  0.6550
 4340TIP3    H134511   0.951   2.284  13.755  0.1654  0.1480  1.0201
 4340TIP3    H234512   0.902   2.141  13.753  0.6931 -0.0355  1.0665
 4341TIP3   OH234513   4.560   1.524  12.986  0.2873 -0.0068 -0.7603
 4341TIP3    H134514   4.586   1.490  12.900  2.2155 -0.4360 -0.0304
 4341TIP3    H234515   4.551   1.446  13.041  0.1044  0.3490 -0.2809
 4342TIP3   OH234516   1.863   3.331  10.582 -0.0745  0.4266 -0.2954
 4342TIP3    H134517   1.793   3.394  10.567 -0.4567  0.0349 -0.1580
 4342TIP3    H234518   1.824   3.246  10.562  0.4225  0.2255 -0.4250
 4343TIP3   OH234519   7.233   5.180  12.519 -0.3328  0.2909 -0.5608
 4343TIP3    H134520   7.301   5.120  12.549 -1.6752 -0.4850  1.0598
 4343TIP3    H234521   7.231   5.170  12.424  1.7536  0.2898 -0.6307
 4344TIP3   OH234522   1.593   4.872  11.599  0.1304 -0.2577 -0.3708
 4344TIP3    H134523   1.555   4.899  11.515  2.7243 -0.2103 -1.5786
 4344TIP3    H234524   1.590   4.777  11.597 -0.4111 -0.2501 -0.1975
 4345TIP3   OH234525   2.193   4.706  12.157 -0.3241  0.2322 -0.6194
 4345TIP3    H134526   2.238   4.790  12.170 -0.3638  0.1079  0.3395
 4345TIP3    H234527   2.203   4.688  12.063  0.2805  0.9689 -0.7032
 4346TIP3   OH234528   3.496   2.520  15.318  0.0474 -0.0778 -0.4761
 4346TIP3    H134529   3.540   2.593  15.275  0.9195 -0.7894 -0.8140
 4346TIP3    H234530   3.483   2.455  15.249  0.0575 -0.5910 -0.0065
 4347TIP3   OH234531   3.513   0.731  13.057  0.1857 -0.4454  0.0295
 4347TIP3    H134532   3.481   0.642  13.047 -2.2784  0.2900  1.0446
 4347TIP3    H234533   3.557   0.731  13.142  1.3053 -0.9935 -0.5386
 4348TIP3   OH234534   4.209   6.196  11.612 -0.0206  0.1255  0.2361
 4348TIP3    H134535   4.209   6.155  11.699 -0.0013 -1.7516 -0.6340
 4348TIP3    H234536   4.301   6.208  11.591  0.0003 -0.4260  0.0109
 4349TIP3   OH234537   5.470   4.241  11.586  0.6406 -0.3944 -0.0905
 4349TIP3    H134538   5.536   4.272  11.524  0.0342  0.0558 -0.5128
 4349TIP3    H234539   5.412   4.316  11.598  0.4120 -0.6776  0.5607
 4350TIP3   OH234540   4.317   3.143  11.447 -0.0846  0.8264  0.1844
 4350TIP3    H134541   4.386   3.166  11.509  1.1491 -0.0260 -0.8489
 4350TIP3    H234542   4.264   3.078  11.494  0.9760  0.0125  0.2853
 4351TIP3   OH234543   4.251   3.642  12.998  0.0723  0.3443  0.3550
 4351TIP3    H134544   4.197   3.660  12.920  1.4840  0.5588 -0.5951
 4351TIP3    H234545   4.336   3.616  12.962  0.4090 -0.6384  1.8276
 4352TIP3   OH234546   6.862   1.505  13.487  0.0888  0.1043 -0.1415
 4352TIP3    H134547   6.885   1.489  13.395  1.9455  1.2284  0.0983
 4352TIP3    H234548   6.900   1.431  13.535 -0.0873 -0.0145 -0.1872
 4353TIP3   OH234549   3.592   4.696  13.489 -0.0980  0.7943  0.2842
 4353TIP3    H134550   3.606   4.609  13.451 -1.3945  0.9816 -0.6429
 4353TIP3    H234551   3.661   4.705  13.554  0.3564 -0.7297  0.0254
 4354TIP3   OH234552   5.080   4.080  15.265  0.7416  0.6716  0.2901
 4354TIP3    H134553   5.038   4.132  15.333 -0.1829 -0.9066  0.9522
 4354TIP3    H234554   5.102   4.144  15.197 -0.0512  1.9784  1.2231
 4355TIP3   OH234555   3.787   5.698  13.142 -0.2605 -0.2133 -0.0065
 4355TIP3    H134556   3.781   5.773  13.201  0.8924 -0.5846  0.5890
 4355TIP3    H234557   3.850   5.725  13.075 -1.7598  0.3048 -1.2376
 4356TIP3   OH234558   4.191   3.373  11.943  0.1290 -0.0896 -0.3287
 4356TIP3    H134559   4.193   3.370  11.847  0.4661 -2.3163 -0.2973
 4356TIP3    H234560   4.277   3.408  11.968  0.3230 -0.1902 -0.8520
 4357TIP3   OH234561   2.858   2.696  13.796 -0.7527 -0.1640  0.1526
 4357TIP3    H134562   2.818   2.609  13.798  2.3882 -1.7024  0.2631
 4357TIP3    H234563   2.891   2.709  13.885 -0.8403  0.9453  0.0247
 4358TIP3   OH234564   3.761   3.758  11.345  0.2475 -0.1417 -0.5652
 4358TIP3    H134565   3.794   3.825  11.404 -1.3602  0.3197 -0.1606
 4358TIP3    H234566   3.713   3.697  11.401 -2.3709  0.9844 -1.5022
 4359TIP3   OH234567   6.322   2.531  10.452 -0.3278  0.5736 -0.2923
 4359TIP3    H134568   6.374   2.504  10.527  1.3468  0.7217 -1.3702
 4359TIP3    H234569   6.384   2.576  10.395 -2.1499  3.0131 -0.4606
 4360TIP3   OH234570   3.474   4.122  11.941 -0.5360  0.0698  0.5837
 4360TIP3    H134571   3.554   4.175  11.946 -0.9112  0.8708 -1.4984
 4360TIP3    H234572   3.423   4.148  12.018 -1.2282  3.6057 -1.0173
 4361TIP3   OH234573   6.874   1.456  11.247  0.1472 -0.0795  0.0025
 4361TIP3    H134574   6.845   1.503  11.169  0.6040 -1.2290 -0.8626
 4361TIP3    H234575   6.955   1.412  11.221  0.7824  0.2359  1.3745
 4362TIP3   OH234576   3.069   2.347  10.773  0.1788 -0.4044 -0.1124
 4362TIP3    H134577   3.054   2.428  10.822 -0.4267 -0.0051 -0.9463
 4362TIP3    H234578   2.994   2.341  10.714  0.3704 -1.4280 -0.2516
 4363TIP3   OH234579   3.190   2.738  11.464 -0.1294 -0.2489 -0.2549
 4363TIP3    H134580   3.139   2.667  11.504 -1.5504  0.4114 -0.8450
 4363TIP3    H234581   3.265   2.694  11.425  0.8145 -1.0149  2.3171
 4364TIP3   OH234582   1.266   5.089  11.780 -0.3610  0.7564 -0.2614
 4364TIP3    H134583   1.223   5.045  11.707  1.7637 -1.5549 -0.2061
 4364TIP3    H234584   1.353   5.113  11.747  0.5617 -0.1502  1.3834
 4365TIP3   OH234585   2.769   5.830  12.757 -0.1123 -0.5830  0.7437
 4365TIP3    H134586   2.819   5.827  12.675 -3.2112  0.1684 -1.2399
 4365TIP3    H234587   2.710   5.905  12.746 -1.5785 -1.3680  3.0858
 4366TIP3   OH234588   3.607   3.247  14.390 -0.1233  0.5492 -0.0747
 4366TIP3    H134589   3.582   3.330  14.431  2.6079  1.0090  0.7491
 4366TIP3    H234590   3.698   3.234  14.417  1.0097 -0.3169 -4.0574
 4367TIP3   OH234591   3.457   0.477  10.611  0.1266 -0.4329  0.7303
 4367TIP3    H134592   3.497   0.395  10.580  1.6899  0.9327 -0.9929
 4367TIP3    H234593   3.531   0.531  10.637 -0.6976  1.5106 -0.8949
 4368TIP3   OH234594   1.863   3.623  13.642 -0.6452  0.1790 -0.4105
 4368TIP3    H134595   1.838   3.627  13.735  0.1458 -1.7675 -0.0823
 4368TIP3    H234596   1.881   3.530  13.627  1.1608  0.7706 -2.0053
 4369TIP3   OH234597   2.642   3.793  13.396  0.3226 -0.1977 -0.1265
 4369TIP3    H134598   2.657   3.701  13.415 -1.0749 -0.1800  1.1313
 4369TIP3    H234599   2.624   3.833  13.481 -0.8388  0.9037 -0.8636
 4370TIP3   OH234600   3.019   2.263  12.351  0.3842  0.0861  0.2670
 4370TIP3    H134601   2.997   2.356  12.360  1.0178 -0.0477  4.0010
 4370TIP3    H234602   3.067   2.242  12.431  2.8230 -2.7852 -1.8430
 4371TIP3   OH234603   2.171   2.288  14.610  0.0877 -0.1954  0.4903
 4371TIP3    H134604   2.221   2.360  14.573 -0.4384 -0.4453 -0.7157
 4371TIP3    H234605   2.162   2.225  14.539 -0.6410 -0.8338  1.1327
 4372TIP3   OH234606   1.968   2.807  10.949  0.3303 -0.0605 -0.0849
 4372TIP3    H134607   1.979   2.799  11.044  0.1672  0.2934 -0.0371
 4372TIP3    H234608   2.056   2.800  10.914  0.6107  1.7382  0.2304
 4373TIP3   OH234609   3.349   0.634  10.395  0.2939 -0.1461 -0.0826
 4373TIP3    H134610   3.300   0.566  10.351  0.2707 -1.1949  1.5137
 4373TIP3    H234611   3.402   0.588  10.461  1.8432  1.1556 -0.3651
 4374TIP3   OH234612   3.360   1.390  14.141 -0.1789  0.5253 -0.1120
 4374TIP3    H134613   3.277   1.436  14.152  0.0499  0.5931  1.5755
 4374TIP3    H234614   3.401   1.394  14.228  0.5766 -1.4450 -0.3539
 4375TIP3   OH234615   3.681   2.303  11.563  0.3015  0.0830  0.2050
 4375TIP3    H134616   3.734   2.238  11.518 -0.4548 -1.3581  1.3738
 4375TIP3    H234617   3.636   2.350  11.492  0.3488 -1.0951 -0.6192
 4376TIP3   OH234618   2.766   3.037  13.166 -0.2250  0.7128  0.0366
 4376TIP3    H134619   2.718   3.120  13.160  0.0803  0.9360  0.6305
 4376TIP3    H234620   2.719   2.986  13.232 -0.3274  0.4735 -0.2220
 4377TIP3   OH234621   2.631   3.504  13.426  0.0396  0.0878 -0.0870
 4377TIP3    H134622   2.543   3.530  13.399 -0.2963  0.5578  1.4325
 4377TIP3    H234623   2.622   3.412  13.453  0.1982 -0.1237 -0.7454
 4378TIP3   OH234624   3.103   5.613  13.187  0.3652  0.4502  0.6869
 4378TIP3    H134625   3.053   5.694  13.194  1.3089  1.0708  0.2708
 4378TIP3    H234626   3.051   5.549  13.236  0.8675  1.8797  3.1447
 4379TIP3   OH234627   3.534   1.738  11.861  0.3426  0.1795  0.3194
 4379TIP3    H134628   3.577   1.801  11.919  1.7129  0.9076 -1.4549
 4379TIP3    H234629   3.442   1.766  11.860  0.5164  0.8217  1.2528
 4380TIP3   OH234630   3.221   3.381  10.794  0.1332  0.4687 -0.0432
 4380TIP3    H134631   3.226   3.396  10.700  1.4262  0.4055 -0.0003
 4380TIP3    H234632   3.298   3.426  10.829 -0.1734  0.2358  0.9482
 4381TIP3   OH234633   2.194   1.808  11.347  0.5372  0.5982 -0.0455
 4381TIP3    H134634   2.220   1.731  11.397  2.4306  0.8805 -0.5589
 4381TIP3    H234635   2.167   1.872  11.413 -1.4195 -0.6174  0.3598
 4382TIP3   OH234636   2.673   4.781  11.260  0.1025 -0.0992  0.2344
 4382TIP3    H134637   2.686   4.696  11.302  1.3764 -0.1946 -0.3475
 4382TIP3    H234638   2.761   4.812  11.239 -0.4117  0.8592 -0.5606
 4383TIP3   OH234639   3.243   2.823  12.028 -0.1312  0.0460  0.1316
 4383TIP3    H134640   3.270   2.781  11.947 -0.6049 -1.1283  0.5696
 4383TIP3    H234641   3.158   2.784  12.049 -0.2585  0.7109  0.9219
 4384TIP3   OH234642   2.037   5.135  15.129  0.3899  0.6285 -0.3264
 4384TIP3    H134643   2.091   5.197  15.080  0.7602  1.5166  1.1716
 4384TIP3    H234644   2.099   5.087  15.184 -0.1845  0.8269  0.5163
 4385TIP3   OH234645   4.502   1.621  10.581  0.1498 -0.0723 -0.6298
 4385TIP3    H134646   4.416   1.584  10.602 -0.3094 -0.1724 -2.6103
 4385TIP3    H234647   4.558   1.544  10.569  0.3595 -0.0208  0.0191
 4386TIP3   OH234648   1.987   3.340  14.178 -0.2714 -0.6910 -0.3563
 4386TIP3    H134649   2.044   3.348  14.102  0.1419  1.1362  0.1273
 4386TIP3    H234650   1.951   3.427  14.191 -0.8789 -1.1410  1.1289
 4387TIP3   OH234651   1.278   3.159  13.025 -0.1845 -0.7213 -0.0576
 4387TIP3    H134652   1.247   3.137  12.937 -1.0835 -0.7818  0.2715
 4387TIP3    H234653   1.199   3.161  13.078  0.2279  0.4431  0.5179
 4388TIP3   OH234654   3.549   2.208  15.218  0.1369  0.3907  0.3605
 4388TIP3    H134655   3.468   2.182  15.176 -0.1004 -0.0776  1.1057
 4388TIP3    H234656   3.561   2.145  15.289  0.3643  1.3750  1.2005
 4389TIP3   OH234657   3.558   2.363  12.274 -0.0069 -0.1477 -0.2802
 4389TIP3    H134658   3.652   2.358  12.292  0.0109 -0.0979 -0.3577
 4389TIP3    H234659   3.553   2.393  12.183 -0.0901  1.8501  0.3425
 4390TIP3   OH234660   3.675   2.885  10.486 -0.0993 -0.0572  0.1036
 4390TIP3    H134661   3.764   2.877  10.452  0.0619 -1.5016  0.8113
 4390TIP3    H234662   3.619   2.884  10.408  0.5958  3.1834 -0.5002
 4391TIP3   OH234663   1.762   1.246  11.775  0.0429 -0.9626 -0.3399
 4391TIP3    H134664   1.704   1.197  11.718 -1.0387  0.6162 -0.6361
 4391TIP3    H234665   1.710   1.322  11.803  1.1849 -0.7218  1.2183
 4392TIP3   OH234666   3.931   2.594  10.914  0.0050  0.0559 -0.0046
 4392TIP3    H134667   3.889   2.574  10.830 -0.3518  1.2394 -0.1076
 4392TIP3    H234668   3.980   2.675  10.898  0.4330 -0.0438  0.7653
 4393TIP3   OH234669   3.045   3.359  13.314 -0.2347 -0.3132  0.8122
 4393TIP3    H134670   2.986   3.427  13.282 -1.1500 -1.0806  0.8412
 4393TIP3    H234671   3.132   3.397  13.305 -0.6290  0.3247 -0.5082
 4394TIP3   OH234672   1.550   3.465  12.569  0.1800  0.1988  0.6087
 4394TIP3    H134673   1.536   3.524  12.642  0.9142 -1.7128  2.3357
 4394TIP3    H234674   1.467   3.466  12.522 -0.7589  0.4261  2.2322
 4395TIP3   OH234675   3.308   1.316  14.658  0.2402  0.6942  0.1269
 4395TIP3    H134676   3.225   1.273  14.682  0.0943  0.6014 -0.5275
 4395TIP3    H234677   3.372   1.280  14.720 -0.0881  0.3070  0.2466
 4396TIP3   OH234678   6.913   3.237  13.027  0.1289  0.7651  0.1591
 4396TIP3    H134679   6.922   3.152  12.984  1.0073  0.8857  0.1024
 4396TIP3    H234680   6.859   3.219  13.104 -0.9913  0.4447 -0.6728
 4397TIP3   OH234681   3.503   0.308   0.283 -0.1162 -0.4062  0.3163
 4397TIP3    H134682   3.472   0.282   0.196 -2.7488 -1.3500  1.4751
 4397TIP3    H234683   3.456   0.389   0.301  0.8353  0.0775  0.6550
 4398TIP3   OH234684   2.854   0.332  15.612  0.4483 -0.0451 -0.4825
 4398TIP3    H134685   2.788   0.264  15.621  0.4787 -0.2320 -1.5921
 4398TIP3    H234686   2.822   0.387  15.541  1.0977  0.3149 -0.5013
 4399TIP3   OH234687   4.108   4.915  12.006  0.3586 -0.1501 -0.3281
 4399TIP3    H134688   4.034   4.956  11.963 -0.6997 -1.5127  0.1717
 4399TIP3    H234689   4.149   4.862  11.937  0.5914  0.2220 -0.4797
 4400TIP3   OH234690   2.433   3.124  13.986 -0.4757  0.0712 -0.5330
 4400TIP3    H134691   2.518   3.131  13.942  0.1712  1.0199  0.8205
 4400TIP3    H234692   2.380   3.193  13.944  0.2574  1.2315  0.4094
 4401TIP3   OH234693   4.805   4.354  11.454  0.2894  0.5433  0.3541
 4401TIP3    H134694   4.723   4.308  11.437  1.4355 -1.4353  0.0666
 4401TIP3    H234695   4.823   4.340  11.547  0.4956  0.6413  0.3310
 4402TIP3   OH234696   2.102   3.092  14.076 -0.3816  0.2966 -0.0642
 4402TIP3    H134697   2.092   3.013  14.024  0.5064  0.8525 -1.0972
 4402TIP3    H234698   2.067   3.069  14.162 -0.9016 -0.9498 -0.6048
 4403TIP3   OH234699   0.494   2.427  13.129 -0.1928  0.5406 -0.0303
 4403TIP3    H134700   0.485   2.341  13.086  1.2937  0.9449 -1.1876
 4403TIP3    H234701   0.489   2.408  13.222 -0.1774 -0.7776 -0.2877
 4404TIP3   OH234702   2.838   2.932  13.691  0.0656 -0.6106  0.3048
 4404TIP3    H134703   2.753   2.954  13.728  0.8379  1.4590  0.9061
 4404TIP3    H234704   2.856   2.844  13.724 -1.3182 -0.6173  1.1066
 4405TIP3   OH234705   2.505   4.136  13.972 -0.2526  0.2337  0.0726
 4405TIP3    H134706   2.446   4.210  13.983 -0.1822  0.5409 -1.5994
 4405TIP3    H234707   2.593   4.175  13.967  0.0261 -0.1541  1.6346
 4406TIP3   OH234708   3.569   0.831  12.548  0.2376 -0.1697  0.0857
 4406TIP3    H134709   3.486   0.796  12.578  0.4994 -0.3903  0.5564
 4406TIP3    H234710   3.616   0.854  12.628 -0.2972  2.1332 -0.2353
 4407TIP3   OH234711   4.581   2.664  13.686 -0.3673 -0.3471  0.4928
 4407TIP3    H134712   4.571   2.742  13.742 -0.4688  1.3633 -1.8385
 4407TIP3    H234713   4.592   2.699  13.598 -0.9190 -3.0205 -0.6836
 4408TIP3   OH234714   1.780   2.888  12.092  0.5002 -0.4577 -0.3234
 4408TIP3    H134715   1.748   2.965  12.043 -0.4240 -0.1768  0.6970
 4408TIP3    H234716   1.846   2.923  12.151 -0.7497 -0.2389  0.9682
 4409TIP3   OH234717   4.926   5.955  15.656 -0.1126  0.2563 -0.1655
 4409TIP3    H134718   5.016   5.987  15.649  0.1523 -0.5662 -0.5178
 4409TIP3    H234719   4.923   5.879  15.598 -0.1424 -1.6936  2.3207
 4410TIP3   OH234720   3.558   5.452  12.608 -0.0019 -0.3048 -0.7549
 4410TIP3    H134721   3.512   5.535  12.595 -0.5023 -0.2814  0.9489
 4410TIP3    H234722   3.608   5.438  12.528  0.6955  2.0292 -0.7408
 4411TIP3   OH234723   1.837   0.384  11.748  0.7347  0.6156 -0.1674
 4411TIP3    H134724   1.837   0.447  11.675  1.7649  2.9443  1.7942
 4411TIP3    H234725   1.903   0.319  11.723  0.7384  1.1073 -1.5192
 4412TIP3   OH234726   1.752   2.139  10.352 -0.2342 -0.8238 -0.5078
 4412TIP3    H134727   1.725   2.053  10.318 -1.0538 -1.0105  0.5766
 4412TIP3    H234728   1.795   2.119  10.435  0.1955 -0.2399 -0.5906
 4413TIP3   OH234729   7.331   2.172  13.264 -0.0804  0.4897  0.3271
 4413TIP3    H134730   7.363   2.231  13.196  0.2706 -0.9746 -0.7797
 4413TIP3    H234731   7.350   2.084  13.232 -1.9678 -0.3001  1.2594
 4414TIP3   OH234732   4.772   3.371  11.679  0.1012 -0.0816 -0.4230
 4414TIP3    H134733   4.838   3.319  11.725 -1.1189 -2.6521 -1.4737
 4414TIP3    H234734   4.818   3.451  11.655  1.7005 -0.0963  2.3017
 4415TIP3   OH234735   4.830   4.014  14.138  0.5241 -0.0414 -0.3588
 4415TIP3    H134736   4.750   4.058  14.108  0.6950 -1.0249 -2.3112
 4415TIP3    H234737   4.803   3.923  14.151  1.1414 -0.2070 -0.2506
 4416TIP3   OH234738   4.373   4.572  12.331  0.4142 -0.3136 -0.0603
 4416TIP3    H134739   4.436   4.615  12.273  0.4105 -0.6317 -0.3018
 4416TIP3    H234740   4.288   4.586  12.289  0.0735  1.7661  1.2382
 4417TIP3   OH234741   4.006   3.597  11.792 -0.3205 -0.1337  0.2471
 4417TIP3    H134742   4.077   3.541  11.761  0.5941  0.9648  0.3106
 4417TIP3    H234743   4.046   3.651  11.860 -1.8459 -1.2205  2.0650
 4418TIP3   OH234744   4.279   2.372  11.510 -0.1646  0.6212  0.1587
 4418TIP3    H134745   4.313   2.449  11.464 -0.6215  0.6663 -0.1057
 4418TIP3    H234746   4.218   2.332  11.448 -1.0028  0.8396  0.8252
 4419TIP3   OH234747   4.007   4.422  12.176 -0.1237 -1.1136 -0.6422
 4419TIP3    H134748   4.050   4.377  12.249  0.8153 -1.5461 -1.4531
 4419TIP3    H234749   3.937   4.473  12.217  1.2454 -0.3104  0.7122
 4420TIP3   OH234750   2.629   3.381  14.797  0.3007  0.0833 -0.1583
 4420TIP3    H134751   2.695   3.356  14.733  0.0069 -0.3826 -0.2842
 4420TIP3    H234752   2.674   3.375  14.881  0.0727 -1.4880 -0.1306
 4421TIP3   OH234753   2.126   1.263  10.787  0.1727  0.6775 -0.0052
 4421TIP3    H134754   2.045   1.214  10.801 -1.5316  3.0890 -1.2845
 4421TIP3    H234755   2.118   1.340  10.843 -0.5548  3.3083 -3.5672
 4422TIP3   OH234756   3.051   4.376  10.589 -0.3312 -0.1232 -0.9147
 4422TIP3    H134757   3.139   4.380  10.552  0.2915 -3.0603  0.0727
 4422TIP3    H234758   3.003   4.316  10.532 -0.8738 -0.6599  0.0806
 4423TIP3   OH234759   2.527   1.849  13.981  0.4949  0.1252  0.4658
 4423TIP3    H134760   2.588   1.914  14.016 -0.0824 -0.3592  2.4554
 4423TIP3    H234761   2.465   1.833  14.052 -0.2233 -1.5381 -0.4891
 4424TIP3   OH234762   3.622   2.410  14.086  0.1058 -0.0059  0.1434
 4424TIP3    H134763   3.678   2.454  14.150  0.0699  0.3640 -0.0811
 4424TIP3    H234764   3.588   2.480  14.030  2.5983 -0.5792 -2.2326
 4425TIP3   OH234765   2.954   4.234  12.816  0.4592  0.0815  0.3793
 4425TIP3    H134766   2.909   4.170  12.761  2.0117  0.1162 -0.9768
 4425TIP3    H234767   2.934   4.207  12.905  0.0834 -1.5783 -0.1896
 4426TIP3   OH234768   3.960   3.463  12.871  0.3538 -0.2434 -0.0678
 4426TIP3    H134769   3.915   3.469  12.955  1.7441 -0.0220  0.6730
 4426TIP3    H234770   3.992   3.552  12.854 -0.0218 -0.2591 -0.8950
 4427TIP3   OH234771   6.008   3.016  13.096 -0.1954  0.7013  0.3626
 4427TIP3    H134772   6.042   3.069  13.168 -1.0755  0.7752  0.7245
 4427TIP3    H234773   6.022   2.926  13.123 -1.5144  0.7095  1.1190
 4428TIP3   OH234774   4.167   4.186  13.298 -0.1572 -0.0131  0.2480
 4428TIP3    H134775   4.153   4.239  13.376 -1.6406  0.7437 -0.5181
 4428TIP3    H234776   4.235   4.233  13.249 -2.8766  2.3436 -1.4188
 4429TIP3   OH234777   3.925   4.424  13.075  0.2559 -0.0982 -0.0683
 4429TIP3    H134778   4.014   4.390  13.087  0.2288 -0.3383 -0.5523
 4429TIP3    H234779   3.868   4.348  13.088  0.0974  0.1398  0.6480
 4430TIP3   OH234780   4.298   5.133  15.313 -0.1084 -0.0582  0.0048
 4430TIP3    H134781   4.319   5.051  15.269 -1.9214  0.5523 -2.0605
 4430TIP3    H234782   4.292   5.110  15.406  0.2681 -2.0662 -0.4641
 4431TIP3   OH234783   3.858   2.093  13.475 -0.3942  0.0767  0.2598
 4431TIP3    H134784   3.801   2.027  13.436  1.1429 -1.1640  0.0623
 4431TIP3    H234785   3.800   2.166  13.496 -1.6319 -0.1636 -2.2033
 4432TIP3   OH234786   4.435   1.517  15.301  0.1743  0.0222  0.0451
 4432TIP3    H134787   4.502   1.584  15.287 -2.1013  2.1162 -1.2811
 4432TIP3    H234788   4.431   1.507  15.396  0.8825  1.4585  0.2373
 4433TIP3   OH234789   5.096   1.563  14.552 -0.3138  0.3189  0.0561
 4433TIP3    H134790   5.159   1.589  14.485 -0.5198 -0.2898 -0.3800
 4433TIP3    H234791   5.044   1.642  14.568  0.0862  0.6187 -0.1050
 4434TIP3   OH234792   2.754   4.418  14.498 -0.3465 -0.0379 -0.9773
 4434TIP3    H134793   2.681   4.378  14.546  0.9457 -1.3501 -0.0662
 4434TIP3    H234794   2.760   4.507  14.534  2.0893 -1.7027  3.1400
 4435TIP3   OH234795   2.142   3.534  12.737 -0.3169  0.1592 -0.1474
 4435TIP3    H134796   2.088   3.466  12.779  0.6969 -0.3531  0.3397
 4435TIP3    H234797   2.095   3.555  12.656 -0.6539 -1.1220 -0.2989
 4436TIP3   OH234798   7.300   3.137  14.590 -0.4473 -0.6519 -0.1985
 4436TIP3    H134799   7.393   3.131  14.568 -0.7020 -0.0718 -1.4864
 4436TIP3    H234800   7.293   3.217  14.642 -0.5290  0.4411 -1.8481
 4437TIP3   OH234801   1.749   2.224  11.773 -0.1540 -0.4535 -0.1634
 4437TIP3    H134802   1.774   2.182  11.855 -0.0438 -0.0038  0.0322
 4437TIP3    H234803   1.828   2.270  11.744 -0.5116  0.3077  0.0520
 4438TIP3   OH234804   1.992   1.578  13.137 -0.2352  0.0367 -0.1758
 4438TIP3    H134805   1.959   1.542  13.220 -1.9206  2.6159  0.3444
 4438TIP3    H234806   1.923   1.558  13.074  1.3967 -2.6191 -1.2058
 4439TIP3   OH234807   4.761   4.966  12.550 -0.7305  0.3674 -0.2760
 4439TIP3    H134808   4.768   5.030  12.479 -0.3473  0.3389 -0.2665
 4439TIP3    H234809   4.852   4.950  12.578 -0.6415 -1.6485 -1.5945
 4440TIP3   OH234810   1.066   1.762   0.540  0.3238 -0.7697  0.4745
 4440TIP3    H134811   1.072   1.800   0.452  0.6019  0.8924  1.1937
 4440TIP3    H234812   1.156   1.735   0.559  0.3662 -0.6588  0.4389
 4441TIP3   OH234813   0.548   5.785  12.658  0.2010  0.5534  0.0669
 4441TIP3    H134814   0.608   5.721  12.697 -0.1616 -0.4114 -0.9587
 4441TIP3    H234815   0.471   5.784  12.715 -0.3855 -0.9563 -0.7354
 4442TIP3   OH234816   1.571   6.898  11.047 -0.0278 -0.1992 -0.1833
 4442TIP3    H134817   1.630   6.822  11.052  0.8295  0.4627 -0.1737
 4442TIP3    H234818   1.601   6.947  10.971 -0.5560  0.1553 -0.1647
 4443TIP3   OH234819   3.572   4.330  11.556 -0.1750  0.2212 -0.1676
 4443TIP3    H134820   3.641   4.285  11.606 -0.4798 -0.7375 -0.6101
 4443TIP3    H234821   3.494   4.321  11.611 -0.2408  0.1897 -0.2677
 4444TIP3   OH234822   3.376   4.290  13.272  0.3515 -0.0909  0.0323
 4444TIP3    H134823   3.388   4.304  13.178  0.8229 -1.2853 -0.0946
 4444TIP3    H234824   3.297   4.340  13.294  1.5254  2.0835 -0.5281
 4445TIP3   OH234825   4.743   2.310  14.080 -0.7026 -0.9138  0.7045
 4445TIP3    H134826   4.764   2.390  14.128  0.9965  0.6549 -2.5035
 4445TIP3    H234827   4.694   2.341  14.003  1.1426 -2.7905 -1.2608
 4446TIP3   OH234828   2.528   4.324  12.529  0.9846  0.2278 -0.6011
 4446TIP3    H134829   2.559   4.380  12.600 -0.8126  1.6821 -0.9431
 4446TIP3    H234830   2.456   4.274  12.567  0.7220  0.2172 -1.1118
 4447TIP3   OH234831   2.797   4.771  13.111 -0.3575 -0.0904 -0.4722
 4447TIP3    H134832   2.865   4.830  13.080  0.1939 -0.8765 -0.7513
 4447TIP3    H234833   2.744   4.752  13.034 -0.9150  0.5333 -0.2536
 4448TIP3   OH234834   3.847   3.936  10.683  0.0112 -0.1171 -0.2776
 4448TIP3    H134835   3.877   3.977  10.764 -1.3429  1.8961 -0.7506
 4448TIP3    H234836   3.910   3.964  10.617  0.3688 -0.6749 -0.1761
 4449TIP3   OH234837   3.610   4.591  11.462 -0.3407 -0.0575  0.3451
 4449TIP3    H134838   3.589   4.600  11.369  0.4572  0.8026  0.2366
 4449TIP3    H234839   3.610   4.496  11.478  1.8326 -0.3400 -1.0882
 4450TIP3   OH234840   3.699   4.310  11.987 -0.0226 -0.1108 -0.0148
 4450TIP3    H134841   3.756   4.333  12.060  0.1622  1.2800 -0.5750
 4450TIP3    H234842   3.756   4.268  11.923  0.1211  0.0984 -0.0236
 4451TIP3   OH234843   1.279   1.411  10.553 -0.1338  0.4829  0.5549
 4451TIP3    H134844   1.370   1.384  10.565  0.7703  1.4541 -3.2832
 4451TIP3    H234845   1.275   1.499  10.591 -0.0165 -0.3159  2.4728
 4452TIP3   OH234846   4.713   4.044  12.383  0.0257  0.3694 -0.1383
 4452TIP3    H134847   4.624   4.029  12.350 -0.6065  1.8723  0.8715
 4452TIP3    H234848   4.712   4.132  12.419  0.4487 -1.3894  4.6084
 4453TIP3   OH234849   1.532   4.365  11.086 -0.4849  0.5928  0.0276
 4453TIP3    H134850   1.477   4.356  11.008  1.0025 -0.7383 -0.8716
 4453TIP3    H234851   1.615   4.399  11.054  0.2378 -0.2313  1.0068
 4454TIP3   OH234852   0.855   2.598  13.377  0.2413 -0.3154  0.6806
 4454TIP3    H134853   0.886   2.686  13.395  0.5077 -0.0862 -0.8386
 4454TIP3    H234854   0.828   2.600  13.285 -0.6051 -1.5671  0.8849
 4455TIP3   OH234855   1.891   0.166  12.876 -0.0264  0.4432 -0.1901
 4455TIP3    H134856   1.858   0.132  12.793 -0.0423  2.1638 -0.9123
 4455TIP3    H234857   1.817   0.213  12.915 -0.2848 -1.0823  1.2422
 4456TIP3   OH234858   3.490   2.110  12.975  0.5633 -0.3922 -0.4278
 4456TIP3    H134859   3.518   2.202  12.980 -1.2366  0.2819 -1.9586
 4456TIP3    H234860   3.541   2.074  12.902  0.9889 -0.4916 -0.0792
 4457TIP3   OH234861   1.913   1.471  12.577  0.6206  0.2327 -0.0741
 4457TIP3    H134862   1.872   1.386  12.594 -2.2437  1.1164 -2.2318
 4457TIP3    H234863   2.007   1.452  12.574  0.3241 -2.1127  3.5174
 4458TIP3   OH234864   3.666   1.622  12.947  0.3573  0.0222  0.1874
 4458TIP3    H134865   3.757   1.630  12.919  0.3817 -1.2334 -0.1408
 4458TIP3    H234866   3.632   1.547  12.897 -1.0976  0.9767 -0.3034
 4459TIP3   OH234867   3.162   7.245  13.000 -0.6061 -0.2689  0.1356
 4459TIP3    H134868   3.146   7.339  12.994  1.3749  0.4361  4.0814
 4459TIP3    H234869   3.258   7.237  13.004 -0.7779 -2.3644  0.7000
 4460TIP3   OH234870   5.889   0.091  12.448  0.0639  0.1257  0.6958
 4460TIP3    H134871   5.975   0.132  12.440  1.1423 -2.1626  0.1909
 4460TIP3    H234872   5.895   0.012  12.395 -2.5266  0.1682  0.2829
 4461TIP3   OH234873   4.842   1.565  10.760 -0.4553 -0.4044  0.0810
 4461TIP3    H134874   4.844   1.660  10.752  2.3407 -0.2714  1.8230
 4461TIP3    H234875   4.765   1.547  10.813  0.4049  1.0848  1.8736
 4462TIP3   OH234876   2.518   2.159  12.176 -0.3639  0.3072 -0.4155
 4462TIP3    H134877   2.470   2.088  12.132  0.4799  0.3991 -1.5172
 4462TIP3    H234878   2.529   2.127  12.266  1.2031 -1.6065 -1.2365
 4463TIP3   OH234879   3.477   2.691  10.511 -0.5555  0.0429 -0.3695
 4463TIP3    H134880   3.409   2.757  10.496  0.0546  0.9721  0.9429
 4463TIP3    H234881   3.557   2.741  10.523 -0.3242 -0.8593  1.9847
 4464TIP3   OH234882   6.015   0.794  11.280  0.2573  0.1520 -0.6372
 4464TIP3    H134883   5.962   0.807  11.201 -0.0926  1.3032 -0.2193
 4464TIP3    H234884   5.997   0.703  11.306 -0.3928  0.0820 -1.3176
 4465TIP3   OH234885   3.123   2.123  12.612  0.1132 -0.0291  0.0299
 4465TIP3    H134886   3.078   2.078  12.683  2.0685  0.8181  1.8627
 4465TIP3    H234887   3.161   2.053  12.559 -0.6525 -0.6348  0.2607
 4466TIP3   OH234888   2.727   5.517  10.864 -0.2938 -1.0426 -0.4788
 4466TIP3    H134889   2.690   5.594  10.908  0.3776 -2.0349  1.9269
 4466TIP3    H234890   2.816   5.543  10.841  0.0680 -1.1856  0.6871
 4467TIP3   OH234891   2.818   3.055  12.702 -0.9996 -0.0281 -0.0308
 4467TIP3    H134892   2.792   2.971  12.664  0.1817 -0.3852 -0.0766
 4467TIP3    H234893   2.868   3.032  12.780  0.0931  0.6061 -0.5268
 4468TIP3   OH234894   2.619   4.020  11.799 -0.3199 -0.0650  0.6208
 4468TIP3    H134895   2.529   4.051  11.786 -0.5559 -1.1737 -0.4392
 4468TIP3    H234896   2.659   4.086  11.856 -0.7506  2.3145 -1.7043
 4469TIP3   OH234897   2.557   3.546  10.989 -0.5461 -0.2739  0.0857
 4469TIP3    H134898   2.527   3.455  10.990 -0.4683 -0.2999  0.0158
 4469TIP3    H234899   2.629   3.547  10.926 -0.8113 -0.0811 -0.2178
 4470TIP3   OH234900   2.253   2.679  12.552 -0.0585 -0.2401 -0.2563
 4470TIP3    H134901   2.312   2.672  12.477 -0.0595  3.4628 -0.6770
 4470TIP3    H234902   2.304   2.642  12.625  2.2489  1.5383 -0.9086
 4471TIP3   OH234903   4.902   4.333  12.817 -0.3488 -0.2599  0.0298
 4471TIP3    H134904   4.819   4.323  12.865 -1.1932  1.7648 -0.9395
 4471TIP3    H234905   4.875   4.342  12.725  0.9148  0.8894 -0.2352
 4472TIP3   OH234906   6.536   2.329  11.766 -0.1909 -0.2797  0.1602
 4472TIP3    H134907   6.506   2.343  11.676 -0.9667 -0.7197  0.3434
 4472TIP3    H234908   6.497   2.245  11.791  1.1542 -0.8302  0.4371
 4473TIP3   OH234909   6.523   1.093  11.975  0.0017 -0.7224  0.3117
 4473TIP3    H134910   6.438   1.119  12.010  0.6355  0.7619  0.7583
 4473TIP3    H234911   6.578   1.170  11.984  1.2821 -1.5319 -0.3900
 4474TIP3   OH234912   3.880   5.671  12.262 -0.6227 -0.0558  0.2563
 4474TIP3    H134913   3.809   5.607  12.268 -1.6988  1.1376  0.6656
 4474TIP3    H234914   3.845   5.749  12.306 -0.2959  1.6413 -2.3708
 4475TIP3   OH234915   5.134   1.964  12.411  0.4647 -0.3474 -0.2135
 4475TIP3    H134916   5.189   1.961  12.333  1.3896 -1.2428  0.4620
 4475TIP3    H234917   5.124   1.872  12.437  0.3303 -0.0360  0.8423
 4476TIP3   OH234918   5.739   0.617  12.963 -0.6015 -0.1132  0.0504
 4476TIP3    H134919   5.762   0.534  13.004 -2.9029 -0.5566  0.5040
 4476TIP3    H234920   5.722   0.676  13.036  1.0979  0.8143 -0.2713
 4477TIP3   OH234921   4.709   4.310  12.475  0.2732 -0.0794  0.0763
 4477TIP3    H134922   4.626   4.310  12.428  0.1653 -1.0599  0.2486
 4477TIP3    H234923   4.769   4.356  12.416  0.0999 -1.1448 -0.9751
 4478TIP3   OH234924   2.839   4.248  13.312  0.3336 -0.5034 -0.4135
 4478TIP3    H134925   2.880   4.169  13.349 -0.5166 -1.0954 -0.7103
 4478TIP3    H234926   2.872   4.320  13.366 -0.5889 -1.3109  1.2551
 4479TIP3   OH234927   4.614   6.493  12.034 -0.4935  0.8260  0.2608
 4479TIP3    H134928   4.601   6.515  11.942 -0.1348  0.6061  0.1569
 4479TIP3    H234929   4.709   6.495  12.046 -0.5166  0.4070  0.5161
 4480TIP3   OH234930   0.229   3.559  12.280 -0.2283 -0.5630  0.0213
 4480TIP3    H134931   0.274   3.490  12.330 -0.8759 -2.0094 -1.3585
 4480TIP3    H234932   0.137   3.547  12.301 -0.3398 -0.0731 -0.1888
 4481TIP3   OH234933   4.659   1.295  11.729 -0.0456 -0.2778  0.3006
 4481TIP3    H134934   4.695   1.376  11.694 -0.3088 -1.0328 -1.7527
 4481TIP3    H234935   4.734   1.236  11.735 -0.3342 -0.7454 -0.7306
 4482TIP3   OH234936   4.828   2.086  15.437  0.4710 -0.6279  0.3124
 4482TIP3    H134937   4.803   2.044  15.354 -1.3488  1.1032 -0.0495
 4482TIP3    H234938   4.758   2.062  15.498 -0.4146  1.5609  0.1896
 4483TIP3   OH234939   5.065   1.874  12.153  0.0602 -0.5133  0.4519
 4483TIP3    H134940   5.134   1.913  12.100 -0.9601  1.1170  0.2882
 4483TIP3    H234941   5.110   1.807  12.205  1.5226 -0.3585 -0.5776
 4484TIP3   OH234942   4.034   0.158  10.806 -0.1192  0.3857 -0.2558
 4484TIP3    H134943   4.057   0.068  10.783 -0.6465  0.4014 -0.8760
 4484TIP3    H234944   4.083   0.211  10.743  0.9176  0.5839  0.6985
 4485TIP3   OH234945   3.621   2.124  14.021 -0.3415 -0.1693 -0.5353
 4485TIP3    H134946   3.616   2.215  14.051 -0.2946 -0.1279 -0.6513
 4485TIP3    H234947   3.654   2.131  13.932  1.1970 -0.3982  0.0057
 4486TIP3   OH234948   7.135   4.739  12.145  0.5575 -0.3058 -0.3010
 4486TIP3    H134949   7.205   4.766  12.086  0.2087  2.5450  0.5315
 4486TIP3    H234950   7.170   4.757  12.232 -0.8647  0.2832  0.1455
 4487TIP3   OH234951   5.367   1.871  13.423  0.5974 -0.3905  0.1702
 4487TIP3    H134952   5.386   1.886  13.516  0.5083 -1.8593  0.4400
 4487TIP3    H234953   5.443   1.823  13.391  0.4632 -0.1986 -0.4420
 4488TIP3   OH234954   2.667   4.038  11.539 -0.3269  0.2175 -0.4041
 4488TIP3    H134955   2.632   4.109  11.486 -0.2102  0.3854 -0.2540
 4488TIP3    H234956   2.629   4.052  11.626 -1.3114 -0.6219 -0.6797
 4489TIP3   OH234957   4.116   2.992  11.570 -0.2851 -0.0273 -0.6192
 4489TIP3    H134958   4.137   3.023  11.658 -1.8625 -1.2749  0.2253
 4489TIP3    H234959   4.023   2.972  11.573 -1.1120  2.8745 -3.4853
 4490TIP3   OH234960   5.117   3.394  12.727  0.1924 -0.3347  0.1477
 4490TIP3    H134961   5.058   3.323  12.754  0.6846 -0.8610 -0.1482
 4490TIP3    H234962   5.073   3.433  12.651  0.4000 -0.9658 -0.3020
 4491TIP3   OH234963   5.015   6.905   0.030 -0.0871  0.7506 -0.7861
 4491TIP3    H134964   5.109   6.907   0.011  0.1062 -0.7613 -0.1213
 4491TIP3    H234965   5.009   6.925   0.123 -0.2253 -1.1359 -0.3547
 4492TIP3   OH234966   3.843   2.626  14.056 -0.2615  0.3221 -0.8122
 4492TIP3    H134967   3.823   2.720  14.058  1.8749  0.8048 -0.8207
 4492TIP3    H234968   3.823   2.599  13.967  2.8912  1.6938 -2.0247
 4493TIP3   OH234969   4.700   6.155  11.930  0.1706  0.0403 -0.7863
 4493TIP3    H134970   4.644   6.228  11.960 -1.2947 -0.9727 -1.0126
 4493TIP3    H234971   4.680   6.146  11.837  1.0808 -0.0164 -0.9781
 4494TIP3   OH234972   3.882   3.579  10.587  0.1922 -0.0560 -0.6925
 4494TIP3    H134973   3.866   3.487  10.608  0.1767  0.1050  0.0324
 4494TIP3    H234974   3.973   3.582  10.559 -0.1807 -0.5038 -2.0224
 4495TIP3   OH234975   6.451   3.443  12.814 -0.7816  0.0319  0.0296
 4495TIP3    H134976   6.412   3.491  12.740  0.6037  0.3944 -0.4737
 4495TIP3    H234977   6.391   3.459  12.887 -0.9549  1.5592 -0.4322
 4496TIP3   OH234978   5.577   0.416  11.330 -0.4368 -0.3128  0.4846
 4496TIP3    H134979   5.560   0.413  11.424  1.0571  1.0219  0.8151
 4496TIP3    H234980   5.550   0.504  11.303  0.4605 -0.2010 -0.0746
 4497TIP3   OH234981   3.707   1.743  12.707 -0.5319  0.5063 -0.1690
 4497TIP3    H134982   3.790   1.709  12.740 -0.3486  0.3649 -0.7591
 4497TIP3    H234983   3.730   1.787  12.625 -0.9952  0.7285 -0.1862
 4498TIP3   OH234984   3.346   2.689  15.046 -0.4474  0.5818  0.1341
 4498TIP3    H134985   3.373   2.760  15.104 -1.5290  0.7510  0.4353
 4498TIP3    H234986   3.316   2.620  15.104 -1.1043  0.5760 -0.2146
 4499TIP3   OH234987   4.979   3.145  12.070  0.2983  0.3697 -0.0822
 4499TIP3    H134988   4.979   3.061  12.116 -0.7242  0.5137  0.1796
 4499TIP3    H234989   5.071   3.158  12.047  0.7837  0.1070  1.5794
 4500TIP3   OH234990   7.066   1.547  12.267 -0.3599 -0.0819  0.2469
 4500TIP3    H134991   7.080   1.641  12.256 -0.7434  0.0783  1.1134
 4500TIP3    H234992   7.153   1.512  12.287 -0.4418  0.2870  1.2762
 4501TIP3   OH234993   6.794   3.758  11.671 -0.3891  0.0727 -0.1482
 4501TIP3    H134994   6.882   3.795  11.658 -0.4525  0.5805  0.9008
 4501TIP3    H234995   6.809   3.664  11.675  0.1192  0.1668  0.1766
 4502TIP3   OH234996   4.712   3.835  13.118  0.1824 -0.0332  0.0325
 4502TIP3    H134997   4.741   3.924  13.100 -0.1809  0.1403  0.2893
 4502TIP3    H234998   4.725   3.788  13.035 -1.6683  0.8030 -0.7544
 4503TIP3   OH234999   6.176   4.935  11.532 -0.4697 -1.0574 -0.1294
 4503TIP3    H135000   6.133   5.015  11.561  2.5056 -0.1662  2.0513
 4503TIP3    H235001   6.153   4.928  11.439 -1.0160  2.1416 -0.2996
 4504TIP3   OH235002   6.900   0.984  13.014  0.0767 -0.0907  0.1448
 4504TIP3    H135003   6.889   1.027  12.930  0.0777 -0.5829 -0.1080
 4504TIP3    H235004   6.974   1.029  13.055  0.1185  0.1037 -0.1483
 4505TIP3   OH235005   4.996   0.880  13.633  0.4143  0.0284 -0.0020
 4505TIP3    H135006   4.989   0.833  13.715  2.6066  1.6523  1.1812
 4505TIP3    H235007   4.909   0.916  13.617  0.1369  0.2729  1.9798
 4506TIP3   OH235008   5.477   2.307  11.920  0.1978 -0.2362 -0.0377
 4506TIP3    H135009   5.502   2.399  11.924  0.4325 -0.3157  0.3001
 4506TIP3    H235010   5.540   2.268  11.860  0.7024 -0.3761  0.5844
 4507TIP3   OH235011   6.064   4.588  14.149  0.5952  0.0725 -0.4208
 4507TIP3    H135012   6.081   4.511  14.204  0.8008  0.4214  0.0092
 4507TIP3    H235013   5.972   4.608  14.164  1.2854  1.7457  1.8488
 4508TIP3   OH235014   4.225   1.347  13.293 -0.4819  0.3410 -0.0081
 4508TIP3    H135015   4.226   1.269  13.237  0.6921  0.0077  0.4618
 4508TIP3    H235016   4.132   1.372  13.298 -0.7597 -0.5009 -0.8830
 4509TIP3   OH235017   5.812   3.274  13.363 -0.3025  0.8210  0.3641
 4509TIP3    H135018   5.867   3.317  13.429  1.7875  0.4903 -1.1013
 4509TIP3    H235019   5.842   3.312  13.280 -0.3498 -1.4368 -0.7015
 4510TIP3   OH235020   4.078   5.224  11.770 -0.1092  0.1636 -0.2216
 4510TIP3    H135021   4.165   5.222  11.730 -0.0539  1.0833 -0.1583
 4510TIP3    H235022   4.094   5.244  11.862 -0.3953  0.4873 -0.2394
 4511TIP3   OH235023   5.641   0.232  12.884  0.2792 -0.1526 -0.2230
 4511TIP3    H135024   5.699   0.230  12.809  0.9321  0.3989  0.2572
 4511TIP3    H235025   5.557   0.200  12.851 -0.0606  2.1833 -1.7403
 4512TIP3   OH235026   3.791   4.314  13.563  0.6836  0.4246  0.1961
 4512TIP3    H135027   3.752   4.347  13.483  1.4763  1.1236  0.0842
 4512TIP3    H235028   3.720   4.313  13.627 -0.4327 -2.1040 -1.0679
 4513TIP3   OH235029   6.649   4.079  13.571 -0.1608  0.1525  0.6794
 4513TIP3    H135030   6.590   4.042  13.636  0.5885 -0.3462  1.0940
 4513TIP3    H235031   6.677   4.003  13.519 -1.0123  0.5988 -0.4301
 4514TIP3   OH235032   5.463   2.120  15.169 -0.0955  0.9318  0.0440
 4514TIP3    H135033   5.498   2.044  15.123 -1.1141  0.8383 -0.6055
 4514TIP3    H235034   5.391   2.085  15.222  0.2370  1.2493  0.7195
 4515TIP3   OH235035   6.257   2.536  12.013  0.8439 -0.2083  0.5293
 4515TIP3    H135036   6.341   2.538  11.966  0.5804 -0.2859  0.0484
 4515TIP3    H235037   6.257   2.616  12.065  0.5486  0.5747 -0.6561
 4516TIP3   OH235038   3.354   5.208  12.977 -0.0867  0.4642 -0.0502
 4516TIP3    H135039   3.334   5.189  13.069  2.4678  1.4276  0.7477
 4516TIP3    H235040   3.313   5.292  12.960 -0.2899  0.4354  0.2836
 4517TIP3   OH235041   4.976   1.952  13.576  0.5767  0.1951  0.0840
 4517TIP3    H135042   4.991   1.860  13.557 -0.6767 -0.1098  0.4982
 4517TIP3    H235043   4.903   1.976  13.519  0.5276  0.7800  0.3898
 4518TIP3   OH235044   5.845   1.734  13.274 -0.5337 -0.1169 -0.3231
 4518TIP3    H135045   5.806   1.774  13.351  2.9152  1.3451  0.7842
 4518TIP3    H235046   5.898   1.662  13.309 -0.7565 -0.8970 -1.5544
 4519TIP3   OH235047   4.243   1.757  13.237 -0.7961 -0.0276  0.0813
 4519TIP3    H135048   4.237   1.841  13.193 -0.9635 -0.1949 -0.2233
 4519TIP3    H235049   4.336   1.747  13.259 -0.5273 -0.4160 -1.1884
 4520TIP3   OH235050   0.976   3.469  15.218 -0.1649 -0.1953 -0.7588
 4520TIP3    H135051   1.001   3.562  15.222 -0.9554 -0.0094 -0.2119
 4520TIP3    H235052   0.901   3.467  15.158 -0.8605 -0.3302  0.1139
 4521TIP3   OH235053   4.931   1.835  13.141 -0.1999  0.1418 -0.4114
 4521TIP3    H135054   5.001   1.797  13.195  1.4417  3.1109 -0.3335
 4521TIP3    H235055   4.930   1.782  13.062  1.1637 -0.8509  0.2171
 4522TIP3   OH235056   6.186   7.300  11.686  0.0057 -0.1157  0.1768
 4522TIP3    H135057   6.267   7.310  11.635 -0.3297  3.2726  0.1658
 4522TIP3    H235058   6.166   7.389  11.716 -3.2279 -1.0523  0.9806
 4523TIP3   OH235059   5.142   1.334  13.841 -0.3324 -0.7864  0.3605
 4523TIP3    H135060   5.160   1.241  13.856  1.2869 -0.5763 -0.2220
 4523TIP3    H235061   5.228   1.376  13.843 -0.8407  0.3955 -1.4514
 4524TIP3   OH235062   5.084   3.365  11.316 -0.1309 -0.4862 -0.1131
 4524TIP3    H135063   5.049   3.454  11.313  0.2937 -0.3623 -1.8527
 4524TIP3    H235064   5.144   3.365  11.391 -0.9672  0.3685  0.5627
 4525TIP3   OH235065   7.252   4.552  10.981  0.0155 -0.3398 -0.7040
 4525TIP3    H135066   7.334   4.530  11.024  0.8639  0.9657 -1.6289
 4525TIP3    H235067   7.234   4.642  11.008  0.0977  0.1872 -2.3324
 4526TIP3   OH235068   6.996   2.799  11.510 -0.3590  0.3543  0.5241
 4526TIP3    H135069   7.041   2.845  11.439 -1.2145 -0.1321 -0.3382
 4526TIP3    H235070   7.051   2.723  11.528 -0.4610  0.1496 -0.0334
 4527TIP3   OH235071   6.076   3.068  11.715  0.2843  0.7140  0.6228
 4527TIP3    H135072   6.044   3.053  11.805 -1.6584 -1.3683 -0.3456
 4527TIP3    H235073   6.023   3.141  11.683 -1.0917 -0.4233  0.2324
 4528TIP3   OH235074   5.194   1.302  12.353  0.6090  0.1028 -0.4482
 4528TIP3    H135075   5.136   1.270  12.284 -1.4418  1.3772  0.6248
 4528TIP3    H235076   5.206   1.228  12.412 -0.6944  0.0831 -0.1985
 4529TIP3   OH235077   2.748   0.639  10.360  0.0881 -0.2489  0.2726
 4529TIP3    H135078   2.715   0.575  10.424 -0.0849 -0.3554  0.0788
 4529TIP3    H235079   2.824   0.597  10.322  1.3746  0.6244  1.8101
 4530TIP3   OH235080   4.872   0.249  11.977 -0.0998  0.1192  0.6273
 4530TIP3    H135081   4.840   0.212  12.060 -1.4079 -1.6140 -0.6185
 4530TIP3    H235082   4.796   0.249  11.919  0.9447  0.7261 -0.7668
 4531TIP3   OH235083   5.294   0.084  11.508  0.1034 -0.3118 -0.0004
 4531TIP3    H135084   5.257   0.158  11.557 -2.0089 -0.9147 -0.6071
 4531TIP3    H235085   5.315   0.119  11.422 -0.1116 -0.2154 -0.0138
 4532TIP3   OH235086   5.248   6.971  10.786 -0.2062  0.0007 -0.5207
 4532TIP3    H135087   5.277   6.906  10.851 -1.3940 -0.3342 -0.3211
 4532TIP3    H235088   5.207   6.919  10.717 -0.0871  0.4538 -0.9315
 4533TIP3   OH235089   5.211   1.739  15.686 -0.3711 -0.2396 -0.3331
 4533TIP3    H135090   5.162   1.755  15.605  0.6537 -1.3106 -1.1698
 4533TIP3    H235091   5.298   1.775  15.669 -0.0271 -0.8391  0.1398
 4534TIP3   OH235092   5.438   3.857  11.985 -0.0461 -0.1804  0.0494
 4534TIP3    H135093   5.449   3.926  11.919 -4.2370 -0.8471 -1.4766
 4534TIP3    H235094   5.439   3.775  11.935 -1.0722 -0.8270  1.0719
 4535TIP3   OH235095   5.886   0.807  11.718 -0.5304 -0.0997  0.1068
 4535TIP3    H135096   5.884   0.713  11.703 -0.3865 -0.1736  0.5435
 4535TIP3    H235097   5.927   0.844  11.640 -1.5446 -0.3055 -0.5360
 4536TIP3   OH235098   2.123   3.655  13.379 -0.0002  0.1018 -0.2563
 4536TIP3    H135099   2.084   3.574  13.413  0.3550  0.0897  0.1337
 4536TIP3    H235100   2.109   3.720  13.448  2.2312 -0.3473  0.6894
 4537TIP3   OH235101   4.539   7.065  13.778  0.5039 -0.1719 -0.1731
 4537TIP3    H135102   4.604   7.098  13.839  0.1007 -2.0678  1.3287
 4537TIP3    H235103   4.554   7.114  13.698  1.5114  1.8518  1.2226
 4538TIP3   OH235104   4.249   2.303  15.329 -0.5164  0.0404 -0.2748
 4538TIP3    H135105   4.240   2.217  15.369  1.9098  0.7590  1.9233
 4538TIP3    H235106   4.341   2.308  15.302 -0.7219  1.8073 -0.6971
 4539TIP3   OH235107   3.137   2.925  12.405 -0.2250 -0.3465 -0.2866
 4539TIP3    H135108   3.152   3.009  12.449  0.1938 -1.1556  1.1477
 4539TIP3    H235109   3.141   2.861  12.475 -0.0715 -1.6192 -1.4490
 4540TIP3   OH235110   3.475   1.515  12.530 -0.0555 -0.1720  0.6254
 4540TIP3    H135111   3.478   1.571  12.608  2.2299  1.3587 -0.5091
 4540TIP3    H235112   3.418   1.560  12.469  1.4159  0.7396 -0.1103
 4541TIP3   OH235113   7.066   6.435  11.256 -0.5660  0.7549  0.7919
 4541TIP3    H135114   7.097   6.524  11.270  1.0165  0.3175  0.1641
 4541TIP3    H235115   6.973   6.438  11.277 -0.6917  2.7316  0.0002
 4542TIP3   OH235116   6.727   1.111  11.201 -0.0053  0.1806  0.6797
 4542TIP3    H135117   6.704   1.024  11.234 -0.4927  0.1126  0.1650
 4542TIP3    H235118   6.822   1.117  11.214 -0.2626  0.3979  2.6491
 4543TIP3   OH235119   6.618   7.044  12.706  0.3097 -0.4097  1.3612
 4543TIP3    H135120   6.585   7.129  12.676  0.0715 -0.4741  1.4417
 4543TIP3    H235121   6.703   7.034  12.662  0.0697 -0.3959  0.8917
 4544TIP3   OH235122   4.376   6.284  12.204  0.2973  0.2467  0.5306
 4544TIP3    H135123   4.424   6.229  12.265  1.1538  2.6199  2.0765
 4544TIP3    H235124   4.285   6.278  12.232  0.3346 -0.6674  0.4538
 4545TIP3   OH235125   3.950   5.135  13.196 -0.1811  0.0143 -0.5317
 4545TIP3    H135126   3.863   5.095  13.197  0.1066 -0.7318 -2.1077
 4545TIP3    H235127   3.935   5.229  13.208 -1.0255 -0.3494  1.2824
 4546TIP3   OH235128   0.767   2.016  12.723 -0.4035 -0.2722 -0.0643
 4546TIP3    H135129   0.743   1.936  12.677  0.5519  0.2014 -1.4289
 4546TIP3    H235130   0.838   1.989  12.781  0.6862 -0.1978 -1.3456
 4547TIP3   OH235131   2.924   4.515  12.183  0.3704  0.1462 -0.1847
 4547TIP3    H135132   2.856   4.458  12.218 -0.7580  0.6324 -1.5485
 4547TIP3    H235133   2.918   4.504  12.088  1.5976  0.8831 -0.3579
 4548TIP3   OH235134   0.782   2.704  15.662  0.7306 -0.2714  0.2418
 4548TIP3    H135135   0.871   2.739  15.658  0.3977  0.4178 -1.3864
 4548TIP3    H235136   0.791   2.613  15.635  0.6886  0.3197 -1.8769
 4549TIP3   OH235137   5.091   5.232  14.091  0.5808 -0.4880 -0.5293
 4549TIP3    H135138   5.051   5.216  14.006  0.4595 -0.6017 -0.4495
 4549TIP3    H235139   5.136   5.151  14.112 -1.6695 -1.4309  0.7864
 4550TIP3   OH235140   5.084   1.963  10.923  0.6728  0.2469  0.2415
 4550TIP3    H135141   5.057   2.054  10.910 -0.8122 -0.2560 -0.2860
 4550TIP3    H235142   5.051   1.940  11.010 -0.8908 -0.4542 -0.5159
 4551TIP3   OH235143   5.798   1.445  14.192  0.3521  0.1026  0.2624
 4551TIP3    H135144   5.810   1.431  14.098 -0.3393 -0.8169  0.2972
 4551TIP3    H235145   5.746   1.525  14.198  0.9822  0.5419 -0.1106
 4552TIP3   OH235146   2.718   1.659  14.645  0.7712 -0.8063  0.1194
 4552TIP3    H135147   2.623   1.650  14.640  0.8061 -0.5432 -1.4918
 4552TIP3    H235148   2.752   1.580  14.604  1.2184 -0.0823 -0.9256
 4553TIP3   OH235149   4.023   4.015  13.089 -0.1440 -0.5296  0.6069
 4553TIP3    H135150   4.037   3.926  13.122  1.8466 -0.6151 -0.4204
 4553TIP3    H235151   4.064   4.071  13.155  2.0325 -0.5954 -0.6548
 4554TIP3   OH235152   5.332   2.440  11.647  0.1533 -0.4586  0.1345
 4554TIP3    H135153   5.384   2.478  11.717 -2.8505  0.2785  2.0647
 4554TIP3    H235154   5.323   2.511  11.583  0.5257 -0.2291  0.3361
 4555TIP3   OH235155   0.626   2.743  12.701 -0.3246  0.2927 -0.0485
 4555TIP3    H135156   0.572   2.741  12.622  0.6483  0.7881 -0.7353
 4555TIP3    H235157   0.598   2.667  12.752 -2.3505  1.0937  0.0609
 4556TIP3   OH235158   4.215   3.088  14.879  0.1905  0.1990 -1.2532
 4556TIP3    H135159   4.127   3.113  14.906 -0.3618 -2.1651 -0.7675
 4556TIP3    H235160   4.264   3.170  14.878 -1.3711  1.2067  0.9455
 4557TIP3   OH235161   5.949   0.786  12.299  0.0492 -0.5932  0.3131
 4557TIP3    H135162   5.926   0.772  12.391 -0.4721 -0.4361  0.2049
 4557TIP3    H235163   6.032   0.738  12.288  0.9038  0.6420  1.2517
 4558TIP3   OH235164   4.554   4.849  13.216 -0.2485  0.9679 -0.2863
 4558TIP3    H135165   4.617   4.847  13.144 -0.9715  0.2423 -0.8949
 4558TIP3    H235166   4.470   4.828  13.176 -0.6459  0.5071  0.7691
 4559TIP3   OH235167   4.904   5.190  10.464 -0.3914  0.4332 -0.7460
 4559TIP3    H135168   4.838   5.201  10.395 -0.4688  1.0161 -0.5806
 4559TIP3    H235169   4.861   5.219  10.544 -0.0703  0.4185 -0.5681
 4560TIP3   OH235170   4.731   4.449  13.954  0.2833  0.1943 -0.0084
 4560TIP3    H135171   4.724   4.411  14.041 -1.0017  1.9687  0.7076
 4560TIP3    H235172   4.825   4.452  13.936  0.4811 -1.4953  0.7068
 4561TIP3   OH235173   5.659   5.796  12.127 -0.3716 -0.3720 -0.1729
 4561TIP3    H135174   5.621   5.883  12.136  0.4355 -0.1238  0.9423
 4561TIP3    H235175   5.623   5.745  12.200 -2.2716 -1.5343 -1.8505
 4562TIP3   OH235176   5.049   6.016  13.834 -0.2001  0.2860 -0.1771
 4562TIP3    H135177   5.030   6.109  13.851 -2.4624 -0.3580  1.0897
 4562TIP3    H235178   5.083   5.983  13.917  0.2534 -0.1017 -0.5149
 4563TIP3   OH235179   5.517   1.313  14.418 -0.2443 -0.1058  0.5150
 4563TIP3    H135180   5.514   1.377  14.489  0.3284  0.8158 -0.2787
 4563TIP3    H235181   5.440   1.332  14.365  0.0368  0.0833  0.1639
 4564TIP3   OH235182   5.394   1.925  12.918 -0.8492 -0.0500  0.2918
 4564TIP3    H135183   5.331   1.891  12.854 -1.4173 -0.3248  0.9836
 4564TIP3    H235184   5.339   1.963  12.987 -0.2406  1.4256 -0.0072
 4565TIP3   OH235185   6.013   0.800  10.506 -0.4256  0.1660 -0.2863
 4565TIP3    H135186   6.075   0.739  10.545 -0.1827  0.8777  0.4628
 4565TIP3    H235187   5.937   0.746  10.483  0.4053 -0.6801 -1.0762
 4566TIP3   OH235188   4.840   1.294  12.575 -0.2550 -0.1717  0.1817
 4566TIP3    H135189   4.929   1.261  12.585 -0.4928 -0.7106  0.5349
 4566TIP3    H235190   4.837   1.327  12.485  0.4922  0.4353  0.3709
 4567TIP3   OH235191   4.915   2.573  10.983  0.2863  0.1093 -0.4271
 4567TIP3    H135192   5.007   2.589  11.002  0.5436 -1.4187 -0.3126
 4567TIP3    H235193   4.912   2.555  10.889 -0.1485  1.8411 -0.7600
 4568TIP3   OH235194   1.848   3.817  13.079 -0.4098  0.6873  0.6922
 4568TIP3    H135195   1.899   3.854  13.151  0.0854  1.4615 -0.0396
 4568TIP3    H235196   1.892   3.848  13.000 -3.0180  2.8880  0.0001
 4569TIP3   OH235197   5.281   2.877  11.360  0.7503  0.1823  0.3069
 4569TIP3    H135198   5.225   2.946  11.396  2.3102  1.1384  0.9551
 4569TIP3    H235199   5.306   2.908  11.274  1.4159  0.4073  0.5807
 4570TIP3   OH235200   4.060   4.002  13.585 -0.0888  0.1555 -0.2439
 4570TIP3    H135201   3.970   3.989  13.614  0.0926  0.1154  0.3159
 4570TIP3    H235202   4.097   4.064  13.647 -0.0492  1.0154 -1.1256
 4571TIP3   OH235203   4.934   3.958  10.356  0.2604 -0.1279 -0.0587
 4571TIP3    H135204   4.930   4.045  10.316 -0.7252 -0.3523 -0.4554
 4571TIP3    H235205   4.891   3.970  10.441 -0.2600 -0.3307 -0.2946
 4572TIP3   OH235206   5.270   2.617  11.926  0.2172 -0.6417  0.3204
 4572TIP3    H135207   5.195   2.569  11.962  0.0536  0.3145  1.2692
 4572TIP3    H235208   5.231   2.694  11.885  0.7085  0.0563  1.1457
 4573TIP3   OH235209   4.495   3.940  12.226  0.3705  0.0091  0.2297
 4573TIP3    H135210   4.408   3.980  12.218 -0.0759 -0.8457  0.7158
 4573TIP3    H235211   4.478   3.854  12.264  1.2965 -0.7728 -1.1174
 4574TIP3   OH235212   6.732   3.667  14.671  0.0264 -0.3691  0.7391
 4574TIP3    H135213   6.815   3.703  14.639 -0.5103 -0.1002 -0.3881
 4574TIP3    H235214   6.715   3.714  14.752  0.0790  0.8856  0.0397
 4575TIP3   OH235215   5.873   5.692  11.150 -0.7097 -0.2319 -0.3375
 4575TIP3    H135216   5.929   5.688  11.073 -1.6833 -1.1977 -1.0041
 4575TIP3    H235217   5.909   5.764  11.202 -0.1255  0.5001 -1.7412
 4576TIP3   OH235218   6.449   3.640  13.197  0.1214 -0.2801 -0.1785
 4576TIP3    H135219   6.535   3.601  13.185 -0.0465 -0.5432 -0.5396
 4576TIP3    H235220   6.461   3.732  13.171  0.0287 -0.5830 -1.3012
 4577TIP3   OH235221   6.437   2.965  12.521 -0.3264  0.3397 -0.2139
 4577TIP3    H135222   6.357   2.983  12.571 -0.6970 -0.1205 -0.6478
 4577TIP3    H235223   6.489   2.910  12.579 -1.4604 -1.5658 -0.9581
 4578TIP3   OH235224   3.493   4.721  11.980  0.1154  0.2913 -0.1174
 4578TIP3    H135225   3.441   4.646  12.010 -1.3995  1.3437 -0.0682
 4578TIP3    H235226   3.506   4.703  11.886 -1.3979  0.6022 -0.4107
 4579TIP3   OH235227   3.114   4.208  11.725  0.6222  0.3850  0.0072
 4579TIP3    H135228   3.109   4.146  11.798 -0.0916  0.2412 -0.1549
 4579TIP3    H235229   3.059   4.169  11.657  1.0215  0.6787 -0.4837
 4580TIP3   OH235230   3.821   2.510  13.027  0.3381  0.0645  0.3324
 4580TIP3    H135231   3.810   2.443  13.094  0.7357 -0.2452  0.0867
 4580TIP3    H235232   3.886   2.570  13.064 -1.1255  1.1497  1.1991
 4581TIP3   OH235233   4.501   1.968  10.845 -0.0190 -0.2186  0.1125
 4581TIP3    H135234   4.490   1.876  10.871 -1.1016 -0.3632 -0.8204
 4581TIP3    H235235   4.426   2.013  10.882 -0.7722 -0.1553 -1.4795
 4582TIP3   OH235236   3.337   0.670  12.632  0.1309  0.3176  0.3075
 4582TIP3    H135237   3.374   0.587  12.660  1.3073  0.9556  0.6858
 4582TIP3    H235238   3.281   0.648  12.558  1.0476 -0.7079 -0.0865
 4583TIP3   OH235239   6.131   6.652  13.675  0.0778  0.4833 -0.5535
 4583TIP3    H135240   6.066   6.596  13.717 -0.0188 -0.3479 -1.7821
 4583TIP3    H235241   6.168   6.704  13.747 -1.7754  0.8054  0.1867
 4584TIP3   OH235242   4.127   3.471  11.023  0.1564  0.2698  0.2628
 4584TIP3    H135243   4.209   3.439  10.986  0.7170  0.3410  1.4151
 4584TIP3    H235244   4.082   3.392  11.052  0.0149  0.2669  0.0371
 4585TIP3   OH235245   4.112   1.620  12.666  0.3263 -0.5431  0.4801
 4585TIP3    H135246   4.138   1.648  12.578  3.1480 -2.2878  0.6788
 4585TIP3    H235247   4.174   1.665  12.724 -1.2024  0.2036  1.5488
 4586TIP3   OH235248   4.110   4.390  14.218  0.0512 -0.0371 -0.2893
 4586TIP3    H135249   4.177   4.436  14.168  0.6853  0.1233  0.7008
 4586TIP3    H235250   4.057   4.345  14.152  1.0893 -0.1127 -1.0718
 4587TIP3   OH235251   4.894   1.707  12.012  0.4556  0.2344 -0.0309
 4587TIP3    H135252   4.973   1.669  11.973  1.2996  1.2368  0.6446
 4587TIP3    H235253   4.928   1.767  12.079 -0.8144  2.1534 -1.0715
 4588TIP3   OH235254   2.129   4.641  11.248 -0.2023  0.2267 -0.2001
 4588TIP3    H135255   2.192   4.648  11.320  0.2995  0.4413 -0.6533
 4588TIP3    H235256   2.166   4.695  11.179 -0.5329 -0.2074 -0.7221
 4589TIP3   OH235257   4.546   1.540  14.373 -0.0915  0.0745  0.2573
 4589TIP3    H135258   4.639   1.516  14.381  0.7612  3.0854  0.1238
 4589TIP3    H235259   4.516   1.494  14.295  0.8340 -2.1934  1.1804
 4590TIP3   OH235260   4.722   5.281  13.668  0.4917  0.4271 -0.1140
 4590TIP3    H135261   4.780   5.245  13.601 -0.1876  0.8609 -0.9516
 4590TIP3    H235262   4.671   5.348  13.622 -2.9904 -2.1732 -0.2321
 4591TIP3   OH235263   6.113   3.572  10.988  0.0434 -0.2110 -0.2681
 4591TIP3    H135264   6.185   3.635  10.988  0.3463 -0.5259  1.7365
 4591TIP3    H235265   6.155   3.487  11.000 -0.5619 -0.5105 -0.2556
 4592TIP3   OH235266   5.066   2.227  14.481  0.8814 -0.1527  0.3676
 4592TIP3    H135267   5.051   2.154  14.540  0.3504  0.0697  0.5095
 4592TIP3    H235268   5.150   2.207  14.439  1.9658  0.3899  2.2114
 4593TIP3   OH235269   4.376   2.567  12.198 -0.1917  0.0653 -0.3682
 4593TIP3    H135270   4.467   2.543  12.177  0.0466  0.9874 -0.4258
 4593TIP3    H235271   4.385   2.637  12.262 -0.8828 -0.4347  0.2802
 4594TIP3   OH235272   3.480   2.803  12.553 -0.3448 -0.0628  0.2514
 4594TIP3    H135273   3.465   2.710  12.539 -0.8312 -0.2833  2.0594
 4594TIP3    H235274   3.473   2.842  12.466 -0.7335 -1.6276 -0.4363
 4595TIP3   OH235275   6.205   1.760  12.712 -0.2679  0.2096  0.1230
 4595TIP3    H135276   6.182   1.711  12.790  0.2772 -1.3834 -0.6959
 4595TIP3    H235277   6.280   1.814  12.738  0.6706 -1.2014  0.3936
 4596TIP3   OH235278   4.698   3.161  13.140 -0.1382  0.3791 -0.6571
 4596TIP3    H135279   4.772   3.159  13.201 -1.0412 -0.8417  0.4321
 4596TIP3    H235280   4.720   3.231  13.078  1.0059  1.3449  0.7936
 4597TIP3   OH235281   4.604   5.452  13.264  0.2441  0.0849 -0.3907
 4597TIP3    H135282   4.555   5.375  13.235 -1.2065  0.3904  1.1630
 4597TIP3    H235283   4.618   5.437  13.358 -1.6419  2.5418  0.3243
 4598TIP3   OH235284   3.018   6.113  12.831  0.1619  0.1737  0.5513
 4598TIP3    H135285   3.114   6.116  12.824  0.1644 -0.1513  0.4236
 4598TIP3    H235286   3.002   6.075  12.917  0.1659 -2.1484 -0.4334
 4599TIP3   OH235287   4.660   0.880  13.713 -0.1406  0.2181  0.0784
 4599TIP3    H135288   4.596   0.897  13.783  1.0524 -0.2747  1.3129
 4599TIP3    H235289   4.608   0.882  13.632 -1.1385  3.3702  0.7083
 4600TIP3   OH235290   5.781   5.876  13.777 -0.2732  0.1524  0.7779
 4600TIP3    H135291   5.744   5.868  13.865 -1.6739  0.4330  0.2210
 4600TIP3    H235292   5.752   5.962  13.747  0.8790  0.3963  0.3391
 4601TIP3   OH235293   0.015   2.856  12.424 -0.1025  0.1058 -0.3958
 4601TIP3    H135294   0.071   2.884  12.497  1.3878 -0.4593 -1.2968
 4601TIP3    H235295   0.026   2.761  12.421 -1.8648 -0.1260 -0.0016
 4602TIP3   OH235296   2.191   5.425  14.478  0.0461 -0.1710  0.0922
 4602TIP3    H135297   2.235   5.493  14.427 -1.6571  1.2281  0.4381
 4602TIP3    H235298   2.139   5.377  14.415  2.0770 -1.8850 -0.3331
 4603TIP3   OH235299   1.234   3.996  12.681  0.1614  0.1742 -0.6278
 4603TIP3    H135300   1.259   4.043  12.601  2.1538  1.4755  0.7156
 4603TIP3    H235301   1.311   4.002  12.737 -0.1883 -3.1169  0.3341
 4604TIP3   OH235302   4.257   3.936  13.279  0.1837  0.0379  0.8751
 4604TIP3    H135303   4.261   4.031  13.272  0.4538  0.1370  2.2896
 4604TIP3    H235304   4.183   3.920  13.338  1.0461 -0.5655  1.8106
 4605TIP3   OH235305   4.735   3.704  14.442  0.1964  0.3866  0.3414
 4605TIP3    H135306   4.675   3.659  14.382  0.7033  1.0137 -0.6597
 4605TIP3    H235307   4.769   3.778  14.391  1.3058  0.4320  1.1162
 4606TIP3   OH235308   4.258   2.601  15.041  0.9802 -0.6598  0.8850
 4606TIP3    H135309   4.282   2.537  14.973  2.7708 -0.1655  1.0252
 4606TIP3    H235310   4.169   2.577  15.066  0.8277 -1.7438 -0.6225
 4607TIP3   OH235311   3.456   4.383  13.017 -0.0867  0.0064  0.3805
 4607TIP3    H135312   3.511   4.306  13.009  0.2551  0.2929 -0.0534
 4607TIP3    H235313   3.469   4.431  12.935 -0.8732  0.1449  0.3271
 4608TIP3   OH235314   5.000   2.501  12.033  0.2526 -0.6916  0.4139
 4608TIP3    H135315   4.983   2.482  12.126  2.0718 -0.7836  0.7450
 4608TIP3    H235316   4.976   2.421  11.987 -1.3967 -0.3808  0.7131
 4609TIP3   OH235317   3.789   4.209   0.121  0.5323  0.0260  0.4634
 4609TIP3    H135318   3.740   4.138   0.079  0.5187  0.8372 -0.9212
 4609TIP3    H235319   3.726   4.252   0.178  0.0866 -0.0034 -0.0048
 4610TIP3   OH235320   4.712   3.796  12.465 -0.8364 -0.7381  0.1472
 4610TIP3    H135321   4.713   3.890  12.448  0.5965 -0.6058  0.9441
 4610TIP3    H235322   4.740   3.756  12.383 -1.9381 -0.5054 -0.3513
 4611TIP3   OH235323   5.451   2.438  12.854 -0.0049 -1.0511  0.0643
 4611TIP3    H135324   5.399   2.371  12.899 -0.1374 -0.7953  0.2924
 4611TIP3    H235325   5.460   2.508  12.919 -0.2105 -0.6730 -0.3106
 4612TIP3   OH235326   5.683   2.246  11.740 -1.1615 -0.0964 -0.2445
 4612TIP3    H135327   5.722   2.159  11.740 -0.3669  0.2618 -0.4211
 4612TIP3    H235328   5.737   2.297  11.800 -3.7465 -0.6481  2.6926
 4613TIP3   OH235329   5.173   2.965  12.824  0.0083  0.4744  0.5087
 4613TIP3    H135330   5.092   3.016  12.831 -1.8714 -2.4024  0.3990
 4613TIP3    H235331   5.176   2.913  12.904  1.1329 -0.3104 -0.0323
 4614TIP3   OH235332   6.972   0.314  12.533 -0.3251 -0.3835  0.5250
 4614TIP3    H135333   7.022   0.295  12.454  0.9760  1.4307  0.8725
 4614TIP3    H235334   6.880   0.306  12.507  0.0247  2.5817 -1.8177
 4615TIP3   OH235335   5.100   4.778  13.054 -0.0442 -0.4896  0.1625
 4615TIP3    H135336   5.061   4.858  13.090  0.2750  1.0278 -2.7201
 4615TIP3    H235337   5.026   4.731  13.015  0.3100  0.2220 -1.3938
 4616TIP3   OH235338   3.884   1.402  12.085 -0.5132 -0.2634  0.4213
 4616TIP3    H135339   3.873   1.416  12.179  1.4308 -1.8902  0.9368
 4616TIP3    H235340   3.817   1.338  12.062 -0.0593 -0.9556  1.0098
 4617TIP3   OH235341   4.353   4.952  13.828 -0.0501 -0.0404 -0.1295
 4617TIP3    H135342   4.321   5.036  13.794 -0.9897 -1.1509 -2.0933
 4617TIP3    H235343   4.426   4.929  13.772 -0.9030 -1.3589 -0.7322
 4618TIP3   OH235344   4.875   2.820  15.506  0.2935  0.2635  0.3409
 4618TIP3    H135345   4.837   2.908  15.508  1.5968  0.8742 -0.4543
 4618TIP3    H235346   4.802   2.763  15.483 -0.2546  1.3549 -0.7406
 4619TIP3   OH235347   4.334   0.557  11.128 -0.5121  0.1091  0.2166
 4619TIP3    H135348   4.264   0.552  11.063  0.7246 -1.5756 -1.0326
 4619TIP3    H235349   4.414   0.541  11.078  0.7188  1.3350  1.7467
 4620TIP3   OH235350   3.349   2.994  13.733  0.2742 -0.2149 -0.2543
 4620TIP3    H135351   3.406   3.071  13.736 -0.5891  0.7117 -4.6464
 4620TIP3    H235352   3.282   3.012  13.798  1.4336  1.6045  0.4903
 4621TIP3   OH235353   3.427   3.265  13.732 -0.1151 -0.5952 -0.3342
 4621TIP3    H135354   3.453   3.338  13.676  0.4769 -0.2009  0.4550
 4621TIP3    H235355   3.509   3.221  13.755 -0.3039 -0.4302  0.6658
 4622TIP3   OH235356   0.027   2.586  12.437 -0.4711  0.3935  0.0733
 4622TIP3    H135357  -0.045   2.537  12.397 -1.4313 -0.2288  2.4671
 4622TIP3    H235358   0.093   2.520  12.456 -0.6822  0.4304  0.9444
 4623TIP3   OH235359   6.276   1.779  11.676 -0.4551  0.1515 -0.4369
 4623TIP3    H135360   6.362   1.783  11.716 -1.0386 -0.2571  0.8874
 4623TIP3    H235361   6.224   1.845  11.722 -1.9987 -2.4191  1.7138
 4624TIP3   OH235362   3.447   1.401  13.147  0.0812  0.3503 -0.4304
 4624TIP3    H135363   3.458   1.307  13.160 -0.2764  0.2947 -0.5117
 4624TIP3    H235364   3.409   1.408  13.059 -1.3347  0.4800  0.1821
 4625TIP3   OH235365   4.939   1.554  13.359 -0.3031 -0.1190  0.0880
 4625TIP3    H135366   4.998   1.484  13.389  1.1238  0.5839 -0.9683
 4625TIP3    H235367   4.884   1.574  13.434  0.1223 -1.5233  0.7865
 4626TIP3   OH235368   3.513   2.881  13.012  0.0967  0.8630  0.5157
 4626TIP3    H135369   3.475   2.951  12.958 -0.9542  1.0340  1.4498
 4626TIP3    H235370   3.581   2.842  12.957 -1.9147  0.0817 -1.4982
 4627TIP3   OH235371   2.955   3.213  12.478  0.1159  0.8974 -0.0472
 4627TIP3    H135372   2.965   3.160  12.557 -0.0204 -0.9921 -1.2818
 4627TIP3    H235373   2.863   3.202  12.453  0.5974 -0.0059 -1.4841
 4628TIP3   OH235374   3.843   4.682  11.089 -0.3199 -0.7004 -0.7836
 4628TIP3    H135375   3.825   4.590  11.071  0.5222 -1.4168  1.7430
 4628TIP3    H235376   3.804   4.697  11.175  2.5697  0.3327  0.4002
 4629TIP3   OH235377   4.029   1.971  15.258 -0.2578  0.1236 -0.4504
 4629TIP3    H135378   4.108   1.996  15.211  0.3305 -0.3327  0.2836
 4629TIP3    H235379   4.009   2.045  15.314 -1.4690  1.0409 -2.0322
 4630TIP3   OH235380   5.305   4.441  15.134 -0.2566 -0.4027 -0.2555
 4630TIP3    H135381   5.243   4.369  15.126  0.6022 -1.3525  1.2395
 4630TIP3    H235382   5.267   4.513  15.084 -2.5989 -0.9305  0.7362
 4631TIP3   OH235383   6.528   2.158  13.801  0.3920 -0.5497  0.1796
 4631TIP3    H135384   6.570   2.100  13.738 -0.5728 -0.4044 -0.5874
 4631TIP3    H235385   6.546   2.117  13.886 -1.3773 -2.6513 -0.4365
 4632TIP3   OH235386   6.294   1.716  13.109  0.2465  0.4341 -0.3169
 4632TIP3    H135387   6.353   1.789  13.088 -1.1140  1.3503 -1.0422
 4632TIP3    H235388   6.294   1.662  13.031  0.8194 -0.0456  0.0150
 4633TIP3   OH235389   5.468   2.137  12.269  0.1182 -0.8480  0.1996
 4633TIP3    H135390   5.550   2.182  12.249 -0.3877 -0.7201 -1.7589
 4633TIP3    H235391   5.427   2.191  12.336  0.2061  0.8468 -1.0654
 4634TIP3   OH235392   7.170   1.954  11.976  0.3642  0.6035  0.3577
 4634TIP3    H135393   7.238   2.016  11.950 -0.2715  0.7349 -1.0702
 4634TIP3    H235394   7.176   1.884  11.912 -1.1683  0.8740 -0.1034
 4635TIP3   OH235395   4.720   3.883  13.650  0.1159 -0.3678 -0.1985
 4635TIP3    H135396   4.643   3.939  13.641  0.3588 -0.0090 -0.0243
 4635TIP3    H235397   4.758   3.881  13.562  0.8131  0.7486  0.0693
 4636TIP3   OH235398   4.351   5.014  11.467 -0.2558 -0.3608  0.2344
 4636TIP3    H135399   4.324   5.070  11.394 -0.3928 -0.7468 -0.0126
 4636TIP3    H235400   4.412   4.951  11.428 -0.3276 -0.5677  0.4554
 4637TIP3   OH235401   5.196   5.584  11.160  0.3362 -0.5646 -0.5721
 4637TIP3    H135402   5.194   5.680  11.167  1.4037 -0.5336 -0.6804
 4637TIP3    H235403   5.105   5.558  11.175 -0.0301  0.4856 -0.8711
 4638TIP3   OH235404   6.522   6.883  11.131  0.2754  0.3544  0.2315
 4638TIP3    H135405   6.595   6.944  11.142  0.7228 -0.2420  0.6585
 4638TIP3    H235406   6.560   6.797  11.152  0.1273 -0.3085 -2.0821
 4639TIP3   OH235407   6.046   6.015  13.254  0.2124  0.2169  0.2482
 4639TIP3    H135408   6.004   5.966  13.182 -0.4197  0.7319  0.2587
 4639TIP3    H235409   6.078   5.947  13.314  2.7234 -0.3030 -1.5859
 4640TIP3   OH235410   3.605   0.880  11.977  0.0593  1.0958 -0.2591
 4640TIP3    H135411   3.533   0.927  12.020 -0.7366  0.0178 -0.3741
 4640TIP3    H235412   3.637   0.940  11.910 -0.4383  1.7670  0.1071
 4641TIP3   OH235413   5.660   2.350  15.342 -0.3245 -0.2510 -0.5892
 4641TIP3    H135414   5.672   2.443  15.360  1.3577 -0.2593 -1.6013
 4641TIP3    H235415   5.645   2.345  15.248 -0.0127 -1.0482 -0.5981
 4642TIP3   OH235416   0.631   1.965  13.532 -0.1007 -0.1864 -0.0142
 4642TIP3    H135417   0.570   2.038  13.533 -0.3079 -0.3720  2.4146
 4642TIP3    H235418   0.705   1.997  13.480 -1.1617  0.9161 -0.8753
 4643TIP3   OH235419   4.598   0.670  12.218 -0.3053 -0.2734  0.0531
 4643TIP3    H135420   4.613   0.734  12.288  0.0517 -1.1374  0.7931
 4643TIP3    H235421   4.555   0.596  12.263  0.7525 -1.2162 -0.4523
 4644TIP3   OH235422   6.276   7.035  13.689  0.0044 -0.6906 -0.4315
 4644TIP3    H135423   6.269   7.011  13.597 -0.4312  0.2886 -0.6546
 4644TIP3    H235424   6.339   7.107  13.691 -0.4323 -0.3141 -0.0379
 4645TIP3   OH235425   4.750   0.867  11.651 -0.2247 -0.7185 -0.4774
 4645TIP3    H135426   4.808   0.792  11.664  0.8199 -0.3198 -2.5629
 4645TIP3    H235427   4.672   0.830  11.610 -0.6772 -0.9980  0.6396
 4646TIP3   OH235428   4.902   0.621  12.805 -0.2273  0.0452 -0.4590
 4646TIP3    H135429   4.879   0.589  12.717  1.5103 -1.6491 -0.3324
 4646TIP3    H235430   4.940   0.707  12.790 -0.0472 -0.1840 -1.3527
 4647TIP3   OH235431   4.357   2.615  15.772 -0.0836 -0.0521  0.0569
 4647TIP3    H135432   4.429   2.600  15.833 -0.6103 -0.2195  0.6405
 4647TIP3    H235433   4.345   2.710  15.772  1.0124  0.0872 -1.0530
 4648TIP3   OH235434   5.078   1.789  14.058 -0.3731  0.2142  0.1725
 4648TIP3    H135435   5.168   1.763  14.040  0.4340  0.9207  3.0388
 4648TIP3    H235436   5.061   1.859  13.995  0.0739 -1.7986 -2.2888
 4649TIP3   OH235437   6.897   0.822  12.713 -0.7094 -0.1344  0.8672
 4649TIP3    H135438   6.962   0.885  12.745 -0.6635 -0.0203  0.5494
 4649TIP3    H235439   6.932   0.793  12.629 -2.0420  1.3829 -0.2331
 4650TIP3   OH235440   5.173   2.132  12.672  0.0836  0.5483  0.0218
 4650TIP3    H135441   5.193   2.175  12.754 -0.1028  2.5718 -0.9503
 4650TIP3    H235442   5.202   2.193  12.605 -1.1687 -0.3712 -1.4118
 4651TIP3   OH235443   6.455   3.434  12.247 -0.0933  0.0217 -0.0816
 4651TIP3    H135444   6.428   3.430  12.155  1.1714  0.0090 -0.4526
 4651TIP3    H235445   6.496   3.519  12.256  1.8169 -0.8742 -0.0959
 4652TIP3   OH235446   6.667   1.748  14.472 -0.0282  0.7715  0.5546
 4652TIP3    H135447   6.725   1.678  14.501  0.8296  1.2090 -0.0825
 4652TIP3    H235448   6.664   1.809  14.545 -3.0355 -1.2869  2.2399
 4653TIP3   OH235449   6.558   1.954  12.601  0.2264 -0.1619  0.1371
 4653TIP3    H135450   6.557   1.997  12.516  0.1697 -1.3742 -0.4710
 4653TIP3    H235451   6.506   1.875  12.589  0.0224 -0.2256  1.3562
 4654TIP3   OH235452   5.196   1.548  10.725 -0.4892 -0.4515  1.1016
 4654TIP3    H135453   5.164   1.500  10.648 -0.7316 -0.4532  1.2005
 4654TIP3    H235454   5.208   1.480  10.792 -1.3094 -0.3134  1.3964
 4655TIP3   OH235455   6.895   4.590  12.726  0.3210 -0.1742 -0.0334
 4655TIP3    H135456   6.876   4.679  12.755 -0.0899 -0.2877  0.0457
 4655TIP3    H235457   6.916   4.599  12.633  1.2144  0.1323  0.1937
 4656TIP3   OH235458   2.993   1.484  15.619 -0.3274  0.1672 -0.2058
 4656TIP3    H135459   3.028   1.534  15.693 -1.3584  0.9159 -0.2154
 4656TIP3    H235460   2.936   1.418  15.658 -0.2635  0.0628 -0.2881
 4657TIP3   OH235461   3.748   4.791  12.819 -0.6228  0.0880  0.3617
 4657TIP3    H135462   3.829   4.839  12.801 -0.6505 -0.3300 -0.9126
 4657TIP3    H235463   3.681   4.859  12.824 -0.4301  0.3097 -0.0439
 4658TIP3   OH235464   2.974   4.491  11.179  0.3207  0.2887 -0.2164
 4658TIP3    H135465   2.902   4.532  11.132  1.7074  0.1088 -2.5730
 4658TIP3    H235466   2.934   4.458  11.260 -1.3748  3.7223  0.4209
 4659TIP3   OH235467   6.195   4.821  12.618 -0.1608  0.3506  0.5791
 4659TIP3    H135468   6.169   4.851  12.532 -1.4900  0.8267  1.1300
 4659TIP3    H235469   6.172   4.893  12.677  0.9949  0.1491  1.2938
 4660TIP3   OH235470   5.483   4.181  14.831 -0.5443  0.0829 -0.7191
 4660TIP3    H135471   5.552   4.130  14.874  0.0548  0.8024 -0.8100
 4660TIP3    H235472   5.425   4.116  14.793 -0.3707 -0.5462  0.0863
 4661TIP3   OH235473   0.141   0.941  12.611  0.0881 -0.0481  0.0918
 4661TIP3    H135474   0.167   1.033  12.619  0.7852 -0.2415  0.1202
 4661TIP3    H235475   0.196   0.896  12.676  1.2766 -0.7754 -1.3900
 4662TIP3   OH235476   4.381   4.567  13.702 -0.3651 -0.0864  0.2536
 4662TIP3    H135477   4.342   4.651  13.679  1.7144  0.7708 -0.3324
 4662TIP3    H235478   4.453   4.589  13.762  0.9571 -1.2901 -0.8343
 4663TIP3   OH235479   5.024   6.456  14.250 -0.0351  0.1712 -0.4263
 4663TIP3    H135480   4.967   6.532  14.263 -0.3854 -0.0739 -0.5233
 4663TIP3    H235481   5.053   6.432  14.337 -0.0993  0.2826 -0.3735
 4664TIP3   OH235482   5.548   4.938  12.250  0.2953 -0.5329  0.4092
 4664TIP3    H135483   5.606   4.871  12.286 -0.2741 -1.3671 -0.1982
 4664TIP3    H235484   5.504   4.895  12.177 -1.3619 -0.0340  1.0799
 4665TIP3   OH235485   5.816   1.276  11.755  0.0116 -0.5832 -0.0813
 4665TIP3    H135486   5.810   1.360  11.800  1.2427 -0.7432  0.3845
 4665TIP3    H235487   5.864   1.295  11.674  2.6452 -1.3328  1.2845
 4666TIP3   OH235488   4.971   5.011  13.131 -0.3299  0.5437 -0.3590
 4666TIP3    H135489   4.932   5.045  13.212 -0.2788  0.9285 -0.4944
 4666TIP3    H235490   4.897   4.981  13.079 -0.3822  0.5204 -0.2714
 4667TIP3   OH235491   5.493   5.041  11.756 -0.2743 -0.1484  0.2116
 4667TIP3    H135492   5.483   4.962  11.703  0.3345  0.2721 -0.5287
 4667TIP3    H235493   5.432   5.104  11.717  0.6273  0.3614 -0.3727
 4668TIP3   OH235494   4.961   4.696  12.811 -0.0734  0.6296  0.3509
 4668TIP3    H135495   5.045   4.720  12.773  0.9870 -0.5167  1.8966
 4668TIP3    H235496   4.971   4.605  12.837 -1.8029  0.4671  0.5428
 4669TIP3   OH235497   4.495   4.028  13.632 -0.3752 -0.2354 -0.4380
 4669TIP3    H135498   4.400   4.017  13.636 -0.4593 -0.2245 -2.0836
 4669TIP3    H235499   4.508   4.122  13.642 -0.3519 -0.5279  2.5356
 4670TIP3   OH235500   0.179   6.514  15.024 -0.2565 -0.8840  0.0167
 4670TIP3    H135501   0.262   6.502  14.978  0.9103  2.4258  1.0961
 4670TIP3    H235502   0.183   6.452  15.096  0.7590 -1.6187 -0.6515
 4671TIP3   OH235503   3.605   1.289  15.043 -0.3184 -0.0001  0.2572
 4671TIP3    H135504   3.582   1.255  15.129  0.0970 -1.3939 -0.1713
 4671TIP3    H235505   3.698   1.270  15.033 -0.3387  0.2497 -0.4504
 4672TIP3   OH235506   0.326   1.339  13.365 -0.2409 -0.2153 -1.0004
 4672TIP3    H135507   0.379   1.381  13.298 -0.0331 -0.0129 -0.7106
 4672TIP3    H235508   0.327   1.401  13.438 -1.0471 -0.1118 -1.0673
 4673TIP3   OH235509   4.982   7.257  12.305 -0.1175 -0.0326 -0.3063
 4673TIP3    H135510   4.938   7.201  12.369 -1.7004  2.5237  0.9157
 4673TIP3    H235511   5.007   7.335  12.355  1.9753  0.4234 -1.9870
 4674TIP3   OH235512   5.075   5.701  13.804 -0.1122  0.1073  0.4880
 4674TIP3    H135513   5.034   5.619  13.780 -1.1711  0.2431  1.7968
 4674TIP3    H235514   5.160   5.676  13.840 -0.3958 -0.4117  0.7922
 4675TIP3   OH235515   4.633   0.986  12.724 -0.1836  0.0046  0.1024
 4675TIP3    H135516   4.578   1.064  12.736 -1.3668 -1.0493  1.6664
 4675TIP3    H235517   4.655   0.987  12.630  0.2586  2.4873  0.2001
 4676TIP3   OH235518   4.565   0.712  11.545  0.5279 -0.1030 -0.5040
 4676TIP3    H135519   4.527   0.698  11.632  2.9024 -1.5099  0.3669
 4676TIP3    H235520   4.493   0.696  11.485 -1.3009  1.4056  1.1966
 4677TIP3   OH235521   1.808   3.569  13.344  0.0591  0.3922  0.6763
 4677TIP3    H135522   1.877   3.605  13.289 -1.2415  3.4846  1.0016
 4677TIP3    H235523   1.851   3.551  13.427  1.2016 -0.8560 -0.1691
 4678TIP3   OH235524   1.722   3.773  11.288  0.4003 -0.1182 -0.4454
 4678TIP3    H135525   1.748   3.797  11.199 -1.3830  1.1440 -0.6450
 4678TIP3    H235526   1.639   3.727  11.278  0.8749 -1.2258  0.4716
 4679TIP3   OH235527   6.067   2.243  12.704 -0.2568  0.4489 -0.1458
 4679TIP3    H135528   6.137   2.293  12.745 -0.1770  0.0188  0.2354
 4679TIP3    H235529   6.027   2.193  12.775  0.7992 -1.4016 -0.8278
 4680TIP3   OH235530   3.512   1.391  13.526 -0.5744  0.0792 -0.1618
 4680TIP3    H135531   3.435   1.364  13.576  0.7716 -0.9473  1.4114
 4680TIP3    H235532   3.546   1.310  13.487 -0.0329  0.4539 -0.4806
 4681TIP3   OH235533   6.004   3.034  12.312  0.3272 -0.4208  0.5471
 4681TIP3    H135534   5.927   3.077  12.349  0.4736 -0.1602  0.5504
 4681TIP3    H235535   6.077   3.093  12.334  0.4714 -0.4751  0.2108
 4682TIP3   OH235536   6.742   2.930  13.124 -0.6946  0.0951 -0.0321
 4682TIP3    H135537   6.706   3.008  13.163 -0.3066 -0.3787  1.2940
 4682TIP3    H235538   6.788   2.961  13.046 -1.1872  1.0823  0.0684
 4683TIP3   OH235539   1.980   2.369  13.318 -0.6040 -0.3485  0.6390
 4683TIP3    H135540   2.052   2.346  13.259 -0.9674  0.2787 -0.0541
 4683TIP3    H235541   2.016   2.357  13.406  1.4339  3.2607  0.3640
 4684TIP3   OH235542   4.131   4.686  12.584  0.5567  0.1707 -0.3544
 4684TIP3    H135543   4.043   4.710  12.556  0.4051  1.1340  0.8897
 4684TIP3    H235544   4.123   4.596  12.614 -0.3344  0.7313  1.1279
 4685TIP3   OH235545   4.401   4.217  13.137  0.2932 -0.0394  0.3994
 4685TIP3    H135546   4.435   4.307  13.136  0.2721 -0.0314  0.4022
 4685TIP3    H235547   4.455   4.171  13.073 -0.7571  0.3737 -0.8223
 4686TIP3   OH235548   3.775   1.864  12.481 -0.5382 -0.5274  0.1601
 4686TIP3    H135549   3.838   1.802  12.445 -3.2640 -3.0980 -0.3885
 4686TIP3    H235550   3.758   1.925  12.410  1.9655  0.7590  0.6105
 4687TIP3   OH235551   0.737   4.430  14.064  0.2575 -0.0358 -0.6767
 4687TIP3    H135552   0.648   4.464  14.074  0.6572  1.0220 -0.6295
 4687TIP3    H235553   0.767   4.415  14.154  0.4009  0.3318 -0.6635
 4688TIP3   OH235554   1.024   4.155  11.628  0.4265  0.3146  0.0362
 4688TIP3    H135555   0.969   4.165  11.705  0.5478  0.3384  0.1195
 4688TIP3    H235556   1.114   4.163  11.661  0.4711  0.5877 -0.1454
 4689TIP3   OH235557   6.318   3.046  11.558 -0.0419  0.4378  0.3062
 4689TIP3    H135558   6.343   3.137  11.572  1.1894  0.6600 -2.7950
 4689TIP3    H235559   6.240   3.034  11.611 -3.5071  4.9495 -3.3420
 4690TIP3   OH235560   6.594   3.886  13.116  0.3775 -0.6063 -0.4045
 4690TIP3    H135561   6.597   3.979  13.138 -0.9615 -0.8973  1.0648
 4690TIP3    H235562   6.686   3.861  13.106  0.9758  0.0843  2.6907
 4691TIP3   OH235563   6.292   1.298  11.414  0.0464 -0.0263  0.2034
 4691TIP3    H135564   6.302   1.203  11.411  1.3133  0.1372 -1.4703
 4691TIP3    H235565   6.305   1.326  11.324 -0.9906  1.6843  0.5748
 4692TIP3   OH235566   0.153   2.016  14.814 -0.5078  0.0916 -0.4228
 4692TIP3    H135567   0.096   2.070  14.759  2.2315  2.1325 -1.3721
 4692TIP3    H235568   0.202   1.962  14.751  2.0143  1.8082  0.0099
 4693TIP3   OH235569   4.112   0.569  10.584 -0.6090  0.2258  0.2929
 4693TIP3    H135570   4.198   0.529  10.573 -0.2214  1.0651  0.2269
 4693TIP3    H235571   4.052   0.509  10.539  0.2382  0.7627 -1.6299
 4694TIP3   OH235572   5.530   6.681  13.880  0.1830 -0.0704 -0.1551
 4694TIP3    H135573   5.549   6.587  13.874  0.4670 -0.0322  0.1089
 4694TIP3    H235574   5.448   6.686  13.928 -0.9903 -0.2776 -2.0679
 4695TIP3   OH235575   0.843   1.593  10.433 -0.0788  0.4989  0.6530
 4695TIP3    H135576   0.782   1.581  10.506  0.9596  1.7374  1.7591
 4695TIP3    H235577   0.794   1.643  10.368  0.0573  2.3727  1.9657
 4696TIP3   OH235578   4.114   1.576  13.044 -0.5924  0.0236 -0.5107
 4696TIP3    H135579   4.193   1.526  13.026 -0.9396 -0.9776  0.6638
 4696TIP3    H235580   4.143   1.648  13.100 -0.5410 -0.4561  0.0838
 4697TIP3   OH235581   7.150   1.213  14.554 -0.1952  0.1197 -0.0573
 4697TIP3    H135582   7.199   1.180  14.479 -1.5360 -1.5434 -0.2288
 4697TIP3    H235583   7.126   1.135  14.604 -1.6517  0.9960  0.6398
 4698TIP3   OH235584   4.435   1.721  12.738 -0.0818 -0.0637 -0.1619
 4698TIP3    H135585   4.501   1.653  12.754 -0.7473 -0.6462  0.1084
 4698TIP3    H235586   4.484   1.803  12.742  0.7446 -0.5281 -0.5778
 4699TIP3   OH235587   7.033   2.483  12.231 -0.0222  0.0666 -0.4727
 4699TIP3    H135588   6.993   2.531  12.304 -0.0279 -0.7346  0.0640
 4699TIP3    H235589   7.125   2.510  12.232  0.1696 -0.5869  0.3816
 4700TIP3   OH235590   4.795   1.916  13.363 -0.3668  0.0981  0.2321
 4700TIP3    H135591   4.842   1.872  13.292 -0.1909  0.3596  0.1865
 4700TIP3    H235592   4.704   1.921  13.333  0.0119  1.7090 -0.7072
 4701TIP3   OH235593   6.303   2.735  12.904  0.2020  0.0834 -0.2747
 4701TIP3    H135594   6.356   2.659  12.928 -0.8528 -0.6519 -0.2399
 4701TIP3    H235595   6.251   2.705  12.829  0.7214  1.1787 -1.0968
 4702TIP3   OH235596   5.641   4.180  12.547  0.4909 -0.4895  0.5163
 4702TIP3    H135597   5.564   4.141  12.506  0.0542 -0.5221  1.3433
 4702TIP3    H235598   5.682   4.108  12.596  0.1794 -0.1216  1.3262
 4703TIP3   OH235599   5.082   0.811  12.917  0.2495  0.6022  0.0184
 4703TIP3    H135600   5.031   0.888  12.892 -0.4660  1.3932  3.6424
 4703TIP3    H235601   5.030   0.769  12.985  2.3867 -1.0273  0.6966
 4704TIP3   OH235602   1.976   0.548  14.004  0.0387 -0.1102 -0.1028
 4704TIP3    H135603   1.939   0.467  14.036 -1.7221  0.5146 -0.5047
 4704TIP3    H235604   1.916   0.616  14.034  1.0030  0.9566 -0.5350
 4705TIP3   OH235605   5.867   2.081  12.867 -0.0021  0.4923  0.2137
 4705TIP3    H135606   5.830   2.004  12.824  1.8689  0.4354 -1.3927
 4705TIP3    H235607   5.806   2.151  12.848  1.2042  0.6535 -3.3589
 4706TIP3   OH235608   1.348   0.738  15.107  0.2350 -0.2353  0.0331
 4706TIP3    H135609   1.395   0.663  15.071 -0.6275 -0.2718 -1.0541
 4706TIP3    H235610   1.411   0.780  15.166  0.7475 -1.7502  0.5783
 4707TIP3   OH235611   6.257   2.482  12.515  0.1994 -0.2147 -0.2360
 4707TIP3    H135612   6.314   2.468  12.590  1.6056 -0.2843 -1.2938
 4707TIP3    H235613   6.268   2.403  12.461 -0.2515  0.1472 -0.8687
 4708TIP3   OH235614   6.583   4.453  12.671 -0.0388 -0.2604 -0.2016
 4708TIP3    H135615   6.625   4.462  12.585 -1.3537  0.4059 -0.7999
 4708TIP3    H235616   6.575   4.359  12.684 -0.6981 -0.3703 -1.2731
 4709TIP3   OH235617   0.541   2.865  10.804  0.9866  0.0441 -0.3776
 4709TIP3    H135618   0.520   2.808  10.730  1.7413  1.0300 -1.3875
 4709TIP3    H235619   0.619   2.914  10.774  2.9980 -1.5279  2.1343
 4710TIP3   OH235620   2.242   2.318  13.218  0.4204 -0.3909 -0.5800
 4710TIP3    H135621   2.325   2.322  13.265 -0.4525 -0.4524  0.9795
 4710TIP3    H235622   2.225   2.225  13.207 -0.1252 -0.4067  0.3413
 4711TIP3   OH235623   0.596   0.244  13.085 -0.2508  0.0079  0.1367
 4711TIP3    H135624   0.578   0.150  13.084 -0.8915  0.0975  1.4550
 4711TIP3    H235625   0.684   0.252  13.049  0.5293 -1.2800  1.6383
 4712TIP3   OH235626   1.312   3.210  11.686  0.3290 -0.7402 -0.1735
 4712TIP3    H135627   1.318   3.133  11.629 -0.3974 -1.1184  0.2415
 4712TIP3    H235628   1.229   3.198  11.733  1.4239 -0.9823  1.7401
 4713TIP3   OH235629   7.156   2.788  12.210  0.2057  0.0721  0.3015
 4713TIP3    H135630   7.201   2.704  12.201 -0.8166 -0.4894  0.3907
 4713TIP3    H235631   7.193   2.826  12.289  0.4724 -0.4223  0.4172
 4714TIP3   OH235632   6.651   2.140  12.807  0.0309 -0.0406  0.2765
 4714TIP3    H135633   6.611   2.093  12.734  1.2005  0.5457 -0.7729
 4714TIP3    H235634   6.712   2.201  12.765  0.7387  0.2840  1.7498
 4715TIP3   OH235635   6.465   2.565  12.271 -0.8217 -0.3340  0.1586
 4715TIP3    H135636   6.515   2.518  12.338  0.8456  1.3227  0.1182
 4715TIP3    H235637   6.430   2.496  12.215  2.4494 -1.5355 -0.5223
 4716TIP3   OH235638   7.286   7.096  10.897  0.3506 -0.3219 -0.6116
 4716TIP3    H135639   7.270   7.126  10.807  3.4704 -0.4960 -1.2852
 4716TIP3    H235640   7.321   7.173  10.941 -2.0889  0.0325  0.7661
 4717TIP3   OH235641   5.174   3.707  12.335 -0.1334 -0.5581  0.5600
 4717TIP3    H135642   5.092   3.748  12.307  0.8349  1.0342 -0.0726
 4717TIP3    H235643   5.234   3.781  12.344  1.2797 -1.7319  0.8202
 4718TIP3   OH235644   6.494   2.785  10.405 -0.3163  0.3393  0.2408
 4718TIP3    H135645   6.491   2.764  10.498  1.0507  0.0199  0.2144
 4718TIP3    H235646   6.511   2.879  10.401  0.2155  0.2470  0.3115
 4719TIP3   OH235647   7.265   1.688  10.549 -0.0228  0.3822 -0.1102
 4719TIP3    H135648   7.323   1.645  10.486 -1.0432 -1.1469 -0.0175
 4719TIP3    H235649   7.291   1.652  10.634 -1.2985 -0.5387 -0.0990
 4720TIP3   OH235650   5.841   3.550  12.589  0.4693  0.5626  0.5890
 4720TIP3    H135651   5.766   3.499  12.621  0.5291  0.7522  1.0202
 4720TIP3    H235652   5.876   3.497  12.517 -0.0492  0.4503  0.4170
 4721TIP3   OH235653   5.169   1.002  12.438 -0.0511 -0.7384  0.2074
 4721TIP3    H135654   5.168   0.908  12.421  0.2646 -0.6267 -0.4358
 4721TIP3    H235655   5.259   1.029  12.421  0.2195 -0.5681  1.7746
 4722TIP3   OH235656   5.694   2.279  13.494 -0.7581 -0.1268 -0.2482
 4722TIP3    H135657   5.729   2.202  13.449 -2.1883 -0.7073 -0.3710
 4722TIP3    H235658   5.742   2.352  13.455  0.2947 -0.8989 -0.4449
 4723TIP3   OH235659   6.828   3.204  14.630  0.2794 -0.3014 -0.1457
 4723TIP3    H135660   6.902   3.218  14.689  0.7687  1.7825 -1.2117
 4723TIP3    H235661   6.813   3.289  14.589 -1.1299 -1.2924 -1.7772
 4724TIP3   OH235662   0.693   1.979  10.904  0.3325  0.2609 -0.2385
 4724TIP3    H135663   0.755   2.049  10.927  0.7132 -0.5655  1.3227
 4724TIP3    H235664   0.643   2.015  10.831  0.8248  2.0011  0.2423
 4725TIP3   OH235665   6.613   4.002  12.794 -0.4198  0.2378 -0.3649
 4725TIP3    H135666   6.651   3.914  12.798 -1.3152 -0.0400  2.9964
 4725TIP3    H235667   6.686   4.060  12.816 -0.1543  0.2486 -1.2610
 4726TIP3   OH235668   0.613   4.100  10.744  0.0878  0.3917  0.4350
 4726TIP3    H135669   0.699   4.137  10.728  0.5842 -1.1942 -0.6536
 4726TIP3    H235670   0.611   4.019  10.693 -2.0210  0.3755  0.4718
 4727TIP3   OH235671   0.014   3.375  11.013 -0.0714  0.0313  0.2198
 4727TIP3    H135672   0.096   3.363  10.965  0.2463  0.6086  0.6155
 4727TIP3    H235673  -0.011   3.465  10.995 -0.1660  0.1246  0.8037
 4728TIP3   OH235674   0.795   2.647  10.798 -0.2754  0.0432  0.2564
 4728TIP3    H135675   0.700   2.654  10.787 -0.3643 -1.9175 -0.4497
 4728TIP3    H235676   0.831   2.711  10.737 -1.1389  0.8980  0.6351
 4729TIP3   OH235677   2.710   1.302  12.759  0.2114 -0.2388  0.0891
 4729TIP3    H135678   2.714   1.376  12.698  0.1114 -0.2159  0.1095
 4729TIP3    H235679   2.796   1.261  12.753  0.4571  0.2121  0.4898
 4730TIP3   OH235680   5.483   4.449  12.526 -0.1028 -0.2197  0.6251
 4730TIP3    H135681   5.473   4.366  12.573  0.1543 -0.8268 -0.3834
 4730TIP3    H235682   5.393   4.477  12.508 -0.2417 -2.9851 -3.7223
 4731TIP3   OH235683   5.883   5.233  12.785 -0.0714  0.1437  0.4526
 4731TIP3    H135684   5.817   5.192  12.841 -2.4403  2.6529 -0.3808
 4731TIP3    H235685   5.907   5.164  12.723  0.1327 -1.6395  2.4616
 4732TIP3   OH235686   7.309   3.980  13.858 -0.0669  0.9805  0.3864
 4732TIP3    H135687   7.292   4.072  13.878 -1.8680  0.4216  1.5473
 4732TIP3    H235688   7.238   3.955  13.798  0.4943  0.3832 -0.0345
 4733TIP3   OH235689   0.971   3.051  11.968  0.2060 -0.4181 -0.1235
 4733TIP3    H135690   1.012   2.971  11.999 -0.9995 -1.0257 -0.0484
 4733TIP3    H235691   0.985   3.050  11.873  1.2537 -0.0899  0.0211
 4734TIP3   OH235692   4.911   3.059  12.868 -0.0614  0.3620 -0.8748
 4734TIP3    H135693   4.866   2.983  12.904 -0.0705 -0.7996 -3.2562
 4734TIP3    H235694   4.869   3.134  12.911 -0.2382 -0.9236  1.2844
 4735TIP3   OH235695   7.300   4.487  12.648  0.0717 -0.5003 -0.4106
 4735TIP3    H135696   7.345   4.434  12.714  0.3913 -0.3637 -0.5152
 4735TIP3    H235697   7.357   4.482  12.570 -0.0476 -0.2549 -0.5165
 4736TIP3   OH235698   1.724   5.749  14.175 -0.5580 -0.6328 -0.2547
 4736TIP3    H135699   1.656   5.802  14.217 -1.1280 -2.2076  0.8836
 4736TIP3    H235700   1.797   5.809  14.162 -0.8452  0.2275  1.8449
 4737TIP3   OH235701   6.512   1.089  11.698  0.4083 -0.3446 -0.1925
 4737TIP3    H135702   6.430   1.041  11.684  1.4469 -2.2922  0.3180
 4737TIP3    H235703   6.517   1.102  11.792 -0.5714  2.0873 -0.4329
 4738TIP3   OH235704   5.629   3.210  12.962 -0.5472  0.3233  0.2160
 4738TIP3    H135705   5.643   3.198  13.056 -3.1918  1.1264  0.7513
 4738TIP3    H235706   5.646   3.124  12.924  3.2330  0.6268  1.0251
 4739TIP3   OH235707   0.453   1.250  15.537  0.4467  0.1851  0.2753
 4739TIP3    H135708   0.380   1.192  15.514  0.3326  0.5824 -0.3657
 4739TIP3    H235709   0.523   1.191  15.564  0.6356 -0.2988 -1.2393
 4740TIP3   OH235710   5.788   1.950  11.052 -0.2926  0.2019  0.0638
 4740TIP3    H135711   5.872   1.996  11.058 -1.1709  1.9698 -0.8249
 4740TIP3    H235712   5.744   1.990  10.978 -0.9801 -2.3208 -0.9448
 4741TIP3   OH235713   6.241   0.244  11.429  0.0898  0.2894 -0.0501
 4741TIP3    H135714   6.257   0.241  11.334  0.9024 -0.9305  0.1175
 4741TIP3    H235715   6.268   0.332  11.454 -0.1540  0.6322 -0.9623
 4742TIP3   OH235716   7.284   3.824  12.020 -0.0678  0.5558 -0.1619
 4742TIP3    H135717   7.216   3.890  12.018  0.8143  1.4927  0.3355
 4742TIP3    H235718   7.345   3.854  12.088  0.6505 -0.4457 -0.3483
 4743TIP3   OH235719   0.612   0.850  10.649 -0.2300 -0.3972  0.2335
 4743TIP3    H135720   0.674   0.913  10.613 -1.3037  0.2100 -0.6031
 4743TIP3    H235721   0.587   0.887  10.734 -2.2612  1.3046 -1.0535
 4744TIP3   OH235722   3.739   0.784  13.405 -0.1370 -0.0958  0.0808
 4744TIP3    H135723   3.690   0.705  13.384  0.8801 -1.0283  1.2053
 4744TIP3    H235724   3.812   0.784  13.343 -1.1220  0.9137 -1.1106
 4745TIP3   OH235725   4.480   1.423  12.505  0.1396  0.2766 -0.5300
 4745TIP3    H135726   4.529   1.489  12.555 -2.5258  0.9507  1.2575
 4745TIP3    H235727   4.468   1.350  12.566 -1.5342  0.3359 -0.7843
 4746TIP3   OH235728   6.788   0.573  10.649  0.8211  0.2914  0.1729
 4746TIP3    H135729   6.861   0.539  10.702 -0.9002  0.0794  2.4780
 4746TIP3    H235730   6.760   0.498  10.596  1.0780 -0.1453  0.6441
 4747TIP3   OH235731   6.661   0.726  14.137  0.0488  0.6363 -0.3159
 4747TIP3    H135732   6.728   0.787  14.105  1.7372 -0.1092  1.6807
 4747TIP3    H235733   6.699   0.689  14.217 -3.0845  0.7714  1.2928
 4748TIP3   OH235734   5.559   0.927  11.422  0.0290  0.3888  0.1299
 4748TIP3    H135735   5.623   0.983  11.467  0.6116 -0.4904  0.3990
 4748TIP3    H235736   5.590   0.926  11.331 -0.8945  1.7982 -0.2130
 4749TIP3   OH235737   4.639   3.492  14.006 -0.2275  0.0325 -0.1536
 4749TIP3    H135738   4.663   3.569  14.056 -0.3141  0.2866 -0.5003
 4749TIP3    H235739   4.567   3.521  13.950  0.5401  0.0288 -1.1663
 4750TIP3   OH235740   1.771   6.298  11.405  0.1575 -0.2171  0.3134
 4750TIP3    H135741   1.754   6.287  11.311  0.0698 -0.4151  0.3522
 4750TIP3    H235742   1.864   6.279  11.415  0.6662  1.9630 -0.0656
 4751TIP3   OH235743   6.003   5.979  12.467  0.3777  0.2265  0.2309
 4751TIP3    H135744   5.942   5.917  12.426  0.3401  0.9340 -0.8040
 4751TIP3    H235745   5.949   6.055  12.487  0.2347 -0.3963  2.3102
 4752TIP3   OH235746   6.685   3.053  11.539 -0.5410  0.1486 -0.5643
 4752TIP3    H135747   6.660   3.007  11.619  1.1997 -0.2533 -0.2359
 4752TIP3    H235748   6.706   2.984  11.477  1.2889  0.4935 -0.3313
 4753TIP3   OH235749   1.341   0.812  12.814 -0.3304 -0.0876 -0.0069
 4753TIP3    H135750   1.293   0.825  12.896 -0.0614 -1.4899  0.3848
 4753TIP3    H235751   1.359   0.718  12.812  1.6509  0.2981 -0.5647
 4754TIP3   OH235752   0.775   0.071  11.141  0.1434  0.5590  0.2960
 4754TIP3    H135753   0.756   0.140  11.077 -1.8678  1.0948  1.4371
 4754TIP3    H235754   0.709   0.003  11.122  1.3725 -0.5509 -0.0609
 4755TIP3   OH235755   6.327   1.350  13.004 -1.0410  0.3102 -0.2218
 4755TIP3    H135756   6.409   1.304  13.023 -0.2185  2.2326  0.9672
 4755TIP3    H235757   6.328   1.363  12.909 -0.8483 -1.2644 -0.4559
 4756TIP3   OH235758   6.575   1.990  11.565 -0.3288  0.3434  0.5995
 4756TIP3    H135759   6.583   1.904  11.522  0.6341 -0.4415  2.3020
 4756TIP3    H235760   6.555   2.050  11.494 -3.6672 -1.6834 -0.3048
 4757TIP3   OH235761   0.327   2.947  13.112  0.2503  0.9245 -0.1824
 4757TIP3    H135762   0.400   2.889  13.134  0.1688  0.9383  0.1250
 4757TIP3    H235763   0.262   2.889  13.072  0.9925  1.1426 -1.7293
 4758TIP3   OH235764   6.681   3.833  11.421 -0.5757  0.4024 -0.2057
 4758TIP3    H135765   6.723   3.820  11.506  2.3369 -3.0034 -2.0047
 4758TIP3    H235766   6.751   3.862  11.364 -2.2056  1.3701 -1.7541
 4759TIP3   OH235767   0.612   4.661  13.142  0.4279  0.2386  0.0373
 4759TIP3    H135768   0.612   4.654  13.238  3.0225 -0.7663  0.0064
 4759TIP3    H235769   0.603   4.755  13.126  1.8913  0.6332  1.3333
 4760TIP3   OH235770   5.083   1.654  13.648  0.1707 -0.4917 -0.4570
 4760TIP3    H135771   4.989   1.639  13.634  0.2259 -1.0756 -0.2173
 4760TIP3    H235772   5.125   1.597  13.584  0.3472  1.0040 -1.7090
 4761TIP3   OH235773   6.901   3.621  11.962 -0.1650 -0.3344  0.1105
 4761TIP3    H135774   6.858   3.566  11.897  0.3682  0.9806 -1.3728
 4761TIP3    H235775   6.830   3.672  12.001 -0.1500  0.7844 -1.3100
 4762TIP3   OH235776   6.025   7.312  12.032 -0.0466  0.0454  0.7370
 4762TIP3    H135777   6.094   7.249  12.013  0.1698  0.1554  1.1480
 4762TIP3    H235778   6.057   7.360  12.108  0.6141  1.8929 -0.6752
 4763TIP3   OH235779   6.202   1.666  12.249  0.1539 -0.2136 -0.2854
 4763TIP3    H135780   6.139   1.594  12.258  1.5053 -1.5507 -1.2814
 4763TIP3    H235781   6.156   1.732  12.198 -0.4754 -1.1642 -0.9731
 4764TIP3   OH235782   5.401   2.828  10.973 -0.7463 -0.0857  0.3596
 4764TIP3    H135783   5.400   2.829  10.877  2.5874  0.1180  0.2724
 4764TIP3    H235784   5.371   2.740  10.996 -0.2489 -0.6196 -0.9353
 4765TIP3   OH235785   1.203   2.131  11.096  0.2893  0.6294  0.1627
 4765TIP3    H135786   1.148   2.052  11.099  0.8419  0.2334 -0.1907
 4765TIP3    H235787   1.241   2.136  11.184  0.7898  0.1205 -0.0226
 4766TIP3   OH235788   1.339   2.185  10.860 -0.4970 -0.3331 -0.1875
 4766TIP3    H135789   1.301   2.180  10.947  1.5528  1.3195  0.8763
 4766TIP3    H235790   1.392   2.106  10.851  1.0896  0.5473  1.0289
 4767TIP3   OH235791   5.275   1.771  13.795 -0.0128 -0.0690 -0.6441
 4767TIP3    H135792   5.206   1.720  13.753  0.6174 -0.4674 -1.2000
 4767TIP3    H235793   5.231   1.850  13.825 -0.4785  0.2289 -2.0743
 4768TIP3   OH235794   6.383   5.158  11.806 -0.1408 -0.0220  0.6208
 4768TIP3    H135795   6.361   5.251  11.813  0.4960  0.1497  0.3494
 4768TIP3    H235796   6.383   5.126  11.896 -0.9909  0.0883  0.6727
 4769TIP3   OH235797   0.199   0.606  12.367  0.3242  0.1598 -0.4173
 4769TIP3    H135798   0.287   0.639  12.348  1.0459 -1.1517  0.6083
 4769TIP3    H235799   0.141   0.662  12.314  1.8723  0.0358 -2.3027
 4770TIP3   OH235800   6.838   2.971  13.487 -0.2223  0.0162  0.5536
 4770TIP3    H135801   6.881   2.956  13.402 -1.7807  0.2016 -0.2961
 4770TIP3    H235802   6.763   3.027  13.465 -1.4119 -1.0505  1.8655
 4771TIP3   OH235803   0.027   1.441  13.838 -0.6868 -0.2595  0.0042
 4771TIP3    H135804  -0.068   1.450  13.843 -0.5047  1.5051  0.9050
 4771TIP3    H235805   0.056   1.520  13.791  0.3499 -0.6036  0.0529
 4772TIP3   OH235806   6.707   2.357  15.436  0.0737  0.3102 -0.1298
 4772TIP3    H135807   6.738   2.272  15.404  2.2834  0.2338  2.0513
 4772TIP3    H235808   6.614   2.343  15.455  0.2115 -1.3761 -0.6127
 4773TIP3   OH235809   6.706   2.718  15.081 -0.2752 -0.6152  0.3823
 4773TIP3    H135810   6.643   2.655  15.045 -1.3077 -0.4842  1.9323
 4773TIP3    H235811   6.652   2.793  15.108  1.0526  1.5558 -2.6707
 4774TIP3   OH235812   7.321   4.491  13.441 -0.3309 -0.3142 -0.1910
 4774TIP3    H135813   7.318   4.431  13.366 -0.2988  2.5341 -2.5492
 4774TIP3    H235814   7.236   4.533  13.441  0.3775  1.1362  0.1659
 4775TIP3   OH235815   6.084   2.596  12.295  0.4070  0.3965  0.5190
 4775TIP3    H135816   6.143   2.576  12.368  0.9514  0.0933  0.0064
 4775TIP3    H235817   6.128   2.666  12.247  1.5041 -1.3633 -1.1670
 4776TIP3   OH235818   5.498   3.536  11.012  0.2029 -0.4555 -0.0898
 4776TIP3    H135819   5.430   3.471  10.995 -0.1087 -0.2937  0.5453
 4776TIP3    H235820   5.527   3.563  10.925 -0.8686 -0.1752 -0.3676
 4777TIP3   OH235821   7.234   2.663  13.777 -0.2247  0.0505 -0.5251
 4777TIP3    H135822   7.309   2.687  13.832  0.1694 -2.5997  0.2099
 4777TIP3    H235823   7.266   2.672  13.687  1.3940 -2.0745 -0.2252
 4778TIP3   OH235824   4.181   2.301  12.362 -0.2720 -0.3561  0.4021
 4778TIP3    H135825   4.133   2.220  12.343  0.1550 -0.7446  0.9582
 4778TIP3    H235826   4.144   2.365  12.302  0.4674 -1.3593 -1.1655
 4779TIP3   OH235827   4.780   2.542  14.277 -0.1663 -0.0235  0.4412
 4779TIP3    H135828   4.873   2.537  14.299 -0.3037  2.0365  1.5858
 4779TIP3    H235829   4.765   2.634  14.257 -2.1382 -0.2044  0.9846
 4780TIP3   OH235830   5.877   2.707  14.120 -0.1588  0.4193  0.1967
 4780TIP3    H135831   5.926   2.789  14.125  0.4946  0.0786 -0.4779
 4780TIP3    H235832   5.805   2.726  14.060 -0.8128  0.8934  1.1163
 4781TIP3   OH235833   6.221   3.342  10.231  0.2224  0.1946  0.6973
 4781TIP3    H135834   6.165   3.410  10.192  0.0156  0.6574  1.7910
 4781TIP3    H235835   6.272   3.309  10.157 -0.2161  1.0138  0.0093
 4782TIP3   OH235836   6.510   4.333  12.942  0.0606 -0.2295 -0.9227
 4782TIP3    H135837   6.588   4.388  12.946  0.5310 -0.9404  0.0477
 4782TIP3    H235838   6.441   4.386  12.983 -0.4560  1.1617 -3.5442
 4783TIP3   OH235839   0.037   2.698  12.759 -0.0887  0.3750  0.0648
 4783TIP3    H135840   0.072   2.756  12.691 -1.9262  2.0565  0.5218
 4783TIP3    H235841   0.003   2.622  12.711  0.2677  0.7108 -0.7250
 4784TIP3   OH235842   4.298   1.724  15.659  0.4646 -0.0812 -0.1306
 4784TIP3    H135843   4.351   1.645  15.651 -0.4891 -0.7673  0.3207
 4784TIP3    H235844   4.298   1.761  15.570 -0.9303 -1.7856 -0.8576
 4785TIP3   OH235845   6.838   4.355  10.184 -0.3271 -0.3063  0.2063
 4785TIP3    H135846   6.837   4.324  10.275 -0.3054 -0.5537  0.1220
 4785TIP3    H235847   6.910   4.419  10.181  0.4326 -1.1600  0.0834
 4786TIP3   OH235848   6.255   2.297  14.311  0.1253 -0.4768 -0.0471
 4786TIP3    H135849   6.266   2.291  14.216  1.2832  0.5920  0.0052
 4786TIP3    H235850   6.293   2.382  14.334 -0.3452 -0.6319  1.3476
 4787TIP3   OH235851   5.782   0.923  12.103 -0.7113  0.4766  0.0548
 4787TIP3    H135852   5.820   0.895  12.020  2.3087  2.9836  0.4937
 4787TIP3    H235853   5.830   0.873  12.169 -0.8601  0.8362  0.4370
 4788TIP3   OH235854   3.943   3.330  13.605  0.5264  0.3679 -0.2665
 4788TIP3    H135855   4.030   3.369  13.594  0.5654  0.7581  1.3177
 4788TIP3    H235856   3.936   3.315  13.699 -1.6037  1.4548 -0.2302
 4789TIP3   OH235857   3.650   2.858  12.778 -0.1912  0.1615  0.1518
 4789TIP3    H135858   3.717   2.791  12.767  0.0065  0.4123 -0.1783
 4789TIP3    H235859   3.572   2.821  12.736  0.3340  0.7621 -1.3712
 4790TIP3   OH235860   7.104   1.202  13.858  0.1600 -0.4362 -0.1148
 4790TIP3    H135861   7.049   1.232  13.931  0.2339  1.9652 -0.9897
 4790TIP3    H235862   7.193   1.215  13.890  0.2569  3.8795 -1.7553
 4791TIP3   OH235863   0.222   1.096  11.735 -0.0203  0.2226  0.2102
 4791TIP3    H135864   0.280   1.080  11.809 -0.5008  2.3900  1.0974
 4791TIP3    H235865   0.275   1.075  11.658  0.5240 -1.9244  1.1412
 4792TIP3   OH235866   6.141   3.288  12.069 -0.0701 -0.4155  0.4077
 4792TIP3    H135867   6.175   3.273  12.158  2.2931 -0.4290 -0.4588
 4792TIP3    H235868   6.102   3.204  12.045 -1.5408 -0.1463  1.7484
 4793TIP3   OH235869   6.817   5.012  12.514  0.3892 -0.0987  0.2671
 4793TIP3    H135870   6.871   5.064  12.573  0.4811  1.8251 -1.4579
 4793TIP3    H235871   6.763   5.076  12.468 -0.9879 -1.7103 -0.4211
 4794TIP3   OH235872   6.472   1.923  14.258 -0.1784  0.8627 -0.3155
 4794TIP3    H135873   6.486   1.932  14.164 -0.3458  2.3264 -0.2165
 4794TIP3    H235874   6.518   1.843  14.282  0.1710  0.6785 -1.5807
 4795TIP3   OH235875   6.157   4.305  10.536  0.0415  0.2107 -0.5431
 4795TIP3    H135876   6.232   4.324  10.480  0.0747  0.2617 -0.4804
 4795TIP3    H235877   6.085   4.289  10.476  0.3487 -0.8848 -0.6167
 4796TIP3   OH235878   0.084   2.318  10.677 -0.3647  0.4410 -0.2573
 4796TIP3    H135879   0.067   2.404  10.716 -1.4290  0.0025  0.2545
 4796TIP3    H235880   0.069   2.256  10.748  1.5245 -0.1027 -0.3229
 4797TIP3   OH235881   6.612   1.467  11.808 -0.5292  0.0976  0.2236
 4797TIP3    H135882   6.579   1.429  11.726 -1.7163  0.4988  0.5020
 4797TIP3    H235883   6.699   1.500  11.786 -0.5905 -0.3576 -0.7166
 4798TIP3   OH235884   6.989   3.013  12.638 -0.1481  0.3153  0.3961
 4798TIP3    H135885   7.054   2.943  12.631 -1.1592 -0.5484 -0.2760
 4798TIP3    H235886   7.020   3.080  12.577  1.3704  0.9203  1.7758
 4799TIP3   OH235887   0.337   1.019  11.470 -0.1675 -0.4312 -0.9889
 4799TIP3    H135888   0.316   0.948  11.410 -0.1282  0.2225 -1.7970
 4799TIP3    H235889   0.426   1.045  11.446 -0.3154  0.1220 -0.9603
 4800TIP3   OH235890   1.092   4.524  12.397 -0.0307 -0.0429  0.1807
 4800TIP3    H135891   1.021   4.553  12.453  0.3614  0.0468  0.6379
 4800TIP3    H235892   1.088   4.581  12.320  0.9402  1.4600  1.2106
 4801TIP3   OH235893   7.079   2.401  10.589 -0.4108  0.3829 -0.7590
 4801TIP3    H135894   7.136   2.340  10.542  0.5749  1.0519 -0.4397
 4801TIP3    H235895   7.120   2.487  10.576  0.5461  0.4369  2.3005
 4802TIP3   OH235896   0.675   2.193  11.881  0.4922 -0.0399 -0.6323
 4802TIP3    H135897   0.582   2.196  11.902  0.4722  0.4150 -0.7747
 4802TIP3    H235898   0.713   2.136  11.948  0.5907  2.1402  1.2167
 4803TIP3   OH235899   5.844   2.744  12.264 -0.3111  0.1368 -0.7233
 4803TIP3    H135900   5.902   2.808  12.306 -0.1416  0.5711 -1.6213
 4803TIP3    H235901   5.895   2.663  12.263 -0.3302  0.1101 -0.0627
 4804TIP3   OH235902   6.859   1.657  12.039 -0.2056  0.1766  0.0093
 4804TIP3    H135903   6.898   1.607  11.968 -0.8417 -2.1030  1.2017
 4804TIP3    H235904   6.932   1.675  12.098  0.6521  3.5531 -1.9876
 4805TIP3   OH235905   6.167   3.611  10.434  0.1268 -0.0541  0.0152
 4805TIP3    H135906   6.134   3.690  10.478 -0.7017 -0.8925  0.9315
 4805TIP3    H235907   6.133   3.617  10.345 -0.5306  0.2642  0.2873
 4806TIP3   OH235908   5.498   1.621  13.793 -0.0300  0.3580 -0.3397
 4806TIP3    H135909   5.555   1.698  13.792 -0.7231  0.8694 -0.1825
 4806TIP3    H235910   5.409   1.656  13.787 -0.3752 -0.3942  0.3120
 4807TIP3   OH235911   6.445   2.183  10.630  0.4752  0.2936  0.3673
 4807TIP3    H135912   6.534   2.211  10.607  0.0645  2.1038  0.8635
 4807TIP3    H235913   6.431   2.105  10.577  1.3415  1.5893 -1.8872
 4808TIP3   OH235914   6.715   1.123  13.697 -0.2177 -0.6832 -0.3901
 4808TIP3    H135915   6.776   1.177  13.645  0.9139  1.3364  2.8833
 4808TIP3    H235916   6.767   1.046  13.721 -0.4362 -1.1583 -1.4219
 4809TIP3   OH235917   7.256   4.083  12.156  0.0655 -0.3115 -0.0819
 4809TIP3    H135918   7.250   4.171  12.193  0.0423  0.1142 -1.0883
 4809TIP3    H235919   7.233   4.094  12.063  0.2075 -1.3491 -0.2494
 4810TIP3   OH235920   4.754   4.537  10.221 -0.4903  0.0077 -0.1559
 4810TIP3    H135921   4.671   4.514  10.179 -1.4761  0.1286  1.7102
 4810TIP3    H235922   4.733   4.611  10.278  0.4992 -1.0945  1.6856
 4811TIP3   OH235923   5.880   3.958  10.748  0.0135 -0.1282  0.5414
 4811TIP3    H135924   5.862   3.897  10.819 -2.4439 -0.5877 -0.4160
 4811TIP3    H235925   5.861   4.044  10.785 -1.1468 -0.3571  0.4968
 4812TIP3   OH235926   5.486   0.371  14.804  0.4718  0.2715 -0.2552
 4812TIP3    H135927   5.486   0.423  14.884 -1.2148 -0.3388  0.1789
 4812TIP3    H235928   5.514   0.431  14.736  0.1263  1.3089  0.5043
 4813TIP3   OH235929   6.663   2.584  10.875  0.1125 -0.8055  0.5123
 4813TIP3    H135930   6.698   2.560  10.961 -0.0754 -1.3943  0.4281
 4813TIP3    H235931   6.727   2.550  10.812 -0.1243 -1.0345  0.3922
 4814TIP3   OH235932   0.212   1.870  13.033  0.2321  0.1694 -0.8354
 4814TIP3    H135933   0.124   1.889  13.066  0.7810  0.4412  0.5046
 4814TIP3    H235934   0.217   1.774  13.033 -0.9610  0.0507 -3.3961
 4815TIP3   OH235935   4.898   1.738   0.055  0.3093  0.3710  0.3534
 4815TIP3    H135936   4.905   1.670  -0.011 -0.2861  0.5513  0.0930
 4815TIP3    H235937   4.828   1.708   0.113 -0.5201  1.1262 -0.2285
 4816TIP3   OH235938   5.453   1.682  11.036 -0.1463  0.1845  0.0565
 4816TIP3    H135939   5.394   1.681  11.111  0.0934  0.0192  0.2447
 4816TIP3    H235940   5.399   1.710  10.962 -0.6556 -0.7783  0.0573
 4817TIP3   OH235941   7.229   2.229  12.121  0.0557  0.6768  0.5658
 4817TIP3    H135942   7.189   2.149  12.156 -1.3237  1.6888  1.3793
 4817TIP3    H235943   7.156   2.276  12.079  0.8967  1.3894 -0.1267
 4818TIP3   OH235944   0.683   1.193   9.958  0.4106  0.1942 -0.2788
 4818TIP3    H135945   0.602   1.157   9.993  2.1268  0.6570  4.4593
 4818TIP3    H235946   0.751   1.129   9.981  1.9368  1.4995 -0.9755
 4819TIP3   OH235947   6.221   1.686  13.367  0.4942 -0.0735 -0.0637
 4819TIP3    H135948   6.223   1.781  13.372  4.3555 -0.1797  3.7032
 4819TIP3    H235949   6.235   1.666  13.275 -0.3811  2.9698 -0.9152
 4820TIP3   OH235950   4.830   2.439  12.614  0.4985 -0.1127 -0.5652
 4820TIP3    H135951   4.752   2.383  12.612 -0.0734  0.6494 -0.3395
 4820TIP3    H235952   4.847   2.452  12.707  1.6314 -1.2568 -0.6057
 4821TIP3   OH235953   7.072   1.670  13.543  0.2408 -0.4163  0.2291
 4821TIP3    H135954   7.034   1.751  13.574  1.1252  0.1046 -0.0180
 4821TIP3    H235955   6.999   1.608  13.539 -0.6923  0.7584 -0.9241
 4822TIP3   OH235956   5.438   2.594  13.846 -0.2668 -0.1764 -0.7070
 4822TIP3    H135957   5.344   2.612  13.844 -1.0255 -3.5558  0.6240
 4822TIP3    H235958   5.455   2.567  13.936  1.6583 -1.1891 -1.3480
 4823TIP3   OH235959   0.871   3.897  12.618  0.1975  0.0103 -0.4059
 4823TIP3    H135960   0.873   3.815  12.569 -0.4247 -1.5821  2.1158
 4823TIP3    H235961   0.961   3.927  12.620  0.1847  0.2698 -2.7506
 4824TIP3   OH235962   2.161   2.686  14.168 -0.1022 -0.0117 -0.2799
 4824TIP3    H135963   2.120   2.748  14.229  0.7535  0.8195 -0.5377
 4824TIP3    H235964   2.117   2.701  14.085 -0.5065 -0.3719 -0.1328
 4825TIP3   OH235965   1.294   3.772  12.379  0.0567  0.4603  0.7030
 4825TIP3    H135966   1.260   3.839  12.438  1.9116 -1.0291  3.5928
 4825TIP3    H235967   1.265   3.689  12.418  0.3619 -0.5383 -1.1351
 4826TIP3   OH235968   7.194   1.353  10.952  0.0098  0.7965  0.2994
 4826TIP3    H135969   7.171   1.269  10.912 -0.2918  0.5552  0.9527
 4826TIP3    H235970   7.287   1.345  10.973 -0.3452  0.0368  1.7054
 4827TIP3   OH235971   6.534   1.889  13.986 -0.3664  0.5971  0.2159
 4827TIP3    H135972   6.470   1.851  13.927  0.3644 -0.9327  0.3961
 4827TIP3    H235973   6.618   1.851  13.960  0.0540  0.3915  1.8146
 4828TIP3   OH235974   0.161   0.434  13.326 -0.0283  0.6565  0.0538
 4828TIP3    H135975   0.169   0.456  13.233  0.9529  1.4866  0.3190
 4828TIP3    H235976   0.222   0.495  13.369 -2.5473  2.1969  1.5197
 4829TIP3   OH235977   4.548   2.079   0.450 -0.5472 -0.3426  0.1627
 4829TIP3    H135978   4.557   2.067   0.356 -1.1280 -0.0756  0.0717
 4829TIP3    H235979   4.632   2.051   0.486 -0.1125  0.1298 -0.4864
 4830TIP3   OH235980   4.842   0.549  14.708 -0.6410  0.3900 -0.9955
 4830TIP3    H135981   4.868   0.575  14.796  1.7324 -0.0831 -1.5051
 4830TIP3    H235982   4.747   0.555  14.707 -0.5605  2.3383  0.9838
 4831TIP3   OH235983   4.803   2.561  12.873 -0.6214  0.2178 -0.2049
 4831TIP3    H135984   4.866   2.589  12.939  0.5487  1.3507 -1.7720
 4831TIP3    H235985   4.763   2.482  12.910  3.1006 -1.6961 -0.0107
 4832TIP3   OH235986   7.225   1.570  14.143 -0.5994 -0.1094  0.1941
 4832TIP3    H135987   7.289   1.499  14.151 -1.4226 -0.8277  0.5028
 4832TIP3    H235988   7.174   1.548  14.065 -1.1187 -0.0783  0.5201
 4833TIP3   OH235989   7.158   4.275  12.963  0.2951  0.1599 -0.1108
 4833TIP3    H135990   7.074   4.322  12.957  0.6710  0.8701  0.0502
 4833TIP3    H235991   7.175   4.245  12.874 -0.5726 -0.7742  0.0299
 4834TIP3   OH235992   4.196   2.060  12.845 -0.0626  0.2731 -0.3364
 4834TIP3    H135993   4.286   2.084  12.870 -0.7266  0.1528  2.3932
 4834TIP3    H235994   4.202   2.034  12.753  2.9366 -0.9605  0.1462
 4835TIP3   OH235995   5.621   3.346  12.394  1.1796  0.1435  0.7735
 4835TIP3    H135996   5.580   3.362  12.479  0.9117  1.2037  0.4407
 4835TIP3    H235997   5.602   3.423  12.342  0.7922 -0.7801 -0.4858
 4836TIP3   OH235998   5.962   4.750  12.711 -0.8468  0.1117 -0.0714
 4836TIP3    H135999   6.048   4.764  12.672 -1.1271  0.5014 -0.5396
 4836TIP3    H236000   5.901   4.753  12.637 -1.3248  0.3993  0.3377
 4837TIP3   OH236001   2.176   2.281  12.021 -0.1474  0.3101 -0.2280
 4837TIP3    H136002   2.194   2.249  12.109 -0.7656  0.7869  0.0749
 4837TIP3    H236003   2.165   2.376  12.031  0.7544  0.5008 -0.9759
 4838TIP3   OH236004   5.657   0.327  10.921  0.4795  0.1896  0.1341
 4838TIP3    H136005   5.587   0.388  10.944  0.6396  0.3271  0.2489
 4838TIP3    H236006   5.659   0.327  10.826 -0.7080 -0.9615  0.0890
 4839TIP3   OH236007   7.287   1.113  11.689 -1.0313  0.7216  0.1225
 4839TIP3    H136008   7.377   1.145  11.698 -1.4163  2.0704 -0.6792
 4839TIP3    H236009   7.297   1.028  11.647 -0.0901  0.5356  0.6958
 4840TIP3   OH236010   0.460   1.210  11.292 -0.0103 -0.2753 -0.4933
 4840TIP3    H136011   0.394   1.176  11.231 -1.4471  1.5136 -0.0034
 4840TIP3    H236012   0.533   1.236  11.236 -0.7644  0.0729 -1.3388
 4841TIP3   OH236013   6.187   1.404  12.425  0.2880  0.3977 -0.1117
 4841TIP3    H136014   6.095   1.429  12.437  0.2873  0.7955 -0.9012
 4841TIP3    H236015   6.204   1.341  12.495 -1.0495 -0.8618 -0.8766
 4842TIP3   OH236016   7.195   1.691  11.847  0.5950 -0.0566 -0.6577
 4842TIP3    H136017   7.120   1.669  11.901 -0.8176  1.6248 -1.8675
 4842TIP3    H236018   7.263   1.628  11.872 -0.7892 -0.7824  1.3550
 4843TIP3   OH236019   0.437   6.318  10.644 -0.6660  0.1615  0.2379
 4843TIP3    H136020   0.369   6.299  10.708 -1.2291 -0.1609 -0.4530
 4843TIP3    H236021   0.494   6.242  10.646 -0.5070  0.2854  0.5705
 4844TIP3   OH236022   0.025   2.587  11.062 -0.3446  0.0381  0.6321
 4844TIP3    H136023   0.041   2.648  11.133  1.8496 -0.3391  0.5033
 4844TIP3    H236024  -0.037   2.523  11.099  0.6797 -0.0938  2.1601
 4845TIP3   OH236025   6.531   1.748  11.764 -0.1798  0.3737 -0.3174
 4845TIP3    H136026   6.601   1.808  11.792 -1.5828  2.3176 -0.8166
 4845TIP3    H236027   6.565   1.661  11.782  2.3426  1.2780 -0.4763
 4846TIP3   OH236028   6.986   1.232  13.596 -0.3316 -0.2468  0.3015
 4846TIP3    H136029   7.062   1.256  13.543 -0.0005 -1.6069  0.1579
 4846TIP3    H236030   7.023   1.205  13.680 -0.6370 -1.1748  0.1396
 4847TIP3   OH236031   5.087   2.890  12.567  0.4548 -0.6238  0.7318
 4847TIP3    H136032   5.100   2.919  12.657 -0.1130 -1.1166  0.9739
 4847TIP3    H236033   5.170   2.850  12.543  0.5764 -0.5767  1.0644
 4848TIP3   OH236034   6.802   2.301  11.712 -0.4141  0.1164  0.2666
 4848TIP3    H136035   6.706   2.301  11.712 -0.4141  0.0944  1.1858
 4848TIP3    H236036   6.827   2.256  11.792  0.3829 -1.6172 -0.9172
 4849TIP3   OH236037   4.307   4.714  13.163 -0.0590  0.1570 -0.1257
 4849TIP3    H136038   4.250   4.723  13.086  0.7344 -0.1464 -0.7629
 4849TIP3    H236039   4.249   4.726  13.238 -0.6937  1.3238 -0.7854
 4850TIP3   OH236040   6.095   0.914  12.064  0.3323  0.3713 -0.0946
 4850TIP3    H136041   6.117   0.959  12.145 -2.0319 -0.2135  0.8965
 4850TIP3    H236042   6.111   0.822  12.082 -2.3210 -0.0111  0.4855
 4851TIP3   OH236043   0.091   7.302  12.640 -0.3862 -0.0977 -0.3098
 4851TIP3    H136044   0.162   7.354  12.604 -0.8193  1.2636  0.7505
 4851TIP3    H236045   0.054   7.255  12.565  1.4650 -0.6444 -0.9039
 4852TIP3   OH236046   6.984   3.965  10.501 -0.2841 -0.1791  0.4723
 4852TIP3    H136047   7.057   3.918  10.462  0.4314  2.2105 -1.1823
 4852TIP3    H236048   7.003   3.966  10.595 -0.2282 -2.9516  0.5137
 4853TIP3   OH236049   5.113   6.676  12.176  0.1122 -0.4737  0.7188
 4853TIP3    H136050   5.119   6.581  12.172  0.0935 -0.4652  0.5038
 4853TIP3    H236051   5.167   6.707  12.103 -0.7633 -0.3484  0.1226
 4854TIP3   OH236052   0.107   3.068  15.123 -0.0114 -0.0681 -0.1624
 4854TIP3    H136053   0.173   3.017  15.170  0.3363  2.3031  2.0062
 4854TIP3    H236054   0.094   3.020  15.041  1.4644 -2.7405  1.0941
 4855TIP3   OH236055   6.578   3.722  13.708 -0.0680 -0.1156  0.2221
 4855TIP3    H136056   6.652   3.747  13.652 -1.1559  1.9383 -0.3126
 4855TIP3    H236057   6.616   3.717  13.796  0.7358  0.7778 -0.0676
 4856TIP3   OH236058   6.511   2.574  12.665  0.4212  0.2192  0.0947
 4856TIP3    H136059   6.575   2.507  12.687 -0.0989 -0.6110 -0.8602
 4856TIP3    H236060   6.544   2.613  12.584 -0.6634 -0.7633 -0.8492
 4857TIP3   OH236061   0.815   3.134  10.495 -0.8112  0.2587 -0.1399
 4857TIP3    H136062   0.906   3.165  10.494 -0.4877 -0.6741 -1.6426
 4857TIP3    H236063   0.769   3.192  10.436 -0.8464 -0.2450 -0.6133
 4858TIP3   OH236064   6.369   3.018  14.417 -0.4503 -0.9214 -0.5024
 4858TIP3    H136065   6.334   3.106  14.403 -0.2065 -0.6794  0.4114
 4858TIP3    H236066   6.461   3.031  14.439 -1.0528 -1.2065  2.3355
 4859TIP3   OH236067   0.535   2.524  14.217 -0.0614 -0.1749 -0.4126
 4859TIP3    H136068   0.609   2.549  14.272 -1.7333  0.8228  1.4101
 4859TIP3    H236069   0.553   2.566  14.133  0.5846  1.4955  0.5395
 4860TIP3   OH236070   6.505   2.504  13.095  1.0246 -0.4134  0.1351
 4860TIP3    H136071   6.507   2.572  13.163  1.0782 -0.8473  0.5705
 4860TIP3    H236072   6.579   2.524  13.039  1.4958 -0.5624  0.7034
 4861TIP3   OH236073   5.316   4.238  12.447  0.2371  0.5468 -0.1567
 4861TIP3    H136074   5.370   4.311  12.416  2.1347 -0.2240  1.2481
 4861TIP3    H236075   5.241   4.280  12.488  0.7164  1.6810 -0.4215
 4862TIP3   OH236076   2.402   3.633  12.331  0.1305  0.1291  0.4924
 4862TIP3    H136077   2.493   3.664  12.328 -0.6038  2.4115  0.9398
 4862TIP3    H236078   2.359   3.679  12.260 -0.3275 -2.2587 -0.8287
 4863TIP3   OH236079   7.019   6.106  11.990  0.6691  0.5599 -0.1179
 4863TIP3    H136080   6.945   6.129  12.047  0.0109  0.4943 -0.9361
 4863TIP3    H236081   6.998   6.148  11.906  1.4691  0.3854 -0.4060
 4864TIP3   OH236082   0.322   3.789  14.504 -0.1427  0.5348  0.4520
 4864TIP3    H136083   0.353   3.734  14.432  2.8012  0.3151  1.8072
 4864TIP3    H236084   0.228   3.798  14.489 -0.3992 -3.3519 -0.8160
 4865TIP3   OH236085   0.110   1.182  13.611  0.3183  0.2166  0.0102
 4865TIP3    H136086   0.164   1.211  13.684  0.1443  0.2809  0.1099
 4865TIP3    H236087   0.167   1.121  13.563 -0.1598 -1.1835  1.1790
 4866TIP3   OH236088   5.892   4.394  13.944 -0.3987 -0.0655  0.1437
 4866TIP3    H136089   5.970   4.446  13.964 -0.9035  0.7393  0.0347
 4866TIP3    H236090   5.902   4.314  13.996  1.3433 -0.7424 -1.1601
 4867TIP3   OH236091   5.634   2.098  13.090 -0.1680 -0.3247 -0.2891
 4867TIP3    H136092   5.698   2.169  13.094 -1.5734  1.0262 -0.8495
 4867TIP3    H236093   5.597   2.104  13.001 -1.0746 -1.0507  0.0286
 4868TIP3   OH236094   6.047   2.719  13.158  0.0858 -0.5132 -0.1664
 4868TIP3    H136095   6.065   2.712  13.252  1.3400 -0.5418 -0.4006
 4868TIP3    H236096   6.103   2.653  13.118 -0.8675 -0.8888 -0.8897
 4869TIP3   OH236097   5.443   0.769  11.991  0.2222 -0.1636 -0.2211
 4869TIP3    H136098   5.533   0.775  12.023 -0.5518 -0.1304  2.0309
 4869TIP3    H236099   5.452   0.762  11.896  2.5596  0.9295 -0.1268
 4870TIP3   OH236100   0.701   2.409  11.699  0.1270 -0.4300 -0.3329
 4870TIP3    H136101   0.672   2.333  11.749  1.1950 -0.6899 -0.0993
 4870TIP3    H236102   0.706   2.480  11.763  0.2897 -0.4545 -0.3184
 4871TIP3   OH236103   0.634   1.693  12.973 -0.4925 -0.4381 -0.1407
 4871TIP3    H136104   0.704   1.646  12.927 -0.4816  0.1333 -0.7188
 4871TIP3    H236105   0.670   1.781  12.985 -0.7914 -0.3796  0.2965
 4872TIP3   OH236106   2.374   1.812  14.201  0.0557 -0.5184  0.1247
 4872TIP3    H136107   2.290   1.814  14.246  0.1953 -0.1667  0.3657
 4872TIP3    H236108   2.412   1.727  14.224  0.3735 -0.1131  1.1095
 4873TIP3   OH236109   5.944   3.634  11.896 -0.4703 -0.1050 -0.5638
 4873TIP3    H136110   5.963   3.637  11.802 -0.6610 -2.6560 -0.7200
 4873TIP3    H236111   6.029   3.649  11.937 -0.0695 -0.7038 -1.1651
 4874TIP3   OH236112   6.903   4.103  12.184  0.6465 -0.3737  0.0880
 4874TIP3    H136113   6.902   4.085  12.090  2.3896  0.1709 -0.0699
 4874TIP3    H236114   6.957   4.033  12.221  1.9048  0.7210  0.3588
 4875TIP3   OH236115   4.777   1.306  10.503 -0.6784 -0.8010 -0.1531
 4875TIP3    H136116   4.752   1.245  10.435 -1.5550 -3.0274  2.0845
 4875TIP3    H236117   4.699   1.313  10.559  0.5729 -0.4089  1.5900
 4876TIP3   OH236118   6.958   3.699  10.946  0.1627 -0.0206 -0.3132
 4876TIP3    H136119   7.044   3.659  10.962  0.6647  0.6184 -1.3434
 4876TIP3    H236120   6.975   3.763  10.877 -0.7354  1.5579  0.9138
 4877TIP3   OH236121   5.066   0.348  11.556 -0.8353  0.0254 -0.3201
 4877TIP3    H136122   5.106   0.429  11.525 -2.5084  0.9718 -0.0020
 4877TIP3    H236123   5.120   0.322  11.631  0.9286 -0.2549 -1.6521
 4878TIP3   OH236124   6.705   0.448  12.937  0.1252  0.1346 -0.1184
 4878TIP3    H136125   6.755   0.527  12.959 -0.5202  0.5374 -0.1111
 4878TIP3    H236126   6.771   0.378  12.934  0.8487  0.8524 -1.1562
 4879TIP3   OH236127   6.759   5.397  11.838  0.0590 -0.3061 -0.5634
 4879TIP3    H136128   6.818   5.447  11.780 -0.4854 -0.8407 -1.5830
 4879TIP3    H236129   6.707   5.464  11.882  0.9165  0.1382 -0.2056
 4880TIP3   OH236130   6.430   1.873  12.831  0.1520 -0.1922 -0.7096
 4880TIP3    H136131   6.450   1.908  12.918 -0.7997 -0.7679 -0.2477
 4880TIP3    H236132   6.449   1.945  12.771  1.8954 -0.1590 -0.1381
 4881TIP3   OH236133   6.837   2.568  12.401 -0.3300 -0.3807 -0.0774
 4881TIP3    H136134   6.818   2.484  12.443 -1.1999 -1.4572 -2.5292
 4881TIP3    H236135   6.802   2.633  12.461 -3.6694 -1.9771 -0.1660
 4882TIP3   OH236136   0.662   3.223  11.116 -0.5204  0.2617 -0.8410
 4882TIP3    H136137   0.747   3.194  11.147 -0.8967 -1.6452 -1.5543
 4882TIP3    H236138   0.681   3.271  11.035 -0.1626 -0.5324 -1.2293
 4883TIP3   OH236139   2.996   4.764  11.882  0.5528  0.3715  0.2832
 4883TIP3    H136140   3.045   4.820  11.941 -1.8951  2.0066  0.8326
 4883TIP3    H236141   3.046   4.766  11.800  2.1989  0.7455  1.2689
 4884TIP3   OH236142   6.481   4.226  12.355  0.5517 -0.5968 -0.1812
 4884TIP3    H136143   6.543   4.201  12.424  0.6850 -2.0805 -0.8027
 4884TIP3    H236144   6.484   4.153  12.293  1.5218  1.3593 -2.5208
 4885TIP3   OH236145   1.039   4.270  12.234 -0.0151  0.5951  0.0962
 4885TIP3    H136146   0.984   4.310  12.166 -2.6578 -0.8405  1.2958
 4885TIP3    H236147   1.020   4.321  12.313  0.8560  0.4663  0.3953
 4886TIP3   OH236148   1.311   6.110  11.862  0.0955  0.0155  0.1292
 4886TIP3    H136149   1.293   6.019  11.841  0.3878  0.0845 -0.4465
 4886TIP3    H236150   1.263   6.127  11.943  2.8408 -1.6475  2.1808
 4887TIP3   OH236151   1.735   6.635  10.458 -0.0058 -0.2129 -0.2186
 4887TIP3    H136152   1.709   6.566  10.518  0.1832  0.1520  0.2849
 4887TIP3    H236153   1.706   6.717  10.500 -2.0164 -0.0990 -1.7403
 4888TIP3   OH236154   7.256   3.103  15.320  0.1008 -0.5030 -0.1419
 4888TIP3    H136155   7.203   3.169  15.276 -0.2456 -0.2233  0.6943
 4888TIP3    H236156   7.338   3.100  15.270  0.2993  0.8789  0.0934
 4889TIP3   OH236157   6.493   5.324  13.859 -0.1953  0.6827 -0.5883
 4889TIP3    H136158   6.476   5.412  13.826  0.4543  1.6237  1.5190
 4889TIP3    H236159   6.588   5.314  13.854 -0.2407  0.2331 -0.5492
 4890TIP3   OH236160   1.406   3.363  10.479  0.0042 -0.4912  0.0875
 4890TIP3    H136161   1.339   3.299  10.454 -1.8284  0.8350  1.3764
 4890TIP3    H236162   1.357   3.444  10.492  2.0142  0.7231  0.2843
 4891TIP3   OH236163   2.803   2.424  11.023  0.0300  0.2023  0.7218
 4891TIP3    H136164   2.730   2.374  10.985 -1.0268  0.7629  1.9789
 4891TIP3    H236165   2.772   2.450  11.110  1.7181  0.4917  1.2570
 4892TIP3   OH236166   1.218   4.105  12.403  0.1076  1.0284  0.6964
 4892TIP3    H136167   1.192   4.197  12.408 -0.5213  0.9209 -0.4548
 4892TIP3    H236168   1.145   4.061  12.359  0.9371  0.1905  0.1388
 4893TIP3   OH236169   1.756   4.062  11.402  0.2298 -0.1153  0.2811
 4893TIP3    H136170   1.768   4.048  11.496  0.2997  0.7326  0.3953
 4893TIP3    H236171   1.735   3.975  11.368  0.6722 -0.5090  1.0076
 4894TIP3   OH236172   1.460   2.562  10.517 -0.3425  0.5906  0.0516
 4894TIP3    H136173   1.453   2.540  10.610 -0.4479 -1.0982 -0.3418
 4894TIP3    H236174   1.535   2.622  10.512 -0.5977  1.0125  1.2746
 4895TIP3   OH236175   2.223   5.355  12.605  0.1787  0.4293 -0.3175
 4895TIP3    H136176   2.291   5.322  12.547 -0.8689 -1.2311 -0.6283
 4895TIP3    H236177   2.264   5.427  12.652  1.9573 -0.1696 -0.9354
 4896TIP3   OH236178   5.974   4.260  11.987 -0.3532 -0.1176  0.3927
 4896TIP3    H136179   5.880   4.276  11.994 -0.5720 -0.8976 -0.6644
 4896TIP3    H236180   6.011   4.306  12.062 -1.7411 -1.2312  1.8151
 4897TIP3   OH236181   1.888   3.924  12.352 -0.3931 -0.2970 -0.0897
 4897TIP3    H136182   1.962   3.985  12.346 -0.3428 -0.2874  0.5159
 4897TIP3    H236183   1.819   3.974  12.395 -1.4778  0.3390 -2.5398
 4898TIP3   OH236184   2.114   3.522  13.140  0.2555  0.1057 -0.2638
 4898TIP3    H136185   2.136   3.573  13.218  0.3059 -1.8895  1.0695
 4898TIP3    H236186   2.181   3.546  13.076  0.1423  1.8570  0.2552
 4899TIP3   OH236187   2.032   6.891  15.152 -0.2188 -0.2185  0.0315
 4899TIP3    H136188   1.951   6.840  15.149 -1.0461  1.1466 -1.6884
 4899TIP3    H236189   2.102   6.828  15.136 -0.9761 -1.2822  0.8334
 4900TIP3   OH236190   0.553   4.283  12.206 -0.0255 -0.3400 -0.4456
 4900TIP3    H136191   0.466   4.243  12.208  0.2523 -0.9761 -0.9219
 4900TIP3    H236192   0.545   4.361  12.261 -0.8516 -0.4870 -0.3524
 4901TIP3   OH236193   6.762   5.836   0.001  0.3828 -0.4428  0.2426
 4901TIP3    H136194   6.759   5.883   0.084 -0.2568  0.3687 -0.2197
 4901TIP3    H236195   6.839   5.780   0.007  2.1524  1.9159  0.1609
 4902TIP3   OH236196   2.618   6.571  12.453 -0.0710 -0.5393  0.2917
 4902TIP3    H136197   2.696   6.583  12.508  0.0639  1.9450 -0.3896
 4902TIP3    H236198   2.615   6.476  12.437  2.0605 -0.8360  1.3967
 4903TIP3   OH236199   1.294   6.750  12.443  0.4742 -0.4509  0.6957
 4903TIP3    H136200   1.270   6.843  12.450 -0.2823 -0.6829  1.2211
 4903TIP3    H236201   1.309   6.736  12.350  0.1077  0.0794  0.5556
 4904TIP3   OH236202   0.240   4.903  12.040  0.5523  0.1137  0.1694
 4904TIP3    H136203   0.281   4.870  12.120  1.6066  0.3153 -0.2707
 4904TIP3    H236204   0.311   4.904  11.976 -0.1228  0.6030 -0.5843
 4905TIP3   OH236205   1.308   4.127  13.649  0.3145 -0.4078 -0.6344
 4905TIP3    H136206   1.215   4.140  13.665 -0.7591 -4.2465 -3.1402
 4905TIP3    H236207   1.345   4.215  13.649 -3.4783  1.2615 -0.7182
 4906TIP3   OH236208   1.748   2.717  10.832  0.6120  0.2447 -0.4167
 4906TIP3    H136209   1.828   2.757  10.866 -0.9099  3.6433 -0.6820
 4906TIP3    H236210   1.775   2.628  10.809  4.0299  0.9256  0.5692
 4907TIP3   OH236211   5.116   4.173  11.375  0.2165  0.1635  0.0255
 4907TIP3    H136212   5.095   4.171  11.282  1.3852  0.2793 -0.2595
 4907TIP3    H236213   5.082   4.256  11.406  0.5019  0.4692 -0.4715
 4908TIP3   OH236214   2.359   3.339  11.240 -0.2699  0.3783 -0.0732
 4908TIP3    H136215   2.263   3.338  11.237 -0.2793  0.8190  0.0871
 4908TIP3    H236216   2.386   3.299  11.157 -0.5871  3.4285 -1.7278
 4909TIP3   OH236217   1.306   3.387  12.143  0.1898 -0.2477  0.3478
 4909TIP3    H136218   1.293   3.459  12.082 -0.2135  2.3412  3.3753
 4909TIP3    H236219   1.218   3.352  12.158 -0.0990  0.9192  1.5029
 4910TIP3   OH236220   2.681   7.116  14.008  0.4459  0.1526 -0.0876
 4910TIP3    H136221   2.747   7.067  13.959 -1.4397 -0.6645 -1.9087
 4910TIP3    H236222   2.598   7.078  13.980 -0.7435  0.0099  3.4070
 4911TIP3   OH236223   1.247   6.134  11.448  0.3887 -0.6327  0.1944
 4911TIP3    H136224   1.222   6.052  11.405  0.1419 -1.4452  1.8546
 4911TIP3    H236225   1.341   6.127  11.463  0.9927  0.7843 -2.5477
 4912TIP3   OH236226   1.880   7.004  13.130  0.1408  0.1533 -0.9549
 4912TIP3    H136227   1.821   6.983  13.202  1.5643 -2.4671 -0.4876
 4912TIP3    H236228   1.833   7.070  13.079 -1.5448  0.9120  1.4828
 4913TIP3   OH236229   1.606   5.908  12.714 -0.4298 -0.1422  0.3054
 4913TIP3    H136230   1.678   5.845  12.724 -0.6791 -0.2050  1.7821
 4913TIP3    H236231   1.633   5.984  12.764 -1.1276  0.0660  0.3755
 4914TIP3   OH236232   1.464   4.072  10.979 -0.1530 -0.5207  0.1685
 4914TIP3    H136233   1.446   4.156  10.935 -1.2110 -0.5364  0.5576
 4914TIP3    H236234   1.378   4.043  11.009  0.1451 -1.9977 -0.3951
 4915TIP3   OH236235   0.836   5.499  12.948  0.1174  0.6482  0.1187
 4915TIP3    H136236   0.908   5.445  12.917  0.1162 -0.2834  1.6994
 4915TIP3    H236237   0.876   5.558  13.012 -0.3933  0.5715  0.5149
 4916TIP3   OH236238   2.499   4.025  13.717 -0.1670 -0.6235 -0.1791
 4916TIP3    H136239   2.517   4.048  13.808 -2.3128 -1.9572  0.6216
 4916TIP3    H236240   2.569   3.965  13.692  0.4238 -0.2510  0.5757
 4917TIP3   OH236241   0.571   5.021  14.365  0.2352 -0.3647  0.6177
 4917TIP3    H136242   0.555   5.042  14.456  1.4934 -2.5579  1.3949
 4917TIP3    H236243   0.645   4.961  14.367 -0.1929 -1.0400 -1.7811
 4918TIP3   OH236244   0.619   1.755  14.532  0.0844 -0.1095  0.0112
 4918TIP3    H136245   0.534   1.710  14.528  0.9856 -1.8676  0.1718
 4918TIP3    H236246   0.630   1.792  14.445 -0.8198  0.0902 -0.0287
 4919TIP3   OH236247   1.328   7.014  14.177  0.0801 -0.6156 -0.3096
 4919TIP3    H136248   1.274   7.082  14.137 -0.2690 -1.6866 -1.7158
 4919TIP3    H236249   1.407   7.059  14.206 -0.7349  0.6211 -0.0005
 4920TIP3   OH236250   0.454   5.970  14.319 -0.3158 -0.0747 -0.6623
 4920TIP3    H136251   0.489   5.964  14.407  1.4682  0.6510 -1.3037
 4920TIP3    H236252   0.528   5.997  14.265 -1.8908  1.6515 -2.0349
 4921TIP3   OH236253   0.638   6.115  12.043 -0.1236  0.6017  0.1256
 4921TIP3    H136254   0.545   6.135  12.048 -0.0905  0.7536  0.1292
 4921TIP3    H236255   0.653   6.054  12.115  0.5414  3.4737  2.5109
 4922TIP3   OH236256   0.568   4.503  12.905 -0.7919 -0.0807 -0.3837
 4922TIP3    H136257   0.593   4.436  12.969 -0.1659 -0.2686 -0.8112
 4922TIP3    H236258   0.565   4.585  12.955 -0.2733 -0.2242 -0.1127
 4923TIP3   OH236259   7.263   2.996  10.442  0.5069 -0.1761 -0.1597
 4923TIP3    H136260   7.298   3.056  10.376  0.3604  0.6609  0.5239
 4923TIP3    H236261   7.234   3.052  10.514 -1.5299 -0.9081 -0.3762
 4924TIP3   OH236262   7.015   6.528  13.272  0.1039  0.1257  0.2097
 4924TIP3    H136263   7.063   6.524  13.189 -1.8747 -0.8174 -0.9228
 4924TIP3    H236264   6.953   6.455  13.268 -0.8190  0.7694  2.0268
 4925TIP3   OH236265   3.682   1.645  12.223 -0.0301  0.3539 -0.4260
 4925TIP3    H136266   3.676   1.549  12.227  1.1348  0.3317  1.0945
 4925TIP3    H236267   3.594   1.676  12.240  0.0311 -0.4058  1.3462
 4926TIP3   OH236268   1.993   3.022  12.220 -0.0759 -0.2206  0.1601
 4926TIP3    H136269   1.977   3.067  12.303 -3.9081 -0.3991 -0.3912
 4926TIP3    H236270   2.047   3.083  12.170  0.2492  0.9147  1.8504
 4927TIP3   OH236271   0.639   6.641  12.910  0.2549  0.5622 -0.3534
 4927TIP3    H136272   0.621   6.633  13.004  1.3108  0.7385 -0.1274
 4927TIP3    H236273   0.684   6.725  12.901 -0.4868  0.8810 -1.1151
 4928TIP3   OH236274   0.951   5.187  10.820  0.0197 -0.1634  0.5241
 4928TIP3    H136275   1.045   5.190  10.799 -0.6069  0.4285 -2.4361
 4928TIP3    H236276   0.930   5.277  10.847  0.0927 -0.0227  0.1227
 4929TIP3   OH236277   7.139   5.670  13.055  0.1965  0.8531  0.2033
 4929TIP3    H136278   7.135   5.609  13.129 -0.2628  0.4347 -0.1618
 4929TIP3    H236279   7.153   5.614  12.979 -0.8189  1.1498 -0.2078
 4930TIP3   OH236280   1.570   4.918  10.583  0.0490 -0.3353 -0.2982
 4930TIP3    H136281   1.549   4.890  10.672  0.7658  0.5824  0.1688
 4930TIP3    H236282   1.550   4.842  10.528 -3.0264  0.0009  0.2969
 4931TIP3   OH236283   1.101   4.850  12.280  0.0645 -0.0588 -0.3137
 4931TIP3    H136284   1.125   4.927  12.229  2.2038 -0.0601  0.6572
 4931TIP3    H236285   1.167   4.784  12.256 -1.5731 -1.5240 -0.9301
 4932TIP3   OH236286   2.914   3.495  11.366  0.4979 -0.0214  0.4386
 4932TIP3    H136287   3.002   3.463  11.385  0.2204 -0.3798  1.1316
 4932TIP3    H236288   2.892   3.551  11.441 -0.0023 -0.2218  0.4412
 4933TIP3   OH236289   0.265   6.064  11.620  0.2860 -0.1778  0.0451
 4933TIP3    H136290   0.186   6.067  11.674 -0.0719 -0.7561 -0.4390
 4933TIP3    H236291   0.287   6.155  11.603 -0.5121 -0.0261 -0.1614
 4934TIP3   OH236292   2.226   5.951  12.044 -0.2691  1.1778  0.0279
 4934TIP3    H136293   2.153   6.012  12.029 -0.3657  1.2274  0.6899
 4934TIP3    H236294   2.257   5.972  12.132 -0.0479  0.5360  0.1057
 4935TIP3   OH236295   6.428   5.795  11.959 -0.1695  0.0474  0.2019
 4935TIP3    H136296   6.488   5.868  11.950  0.4711 -0.5473 -0.3683
 4935TIP3    H236297   6.406   5.794  12.053  1.3011 -0.1995  0.5535
 4936TIP3   OH236298   7.046   4.613  12.453 -0.2991  0.0779  0.0913
 4936TIP3    H136299   7.027   4.520  12.460  0.7139 -0.4512 -3.1755
 4936TIP3    H236300   7.142   4.617  12.451 -0.3536  0.9266 -2.1535
 4937TIP3   OH236301   1.642   2.689  14.211 -0.2334 -0.1987 -0.1672
 4937TIP3    H136302   1.603   2.772  14.181  0.6055 -0.1073 -1.0309
 4937TIP3    H236303   1.691   2.713  14.289 -1.4481 -0.2136  0.6137
 4938TIP3   OH236304   0.636   4.384  11.842 -0.1580 -1.2133 -0.4943
 4938TIP3    H136305   0.589   4.303  11.821 -0.1126 -1.2990 -0.2667
 4938TIP3    H236306   0.676   4.367  11.927 -0.1507 -0.9490 -0.4449
 4939TIP3   OH236307   0.676   6.645  13.194  0.4902 -0.5342 -0.2122
 4939TIP3    H136308   0.730   6.702  13.249 -0.2583  1.3871 -1.4457
 4939TIP3    H236309   0.607   6.614  13.252 -0.1438  1.2645  0.0051
 4940TIP3   OH236310   3.041   3.437  11.919 -0.2264  0.4190  0.3443
 4940TIP3    H136311   3.109   3.461  11.856 -0.6106 -2.6160 -1.2969
 4940TIP3    H236312   2.964   3.486  11.891  0.3894  1.3586  0.2610
 4941TIP3   OH236313   7.127   3.451  11.628 -0.3043 -0.1261  0.3147
 4941TIP3    H136314   7.174   3.532  11.646 -1.2093  0.0653  1.9223
 4941TIP3    H236315   7.035   3.473  11.643 -0.7095 -1.0449 -0.7420
 4942TIP3   OH236316   2.001   5.551  13.374  0.3524 -0.1972 -0.0926
 4942TIP3    H136317   2.048   5.475  13.409  2.2128  0.9202 -0.0920
 4942TIP3    H236318   2.070   5.611  13.348 -1.1042  1.4508 -0.1989
 4943TIP3   OH236319   0.155   5.157  13.196 -0.1374  0.5144 -0.1629
 4943TIP3    H136320   0.138   5.077  13.244 -1.8557  0.9173 -0.0355
 4943TIP3    H236321   0.248   5.176  13.210  0.1486 -1.1553  0.2255
 4944TIP3   OH236322   7.233   0.057  13.861  0.5680 -0.0836  0.2771
 4944TIP3    H136323   7.241   0.076  13.767 -0.3948  1.8771  0.5543
 4944TIP3    H236324   7.139   0.051  13.875  0.7180 -0.4391  1.1092
 4945TIP3   OH236325   1.761   4.723  12.065  0.4789  0.5964 -0.3516
 4945TIP3    H136326   1.734   4.812  12.091 -2.4849 -1.0046  2.4640
 4945TIP3    H236327   1.706   4.702  11.990  1.8488  1.4323 -1.6218
 4946TIP3   OH236328   0.696   4.406  13.375 -0.4599 -0.4597 -0.4643
 4946TIP3    H136329   0.635   4.478  13.360  0.2353 -0.0632 -1.5163
 4946TIP3    H236330   0.698   4.359  13.291  1.6214  0.2871 -0.8717
 4947TIP3   OH236331   1.537   6.162  11.501 -0.2906 -0.1825 -0.3014
 4947TIP3    H136332   1.586   6.198  11.428  0.5446  0.3273  0.5029
 4947TIP3    H236333   1.583   6.081  11.524  0.1536  0.2777  0.4298
 4948TIP3   OH236334   0.685   1.238  12.274 -0.1261  0.1675 -0.2494
 4948TIP3    H136335   0.621   1.172  12.247  1.6009 -1.3527 -0.7492
 4948TIP3    H236336   0.763   1.187  12.297  1.4458  2.0814 -1.2007
 4949TIP3   OH236337   0.205   4.770  11.754  0.1896 -0.0894  0.4593
 4949TIP3    H136338   0.294   4.787  11.783 -0.3106  0.9070  1.4367
 4949TIP3    H236339   0.210   4.686  11.708  1.6435  0.0234  0.4040
 4950TIP3   OH236340   6.272   3.642  13.605  0.0798  0.1056 -0.7748
 4950TIP3    H136341   6.363   3.645  13.636  0.0220  0.5713 -0.6445
 4950TIP3    H236342   6.265   3.559  13.559  0.0852 -0.7432  0.7299
 4951TIP3   OH236343   0.197   5.465  10.686  0.0099  0.3925 -0.7315
 4951TIP3    H136344   0.197   5.535  10.621 -1.0295  1.1693  0.0993
 4951TIP3    H236345   0.229   5.507  10.766 -1.9369  0.2605  0.1252
 4952TIP3   OH236346   6.839   2.475  13.535 -0.0260  0.3239 -0.3368
 4952TIP3    H136347   6.854   2.507  13.447  2.6885  1.6859  0.5885
 4952TIP3    H236348   6.841   2.553  13.591 -1.2456 -0.5614  1.0224
 4953TIP3   OH236349   1.979   2.118  12.255 -0.3608  0.2616 -0.4813
 4953TIP3    H136350   1.899   2.068  12.264 -0.9547  1.0128 -1.4266
 4953TIP3    H236351   1.980   2.176  12.331 -1.1596  0.8523 -0.9113
 4954TIP3   OH236352   1.114   6.481  12.007  0.6330  0.1891  0.0987
 4954TIP3    H136353   1.203   6.477  12.042  0.2976 -1.0755  0.8448
 4954TIP3    H236354   1.103   6.399  11.958 -0.1045  0.3414 -0.0085
 4955TIP3   OH236355   0.936   1.970  13.789 -0.7278 -0.0218 -0.3534
 4955TIP3    H136356   0.958   1.953  13.697 -1.0317  2.5036 -0.9409
 4955TIP3    H236357   0.846   1.940  13.798 -0.6095 -0.5290 -0.7980
 4956TIP3   OH236358   1.028   4.254  14.240 -0.3572 -0.2417 -0.7120
 4956TIP3    H136359   0.949   4.297  14.272 -1.1273 -0.4667 -2.2506
 4956TIP3    H236360   1.054   4.306  14.164  0.8946 -0.2597 -0.3068
 4957TIP3   OH236361   2.770   5.360  11.501 -0.1515 -0.4080 -0.2118
 4957TIP3    H136362   2.735   5.271  11.492  1.2537 -0.9792 -0.0829
 4957TIP3    H236363   2.818   5.358  11.584 -1.4726  0.9378  0.5973
 4958TIP3   OH236364   0.594   5.148  13.873 -0.2159 -0.2505  0.2364
 4958TIP3    H136365   0.602   5.205  13.796 -1.2818 -0.5889 -0.1301
 4958TIP3    H236366   0.671   5.091  13.868  0.0078  0.0915 -0.2768
 4959TIP3   OH236367   1.257   5.696  14.210  0.3594 -0.7276  0.3631
 4959TIP3    H136368   1.174   5.672  14.170  0.3768 -0.9834  0.4735
 4959TIP3    H236369   1.320   5.635  14.172  0.1288 -1.9257  1.8308
 4960TIP3   OH236370   1.991   5.148  12.176  0.4465 -0.4527 -0.3139
 4960TIP3    H136371   2.002   5.101  12.259 -0.5320  0.2100  0.1949
 4960TIP3    H236372   1.920   5.209  12.192  0.5130 -0.0419 -1.5307
 4961TIP3   OH236373   1.105   4.179  12.842 -0.0391  0.4139 -0.1035
 4961TIP3    H136374   1.171   4.248  12.834 -2.0290  2.2663 -1.0682
 4961TIP3    H236375   1.136   4.110  12.784  0.9493  1.3508 -0.7087
 4962TIP3   OH236376   0.011   1.871  13.417  0.1544 -0.3382  0.5667
 4962TIP3    H136377   0.076   1.893  13.484  0.6385 -0.6607  0.1955
 4962TIP3    H236378  -0.055   1.941  13.425  0.3320 -0.2423  1.2186
 4963TIP3   OH236379   0.477   4.159  11.830 -0.7379  0.0139  0.0086
 4963TIP3    H136380   0.517   4.128  11.748  1.7917  0.3923  1.0532
 4963TIP3    H236381   0.435   4.081  11.866  0.0492 -0.6904 -0.5583
 4964TIP3   OH236382   0.272   1.107  13.166  0.2473  0.2099  0.2536
 4964TIP3    H136383   0.339   1.113  13.235 -0.0057  2.1632  0.3542
 4964TIP3    H236384   0.257   1.197  13.140 -0.2502 -0.4627 -1.8282
 4965TIP3   OH236385   2.070   3.695  12.337  0.4004 -0.0998 -0.0127
 4965TIP3    H136386   2.062   3.658  12.424 -0.0627  2.9178  1.2882
 4965TIP3    H236387   1.998   3.758  12.331  1.0000  0.4277 -2.1977
 4966TIP3   OH236388   6.822   5.444  13.391  0.0238 -0.4896 -0.5165
 4966TIP3    H136389   6.917   5.458  13.396  0.1350 -0.5262 -2.2052
 4966TIP3    H236390   6.806   5.420  13.300 -1.6066 -0.5590 -0.2265
 4967TIP3   OH236391   0.404   3.741  12.479 -0.3308  0.0243 -0.3295
 4967TIP3    H136392   0.317   3.705  12.496 -0.1062  0.5816  2.0583
 4967TIP3    H236393   0.464   3.671  12.505  0.0051  0.7874  1.0004
 4968TIP3   OH236394   1.183   3.730  11.102  0.5754 -0.4981 -0.5205
 4968TIP3    H136395   1.256   3.704  11.159  0.3843  0.3658  0.1224
 4968TIP3    H236396   1.171   3.654  11.044  0.2437 -1.7301  1.1137
 4969TIP3   OH236397   0.225   3.948  12.783  0.4562  0.6261 -0.3434
 4969TIP3    H136398   0.281   4.023  12.765  1.9763 -0.7408 -1.3821
 4969TIP3    H236399   0.284   3.881  12.817 -0.7210 -0.4590 -0.3802
 4970TIP3   OH236400   6.611   3.039  14.571 -0.4171 -0.1107  0.3821
 4970TIP3    H136401   6.557   3.075  14.642 -0.8882 -1.2002  0.5780
 4970TIP3    H236402   6.695   3.084  14.581 -1.4758  2.1359 -0.3737
 4971TIP3   OH236403   0.213   2.441  13.370 -0.4685  0.0032 -0.6825
 4971TIP3    H136404   0.167   2.417  13.289  0.4808 -1.0859 -0.9166
 4971TIP3    H236405   0.144   2.464  13.432 -1.3275 -1.6586 -1.0124
 4972TIP3   OH236406   1.517   7.201  12.921  0.4248  0.0580 -0.3996
 4972TIP3    H136407   1.430   7.227  12.951 -0.0833 -0.6030 -1.2558
 4972TIP3    H236408   1.500   7.134  12.854  1.6939 -2.2089  1.4926
 4973TIP3   OH236409   4.515   5.456  12.025  0.9294 -0.2026  0.0490
 4973TIP3    H136410   4.480   5.517  11.960  1.4549 -0.0775 -0.1234
 4973TIP3    H236411   4.441   5.401  12.049  1.0197 -1.0483 -1.5632
 4974TIP3   OH236412   2.163   4.057  13.951 -0.1196  0.2973 -0.2238
 4974TIP3    H136413   2.176   4.132  13.893 -1.7280  1.3720  0.7729
 4974TIP3    H236414   2.218   3.988  13.914  1.1622  1.8727 -1.3181
 4975TIP3   OH236415   1.556   3.056  13.901 -0.1718 -0.0640  0.3194
 4975TIP3    H136416   1.472   3.029  13.862 -0.3373  1.3348 -0.3256
 4975TIP3    H236417   1.553   3.152  13.900  1.7505  0.0152 -0.3933
 4976TIP3   OH236418   2.398   4.359  12.292  0.9893 -0.1896  0.4175
 4976TIP3    H136419   2.438   4.340  12.377  0.1448 -1.2270  0.5895
 4976TIP3    H236420   2.472   4.364  12.232  1.5487 -0.0093  1.1135
 4977TIP3   OH236421   7.144   5.491  13.275  0.4853 -0.9930  0.0780
 4977TIP3    H136422   7.150   5.538  13.359  0.0487 -2.0015  0.6856
 4977TIP3    H236423   7.224   5.439  13.271  1.4199  0.4651 -1.0280
 4978TIP3   OH236424   7.271   5.351  10.316  0.0972 -0.0169 -0.0160
 4978TIP3    H136425   7.238   5.423  10.370  1.0471 -0.2340  0.8789
 4978TIP3    H236426   7.222   5.274  10.347 -0.5048  0.1372 -0.5759
 4979TIP3   OH236427   1.032   4.995  14.316  0.1732 -0.0890 -0.2434
 4979TIP3    H136428   1.101   4.959  14.372  0.6612 -0.8226 -1.2946
 4979TIP3    H236429   1.077   5.018  14.234 -0.6705  0.2253 -0.6243
 4980TIP3   OH236430   0.003   5.225  12.936 -0.3309  0.2601  0.4188
 4980TIP3    H136431  -0.056   5.150  12.936  0.9710 -0.8397 -2.1801
 4980TIP3    H236432   0.039   5.227  13.025 -1.5618 -1.2345  0.9786
 4981TIP3   OH236433   2.932   5.771  12.245 -0.1169 -0.2516 -0.5607
 4981TIP3    H136434   2.982   5.853  12.247  0.3683 -0.5895  1.0530
 4981TIP3    H236435   2.852   5.794  12.196  1.0595  0.5737 -2.1504
 4982TIP3   OH236436   1.420   6.522  13.411 -0.4144 -0.2343  0.2181
 4982TIP3    H136437   1.475   6.557  13.481  0.6093  0.7551 -1.0527
 4982TIP3    H236438   1.357   6.465  13.456  0.0369  0.6066  1.9614
 4983TIP3   OH236439   2.800   6.386  10.740 -0.3798 -0.1208 -0.9619
 4983TIP3    H136440   2.772   6.296  10.757  1.2686 -0.4173  0.3365
 4983TIP3    H236441   2.727   6.426  10.693 -2.0200 -1.4949  0.3724
 4984TIP3   OH236442   1.701   4.834  11.234  0.1124 -0.2115 -0.2028
 4984TIP3    H136443   1.759   4.898  11.275 -0.3096 -0.8376  1.4120
 4984TIP3    H236444   1.670   4.780  11.306  1.1497 -2.8218 -1.6443
 4985TIP3   OH236445   4.115   5.950  13.022 -0.1367 -0.0589  0.1897
 4985TIP3    H136446   4.134   6.030  12.971  0.3282 -0.6119 -0.5155
 4985TIP3    H236447   4.020   5.950  13.031 -0.1575  0.4902  0.0485
 4986TIP3   OH236448   5.920   3.953  11.971 -0.4795  0.4101 -0.0580
 4986TIP3    H136449   5.839   3.926  12.014 -1.3303  0.3795 -1.6589
 4986TIP3    H236450   5.895   4.026  11.915  1.0186  1.7901  1.0437
 4987TIP3   OH236451   0.952   2.931  12.326 -0.2909 -0.1180  0.1622
 4987TIP3    H136452   0.982   2.874  12.397  0.1296  1.1592  1.0233
 4987TIP3    H236453   1.022   2.995  12.314 -0.8958  0.4345 -0.5617
 4988TIP3   OH236454   1.396   3.941  15.335 -0.8801 -0.4638  0.2397
 4988TIP3    H136455   1.481   3.906  15.311 -2.1635 -2.9362 -0.9121
 4988TIP3    H236456   1.395   3.940  15.431 -0.1633 -1.7803  0.2370
 4989TIP3   OH236457   1.622   6.091  12.279  0.4260 -0.5053 -0.0532
 4989TIP3    H136458   1.583   6.065  12.363  0.7258  1.9475  0.8996
 4989TIP3    H236459   1.653   6.009  12.241 -0.0018 -1.7141  2.0843
 4990TIP3   OH236460   0.619   6.420  11.533  0.4626  0.6337 -0.3426
 4990TIP3    H136461   0.626   6.340  11.584  1.0708  0.5615 -0.5336
 4990TIP3    H236462   0.695   6.472  11.560  0.3605  0.9175 -0.6057
 4991TIP3   OH236463   1.387   5.614  12.982  0.1945 -0.8035  0.4245
 4991TIP3    H136464   1.399   5.600  12.888  1.0033 -0.4591  0.4752
 4991TIP3    H236465   1.437   5.544  13.023  1.3998  0.1673  0.6274
 4992TIP3   OH236466   1.407   4.286  11.853 -0.3839 -0.0111 -0.0578
 4992TIP3    H136467   1.367   4.242  11.927  1.6320  0.1745  1.1780
 4992TIP3    H236468   1.336   4.336  11.813 -1.9679 -1.8252  0.4404
 4993TIP3   OH236469   3.796   4.954  12.007 -0.1825  0.0236  0.1469
 4993TIP3    H136470   3.768   5.045  12.006  0.8182  0.3427 -2.0396
 4993TIP3    H236471   3.836   4.940  11.921  2.1301 -1.7091  1.4341
 4994TIP3   OH236472   1.376   4.777  12.646  0.2555 -0.1695  0.7780
 4994TIP3    H136473   1.339   4.689  12.632  0.4394 -0.0130 -0.7569
 4994TIP3    H236474   1.457   4.761  12.694  1.5203 -1.0779 -1.5554
 4995TIP3   OH236475   2.173   3.097  11.412 -0.0376  0.7725 -0.3434
 4995TIP3    H136476   2.236   3.025  11.411 -0.1357  0.6743  0.2642
 4995TIP3    H236477   2.168   3.126  11.321 -1.7757 -1.5476 -1.0532
 4996TIP3   OH236478   0.456   3.425  12.077  0.4789  0.3490 -0.2773
 4996TIP3    H136479   0.385   3.432  12.142 -0.6058  1.8707 -1.5972
 4996TIP3    H236480   0.447   3.336  12.042  0.2447 -0.0297  0.7210
 4997TIP3   OH236481   0.321   2.304  10.995  0.1282 -0.3673 -0.0344
 4997TIP3    H136482   0.353   2.253  10.921 -0.1830  0.0564 -0.4666
 4997TIP3    H236483   0.322   2.394  10.964 -1.2483 -0.3175  0.0151
 4998TIP3   OH236484   7.092   6.158  11.212  0.1795 -0.3012 -0.1562
 4998TIP3    H136485   7.057   6.248  11.212  0.8287 -0.0307 -1.5830
 4998TIP3    H236486   7.078   6.127  11.301  0.5297  1.4588  0.5428
 4999TIP3   OH236487   6.834   4.299  12.769  0.2277  0.3755  0.3226
 4999TIP3    H136488   6.834   4.243  12.847  3.3333  0.4044  0.3735
 4999TIP3    H236489   6.818   4.387  12.803 -0.2301  0.1441  0.7197
 5000TIP3   OH236490   1.461   6.058  11.203  0.2028 -0.3483  0.3699
 5000TIP3    H136491   1.497   6.021  11.122 -0.0458  0.7951 -0.2745
 5000TIP3    H236492   1.464   5.986  11.265  2.8258 -0.5183  0.0993
 5001TIP3   OH236493   3.227   5.102  10.767 -0.2816  0.2205 -0.0024
 5001TIP3    H136494   3.199   5.098  10.858 -0.6098  2.6421  0.0190
 5001TIP3    H236495   3.302   5.042  10.762 -0.6657 -0.4153  1.6811
 5002TIP3   OH236496   2.790   2.934  11.160  0.6347  0.2546 -0.2502
 5002TIP3    H136497   2.868   2.903  11.207  1.8563  1.0061 -1.7178
 5002TIP3    H236498   2.801   2.900  11.071 -2.4738 -2.5529  0.3493
 5003TIP3   OH236499   0.707   3.137  13.754 -0.1192 -0.0356  0.2580
 5003TIP3    H136500   0.710   3.113  13.661 -1.2497  0.4287  0.0919
 5003TIP3    H236501   0.736   3.059  13.800  0.3667 -0.3012 -0.4832
 5004TIP3   OH236502   2.292   5.792  14.232  0.0043 -0.0421  0.0516
 5004TIP3    H136503   2.319   5.713  14.185  0.9902 -0.3290  1.0692
 5004TIP3    H236504   2.283   5.763  14.323  0.0215  0.9399  0.3679
 5005TIP3   OH236505   6.558   3.699  12.156 -0.3083 -0.6611  0.1617
 5005TIP3    H136506   6.634   3.730  12.107 -0.7350  1.4594  0.7896
 5005TIP3    H236507   6.485   3.750  12.121 -1.2329 -1.7454  0.4713
 5006TIP3   OH236508   0.553   6.310   9.966  0.0728 -0.0972  0.0460
 5006TIP3    H136509   0.490   6.310   9.894  1.4171 -1.7154 -1.1679
 5006TIP3    H236510   0.638   6.321   9.924  0.7296  0.8406  1.5651
 5007TIP3   OH236511   6.076   3.713  15.691 -0.3201  0.0401  1.0341
 5007TIP3    H136512   6.130   3.741  15.617 -1.3099 -0.2507  0.1899
 5007TIP3    H236513   6.122   3.637  15.727 -0.8043 -0.9993 -0.4694
 5008TIP3   OH236514   0.054   2.942  14.853 -0.3201 -0.6100 -0.1395
 5008TIP3    H136515   0.094   2.971  14.771 -0.8934  0.5731 -0.0102
 5008TIP3    H236516  -0.040   2.950  14.838 -0.4189  0.4664  0.9251
 5009TIP3   OH236517   2.738   6.445  14.449  0.0992 -0.4192  0.2845
 5009TIP3    H136518   2.801   6.507  14.485  0.5916 -1.2690  0.8921
 5009TIP3    H236519   2.774   6.420  14.364 -0.4731  0.6861 -0.2914
 5010TIP3   OH236520   2.603   4.248  12.965 -0.0772  0.2988 -1.1035
 5010TIP3    H136521   2.635   4.303  12.893 -2.6377  1.5776 -1.3095
 5010TIP3    H236522   2.623   4.299  13.044 -0.4250  0.5055 -1.1485
 5011TIP3   OH236523   2.166   5.601  12.129 -0.0775  0.5727  0.2521
 5011TIP3    H136524   2.193   5.667  12.192  1.6421  1.5296 -1.4495
 5011TIP3    H236525   2.077   5.627  12.103  0.4251  1.9807 -0.0932
 5012TIP3   OH236526   6.043   3.421  13.666  0.3346 -0.0015 -0.0819
 5012TIP3    H136527   6.025   3.330  13.691 -0.0331  0.3593  1.0099
 5012TIP3    H236528   6.078   3.416  13.578  1.1106 -1.2754  0.2932
 5013TIP3   OH236529   6.973   6.209  11.755 -0.3682 -0.2009 -0.1145
 5013TIP3    H136530   6.930   6.294  11.757 -0.7162 -0.3593 -0.6301
 5013TIP3    H236531   7.052   6.224  11.701 -0.8856 -0.4048 -0.9417
 5014TIP3   OH236532   1.332   4.586  13.882 -0.4374 -0.4943  0.4617
 5014TIP3    H136533   1.391   4.641  13.831 -1.6402  0.3305 -0.0450
 5014TIP3    H236534   1.261   4.563  13.822 -0.8882 -1.0928  1.2026
 5015TIP3   OH236535   7.042   2.260  13.602 -0.4171  0.1749 -0.0617
 5015TIP3    H136536   7.045   2.249  13.697  0.2725  0.3236 -0.0665
 5015TIP3    H236537   6.984   2.335  13.589 -2.0359 -1.0053  0.1465
 5016TIP3   OH236538   2.911   6.615  14.603  0.1630 -0.0606 -0.3097
 5016TIP3    H136539   2.827   6.634  14.645  0.2560 -1.8037  0.7098
 5016TIP3    H236540   2.970   6.681  14.639 -0.4541  0.3367 -0.0041
 5017TIP3   OH236541   6.221   3.223  12.321  0.2359 -0.0716 -0.4144
 5017TIP3    H136542   6.280   3.151  12.300  0.3235 -0.0918 -0.1049
 5017TIP3    H236543   6.264   3.269  12.394  0.2886  0.4184 -0.7494
 5018TIP3   OH236544   6.562   6.817  13.629  0.0618  0.0683 -0.2736
 5018TIP3    H136545   6.490   6.777  13.581  0.0642  0.3934 -0.5565
 5018TIP3    H236546   6.528   6.833  13.716 -0.3836  0.7162 -0.5637
 5019TIP3   OH236547   0.133   3.609  12.827 -0.3666 -0.3078 -0.5616
 5019TIP3    H136548   0.059   3.550  12.813  0.9783 -1.6586 -2.1944
 5019TIP3    H236549   0.192   3.560  12.886  0.2081 -0.1162 -0.9712
 5020TIP3   OH236550   1.554   6.662  11.779  0.7493 -0.6587 -0.3171
 5020TIP3    H136551   1.481   6.716  11.807  0.9025 -0.2793 -0.6469
 5020TIP3    H236552   1.515   6.576  11.762  0.4426 -0.5516 -0.1526
 5021TIP3   OH236553   0.480   6.958  13.895 -0.4885  0.2183 -0.4648
 5021TIP3    H136554   0.386   6.945  13.883 -0.9239  2.5538  0.2676
 5021TIP3    H236555   0.513   6.871  13.917 -2.5123 -0.5800 -0.4716
 5022TIP3   OH236556   0.919   3.115  11.170  0.2390  0.3595 -0.0786
 5022TIP3    H136557   0.946   3.084  11.083  1.7830  0.9840  0.1542
 5022TIP3    H236558   0.965   3.058  11.231 -2.1501 -1.1561  0.3588
 5023TIP3   OH236559   3.032   5.360  12.456 -0.5476 -0.0112 -0.2545
 5023TIP3    H136560   3.120   5.370  12.420 -0.6999  0.3895 -0.5268
 5023TIP3    H236561   3.045   5.342  12.549 -0.1414 -1.2132 -0.5346
 5024TIP3   OH236562   0.213   2.890  12.176 -0.3117 -0.1716  0.4114
 5024TIP3    H136563   0.227   2.841  12.257 -1.7545  0.5247  1.1162
 5024TIP3    H236564   0.158   2.964  12.202  1.6621  1.7329 -0.6688
 5025TIP3   OH236565   2.272   3.371  13.978  0.3020  0.2324 -0.0236
 5025TIP3    H136566   2.264   3.298  14.039 -0.7202  1.5361  1.4499
 5025TIP3    H236567   2.321   3.437  14.027  1.2735  0.5127 -1.3615
 5026TIP3   OH236568   0.176   3.142  12.838  0.7413 -1.1499  0.7574
 5026TIP3    H136569   0.202   3.199  12.766 -0.1711 -0.7642  0.7201
 5026TIP3    H236570   0.251   3.084  12.852  1.1347 -0.8558 -0.1220
 5027TIP3   OH236571   3.241   0.295  14.262  0.3529 -0.5295 -0.6250
 5027TIP3    H136572   3.275   0.351  14.191  0.4496 -0.2113 -0.3279
 5027TIP3    H236573   3.148   0.319  14.268  0.1977 -1.0094 -1.0699
 5028TIP3   OH236574   7.075   1.805  12.178  0.1098 -0.0600  0.0230
 5028TIP3    H136575   7.042   1.870  12.241 -0.2299  0.8059 -1.0354
 5028TIP3    H236576   7.123   1.857  12.114  1.0939 -1.0282 -0.0245
 5029TIP3   OH236577   6.857   2.263  13.830  0.0428  0.1349 -0.3075
 5029TIP3    H136578   6.834   2.332  13.893 -1.2111 -0.5351 -0.0186
 5029TIP3    H236579   6.780   2.256  13.773  0.9367  0.3215 -1.5513
 5030TIP3   OH236580   5.204   2.212  12.941 -0.2378 -0.1915  0.2991
 5030TIP3    H136581   5.230   2.150  13.009  0.0351 -0.4199 -0.0134
 5030TIP3    H236582   5.196   2.296  12.987 -0.8976 -0.5123  0.7788
 5031TIP3   OH236583   0.002   3.384  12.653  0.0817 -0.2835  0.0243
 5031TIP3    H136584   0.090   3.350  12.639 -0.5212 -1.8320 -0.0303
 5031TIP3    H236585  -0.030   3.406  12.565 -0.2648 -1.4226 -0.1362
 5032TIP3   OH236586   0.233   4.464  12.556 -0.3921 -0.2448  0.0703
 5032TIP3    H136587   0.285   4.510  12.490  0.2851 -2.2519 -0.8386
 5032TIP3    H236588   0.247   4.514  12.637  2.2249 -0.1942 -0.3597
 5033TIP3   OH236589   1.482   4.281  13.374  0.0096 -0.4069 -0.3122
 5033TIP3    H136590   1.424   4.302  13.301  0.1895  0.6494 -0.1633
 5033TIP3    H236591   1.561   4.247  13.333  0.3938  0.8710 -0.6587
 5034TIP3   OH236592   7.088   1.777  12.976 -0.0685  0.3204  0.0445
 5034TIP3    H136593   7.072   1.746  13.066  0.3332 -0.0701 -0.0127
 5034TIP3    H236594   7.021   1.734  12.923  1.5462 -1.8761 -0.3129
 5035TIP3   OH236595   1.268   3.628  13.556  0.2019 -0.3277 -0.1990
 5035TIP3    H136596   1.324   3.683  13.610  1.0091 -2.5715  1.3431
 5035TIP3    H236597   1.227   3.567  13.618 -2.2023 -0.2128 -1.5775
 5036TIP3   OH236598   6.177   5.474  10.834  0.3267  0.3341  0.3697
 5036TIP3    H136599   6.242   5.409  10.862  0.7043  0.0678 -1.0557
 5036TIP3    H236600   6.148   5.516  10.914  1.9097  0.1076  1.0779
 5037TIP3   OH236601   1.989   5.892  12.918 -0.9660  0.2953  0.0687
 5037TIP3    H136602   1.969   5.864  13.007 -1.0118  1.6122  0.4851
 5037TIP3    H236603   1.936   5.970  12.905 -1.2106 -0.0722 -1.2397
 5038TIP3   OH236604   0.135   4.629  14.033 -0.4290 -0.1001 -0.1836
 5038TIP3    H136605   0.182   4.617  13.950 -0.7633  0.2740 -0.4278
 5038TIP3    H236606   0.141   4.543  14.075  0.7046  0.0155 -0.0890
 5039TIP3   OH236607   1.099   6.416  15.930  0.6420 -0.3496 -0.1298
 5039TIP3    H136608   1.058   6.349  15.984 -1.9084  1.0072 -0.2448
 5039TIP3    H236609   1.107   6.492  15.988  0.2850  0.2947 -0.8992
 5040TIP3   OH236610   0.709   5.707  11.351  0.0553  0.1874 -0.0512
 5040TIP3    H136611   0.766   5.778  11.379 -0.1316 -0.0674  0.9861
 5040TIP3    H236612   0.632   5.714  11.407 -0.3141 -0.3391 -0.4883
 5041TIP3   OH236613   6.169   4.851  11.773  0.0966  0.0075  0.2375
 5041TIP3    H136614   6.184   4.887  11.685  0.0253 -0.0858  0.1864
 5041TIP3    H236615   6.252   4.807  11.794 -0.2885 -0.9567 -0.2548
 5042TIP3   OH236616   1.083   6.186  13.779  0.8932 -0.3099  0.1342
 5042TIP3    H136617   1.047   6.117  13.724  1.3524 -0.6971  0.3215
 5042TIP3    H236618   1.132   6.141  13.847  1.0580  0.1934  0.3563
 5043TIP3   OH236619   2.441   4.103  10.543 -0.1440  0.0441 -0.5831
 5043TIP3    H136620   2.418   4.075  10.454  0.5916  0.9606 -1.0793
 5043TIP3    H236621   2.479   4.190  10.531  0.1673  0.0768  0.6107
 5044TIP3   OH236622   2.833   5.958  13.952  0.1749  0.2043 -0.3584
 5044TIP3    H136623   2.821   5.874  13.996 -1.2299  0.5538 -0.0310
 5044TIP3    H236624   2.923   5.983  13.972  0.6275 -1.2613 -0.5377
 5045TIP3   OH236625   4.766   4.633  14.469 -0.5901 -0.9206  0.1736
 5045TIP3    H136626   4.741   4.592  14.386 -1.5657  0.3753 -0.1998
 5045TIP3    H236627   4.735   4.572  14.536 -0.5316 -1.5862 -0.3994
 5046TIP3   OH236628   1.358   3.382  14.445 -0.2616 -0.3684 -0.7648
 5046TIP3    H136629   1.399   3.339  14.370 -1.4731  0.7462 -2.0858
 5046TIP3    H236630   1.309   3.455  14.407  1.2291  1.8056  1.3664
 5047TIP3   OH236631   3.216   4.079  10.937  0.2762 -0.0875 -0.5697
 5047TIP3    H136632   3.149   4.050  10.875  0.7129 -2.2825 -0.0630
 5047TIP3    H236633   3.252   4.158  10.898 -2.4752  1.0310 -0.9360
 5048TIP3   OH236634   7.247   2.826  11.261  0.3226 -0.6287 -0.6116
 5048TIP3    H136635   7.161   2.834  11.218  0.0310  1.4151  0.3122
 5048TIP3    H236636   7.304   2.884  11.211  0.1060  1.3579  1.4065
 5049TIP3   OH236637   0.753   7.092  11.104  0.1568 -0.0322  0.1852
 5049TIP3    H136638   0.831   7.110  11.051  1.4154 -0.4829  1.8394
 5049TIP3    H236639   0.785   7.036  11.175 -1.7389 -0.4386  0.7450
 5050TIP3   OH236640   7.260   4.322  13.233 -0.0640 -0.5167  0.2692
 5050TIP3    H136641   7.340   4.270  13.238 -1.2790 -2.5201 -0.3672
 5050TIP3    H236642   7.238   4.323  13.140 -1.1211 -0.5276  0.5138
 5051TIP3   OH236643   2.346   5.166  13.018 -0.2177  0.2932  0.3524
 5051TIP3    H136644   2.405   5.241  13.013  2.0206 -1.3991  0.6188
 5051TIP3    H236645   2.287   5.176  12.943  1.5095  1.1440 -0.9308
 5052TIP3   OH236646   0.473   5.405  11.460 -0.1121  0.1128 -0.2645
 5052TIP3    H136647   0.554   5.367  11.495  0.8665  0.4075 -2.1553
 5052TIP3    H236648   0.472   5.494  11.494  0.2107  0.0222 -0.0163
 5053TIP3   OH236649   1.322   5.567  11.725  0.4516  0.3849  0.0291
 5053TIP3    H136650   1.406   5.611  11.733  1.1495 -0.7076 -1.1575
 5053TIP3    H236651   1.311   5.523  11.810  1.4364 -0.0779 -0.0684
 5054TIP3   OH236652   0.900   5.744  10.768 -0.3580  0.2935  0.3780
 5054TIP3    H136653   0.874   5.750  10.676 -1.2271 -0.0668  0.5895
 5054TIP3    H236654   0.817   5.737  10.816  0.1328 -1.3810  1.0428
 5055TIP3   OH236655   0.459   4.593  11.721 -0.1169  0.5359 -0.7552
 5055TIP3    H136656   0.538   4.538  11.718 -0.5962 -0.1024 -1.9786
 5055TIP3    H236657   0.398   4.544  11.776 -0.2235  0.2884 -1.0982
 5056TIP3   OH236658   2.044   6.153  11.996  0.0598  0.1763  0.6425
 5056TIP3    H136659   1.971   6.198  12.037  1.1040  1.6611  0.9298
 5056TIP3    H236660   2.022   6.151  11.903 -0.2499  0.7946  0.7014
 5057TIP3   OH236661   7.249   3.294  11.878 -0.0537  0.0081 -0.1216
 5057TIP3    H136662   7.225   3.328  11.792  0.2499  0.4948 -0.0151
 5057TIP3    H236663   7.273   3.371  11.929  5.0471 -0.5904 -1.2652
 5058TIP3   OH236664   3.803   4.174  11.104  0.2511  0.6681 -0.3861
 5058TIP3    H136665   3.818   4.167  11.199  2.2905  1.6173 -0.6161
 5058TIP3    H236666   3.816   4.085  11.071  1.9985  0.8039 -0.0963
 5059TIP3   OH236667   0.300   4.040  10.750  0.8966  0.2203  0.3303
 5059TIP3    H136668   0.306   4.110  10.815  0.1679  0.5436  0.0543
 5059TIP3    H236669   0.366   4.064  10.684  0.7978  0.5253  0.3445
 5060TIP3   OH236670   6.920   5.328  14.172 -0.2274 -0.8793 -0.4560
 5060TIP3    H136671   6.930   5.243  14.130  0.3623 -0.2009 -1.7175
 5060TIP3    H236672   7.007   5.347  14.209 -0.1231 -0.4284 -0.9342
 5061TIP3   OH236673   0.385   3.634  14.288 -0.1248 -0.0805 -0.1424
 5061TIP3    H136674   0.414   3.686  14.213  0.0951  0.8479  0.5751
 5061TIP3    H236675   0.357   3.550  14.250  1.0057 -0.0175 -1.1264
 5062TIP3   OH236676   0.726   3.761  11.155 -0.1285 -0.0816  0.3653
 5062TIP3    H136677   0.796   3.705  11.120 -2.0997 -1.0987 -2.1578
 5062TIP3    H236678   0.680   3.706  11.218 -1.3250 -0.9523 -1.2311
 5063TIP3   OH236679   0.212   3.451  11.217 -0.4470  0.1149 -0.1282
 5063TIP3    H136680   0.265   3.378  11.248 -0.1814 -0.1488 -1.1874
 5063TIP3    H236681   0.124   3.414  11.206 -0.6281  0.3032  0.6624
 5064TIP3   OH236682   1.627   4.962  13.181 -0.0931 -0.0057  0.0283
 5064TIP3    H136683   1.553   4.909  13.211  0.8924 -1.2689  0.2408
 5064TIP3    H236684   1.694   4.951  13.248  1.6233 -1.7783 -1.8904
 5065TIP3   OH236685   2.267   5.150  10.314 -0.0154 -0.3280  0.1840
 5065TIP3    H136686   2.197   5.114  10.370 -0.5067  0.4498  0.0703
 5065TIP3    H236687   2.283   5.081  10.250 -1.3940 -0.1030 -0.4198
 5066TIP3   OH236688   1.228   5.876  11.788 -0.1593 -0.1097  0.3615
 5066TIP3    H136689   1.138   5.883  11.756 -0.9872 -3.2098  1.8657
 5066TIP3    H236690   1.238   5.784  11.812  3.6412  0.0685 -0.3653
 5067TIP3   OH236691   5.239   3.702  13.137  0.5925 -0.8176  0.2243
 5067TIP3    H136692   5.302   3.632  13.154  0.4330 -1.0664 -0.2187
 5067TIP3    H236693   5.222   3.698  13.043  2.0082  1.0304 -0.1491
 5068TIP3   OH236694   0.916   5.860  12.314 -0.1481  0.4011 -0.1181
 5068TIP3    H136695   0.898   5.769  12.292  2.9155  0.0864 -1.6197
 5068TIP3    H236696   0.898   5.909  12.234  1.0019  0.6949 -0.2140
 5069TIP3   OH236697   0.435   5.688  14.563  0.3488 -0.7186  0.5335
 5069TIP3    H136698   0.529   5.706  14.556  0.6102 -1.2271  2.4639
 5069TIP3    H236699   0.398   5.765  14.607  0.2179 -1.4053  1.6583
 5070TIP3   OH236700   2.214   5.011  10.085 -0.0155 -0.4166 -0.1790
 5070TIP3    H136701   2.232   5.078  10.019  0.1970 -1.0342 -0.7556
 5070TIP3    H236702   2.120   4.996  10.079  0.3208 -1.9897 -1.8253
 5071TIP3   OH236703   2.161   2.699  13.647 -0.2220 -0.6999  0.3654
 5071TIP3    H136704   2.250   2.671  13.626  0.1412  0.6060  0.0872
 5071TIP3    H236705   2.109   2.675  13.570  0.5798  1.6402 -0.9385
 5072TIP3   OH236706   6.756   1.811   0.729 -0.4585 -0.8465  0.3841
 5072TIP3    H136707   6.762   1.779   0.819 -0.1242 -0.9485  0.3265
 5072TIP3    H236708   6.711   1.895   0.736 -1.6179 -1.4681  0.5054
 5073TIP3   OH236709   0.308   7.310  11.584 -0.0238 -0.0108 -0.0815
 5073TIP3    H136710   0.390   7.354  11.605  0.2067 -0.7655  0.6512
 5073TIP3    H236711   0.335   7.224  11.551 -0.4141  0.7685 -2.5442
 5074TIP3   OH236712   7.068   4.909  11.216  0.2963 -0.3724  0.4444
 5074TIP3    H136713   7.062   5.003  11.228  1.0307 -0.2048 -0.4453
 5074TIP3    H236714   6.986   4.884  11.174  0.3226 -0.0636  0.2176
 5075TIP3   OH236715   0.681   5.344  12.687 -0.2183 -0.5313  0.1396
 5075TIP3    H136716   0.716   5.429  12.660  1.0274 -1.0132  0.2091
 5075TIP3    H236717   0.720   5.329  12.773  1.3966 -2.1923 -0.8338
 5076TIP3   OH236718   1.931   5.913  14.573  0.0208 -0.1564  0.3148
 5076TIP3    H136719   1.873   5.843  14.605  0.5538 -0.7394  0.0133
 5076TIP3    H236720   2.019   5.882  14.594  0.3009  0.0313 -0.5970
 5077TIP3   OH236721   7.172   3.873  12.397 -0.3222  0.2525 -0.0828
 5077TIP3    H136722   7.253   3.890  12.445 -0.3138 -0.6537  0.2182
 5077TIP3    H236723   7.185   3.917  12.312  0.9317 -0.8376 -0.4724
 5078TIP3   OH236724   0.183   3.893  14.019  0.2122 -0.0593  0.4693
 5078TIP3    H136725   0.127   3.920  13.946  0.1901  1.0192  0.8833
 5078TIP3    H236726   0.136   3.820  14.059 -1.4962  1.6250  1.5560
 5079TIP3   OH236727   2.005   0.379  14.984  0.2889 -0.0873 -0.1405
 5079TIP3    H136728   2.038   0.339  14.904 -1.3127 -0.2275 -0.7599
 5079TIP3    H236729   2.023   0.315  15.053  0.0127 -0.7690 -0.7010
 5080TIP3   OH236730   0.701   1.709  12.143 -0.0424 -0.7054 -0.6737
 5080TIP3    H136731   0.765   1.649  12.181  1.2899  0.5291 -0.9528
 5080TIP3    H236732   0.617   1.680  12.179  0.8014 -1.5987  0.6165
 5081TIP3   OH236733   0.592   2.191  11.213  0.2440 -0.4485  0.2643
 5081TIP3    H136734   0.603   2.270  11.160 -2.7451 -0.1492 -0.0297
 5081TIP3    H236735   0.545   2.222  11.291  0.5565 -1.6432  0.9266
 5082TIP3   OH236736   2.505   5.079  12.042  0.2558  0.5140 -0.3274
 5082TIP3    H136737   2.538   5.140  11.975  2.3200 -1.8674 -1.5545
 5082TIP3    H236738   2.582   5.058  12.095 -1.0033  0.9883  1.7700
 5083TIP3   OH236739   5.053   3.177  13.750 -0.3705 -0.4454 -0.1752
 5083TIP3    H136740   5.030   3.270  13.750 -0.4980 -0.4761 -0.5634
 5083TIP3    H236741   4.977   3.133  13.712 -0.4646 -0.7492  0.3522
 5084TIP3   OH236742   6.847   3.637  11.220  0.5068 -0.3718  0.6128
 5084TIP3    H136743   6.804   3.708  11.173 -1.3861 -0.1716  2.5631
 5084TIP3    H236744   6.920   3.679  11.265  0.3441  0.0603  0.4825
 5085TIP3   OH236745   0.912   3.675  14.583  0.1691  0.4952  0.1006
 5085TIP3    H136746   0.831   3.698  14.628 -1.8197  0.2474 -3.1770
 5085TIP3    H236747   0.887   3.604  14.524  2.5446  1.1320 -1.7354
 5086TIP3   OH236748   0.367   4.072  12.132  0.9032  0.0367 -0.0247
 5086TIP3    H136749   0.342   3.982  12.150  0.5224 -0.0209 -0.8266
 5086TIP3    H236750   0.444   4.066  12.076  1.3182  0.2150  0.5196
 5087TIP3   OH236751   1.664   3.091  11.953 -0.1840  0.0927 -0.0583
 5087TIP3    H136752   1.700   3.162  11.901  0.0822  1.3630  1.8044
 5087TIP3    H236753   1.610   3.041  11.892 -0.6451  2.0714 -1.3068
 5088TIP3   OH236754   0.229   4.257  13.684  0.2168 -0.0673 -0.3291
 5088TIP3    H136755   0.233   4.249  13.779 -3.0850 -1.4233 -0.2490
 5088TIP3    H236756   0.269   4.177  13.651 -0.3918 -0.4807 -0.0594
 5089TIP3   OH236757   0.687   4.620  15.103  0.0100 -0.5981 -0.0032
 5089TIP3    H136758   0.781   4.630  15.110 -0.0097 -1.0002  0.8720
 5089TIP3    H236759   0.660   4.579  15.185 -0.9704 -0.1854 -0.1010
 5090TIP3   OH236760   7.151   2.824  11.805 -0.1319 -0.2886  0.0395
 5090TIP3    H136761   7.111   2.874  11.877 -1.2598  0.5052 -1.1210
 5090TIP3    H236762   7.080   2.813  11.741  0.2981 -2.7738 -0.0442
 5091TIP3   OH236763   1.335   4.373  10.598  0.0113 -0.0668 -0.5008
 5091TIP3    H136764   1.272   4.332  10.539 -0.1572 -1.1279  0.4143
 5091TIP3    H236765   1.338   4.465  10.570 -1.5920 -0.1091 -0.8367
 5092TIP3   OH236766   1.822   6.646  13.283  0.1898 -0.0877  0.7654
 5092TIP3    H136767   1.798   6.711  13.349  0.0120 -1.1269  1.7478
 5092TIP3    H236768   1.760   6.660  13.212 -1.2082 -0.5169  1.8561
 5093TIP3   OH236769   0.926   2.408  11.553 -0.0258  0.1854  0.1548
 5093TIP3    H136770   0.900   2.359  11.476  0.7401  0.6724 -0.4299
 5093TIP3    H236771   0.844   2.428  11.598 -0.2993 -2.2857  0.8320
 5094TIP3   OH236772   0.322   4.472  13.090  0.1542 -0.0620  0.5162
 5094TIP3    H136773   0.303   4.386  13.127 -0.6214 -0.2436 -0.3083
 5094TIP3    H236774   0.406   4.461  13.045 -0.4804 -0.6602 -0.5162
 5095TIP3   OH236775   0.292   4.649  12.744  0.5993 -0.4767  0.4746
 5095TIP3    H136776   0.251   4.734  12.730  0.2667 -0.4204  1.7604
 5095TIP3    H236777   0.336   4.657  12.829  2.3534 -0.8953 -0.3617
 5096TIP3   OH236778   1.689   4.243  12.249  0.4369  0.1702  0.0838
 5096TIP3    H136779   1.676   4.298  12.173 -1.0688  0.7947  0.7744
 5096TIP3    H236780   1.703   4.155  12.213  0.8489  0.6528 -0.9420
 5097TIP3   OH236781   5.184   6.379  14.051  0.1937  0.2642 -0.3131
 5097TIP3    H136782   5.125   6.403  14.123 -0.3995 -3.8611  0.7217
 5097TIP3    H236783   5.126   6.365  13.976 -0.1216 -2.6487  0.4037
 5098TIP3   OH236784   3.097   4.254  11.296 -0.1579 -0.0393 -0.0898
 5098TIP3    H136785   3.069   4.329  11.244 -1.1639 -2.1958 -2.7296
 5098TIP3    H236786   3.175   4.221  11.251 -1.1648 -2.0702 -0.3646
 5099TIP3   OH236787   2.394   3.959  12.254 -0.2695  0.0026  0.0806
 5099TIP3    H136788   2.473   3.928  12.210  0.3514 -0.9057  1.7623
 5099TIP3    H236789   2.324   3.904  12.219  0.2674 -0.9350  0.4632
 5100TIP3   OH236790   4.044   5.784  13.552 -0.1220 -0.4008 -0.0525
 5100TIP3    H136791   4.066   5.779  13.459 -1.5809 -2.1772 -0.3254
 5100TIP3    H236792   3.949   5.795  13.554  0.2085  2.6447  1.1904
 5101TIP3   OH236793   2.390   3.290  12.573  0.0280 -0.3345  0.2327
 5101TIP3    H136794   2.340   3.318  12.496 -0.0848  0.7292  0.7001
 5101TIP3    H236795   2.411   3.370  12.620 -0.2289 -1.0142  1.5326
 5102TIP3   OH236796   3.942   5.392  12.188 -0.4362 -0.1612 -0.8874
 5102TIP3    H136797   3.860   5.371  12.234  0.1608 -0.0563  0.2418
 5102TIP3    H236798   3.961   5.483  12.214 -0.0519 -0.1259 -1.2901
 5103TIP3   OH236799   1.638   3.274  11.149 -0.4369 -0.1548  0.1457
 5103TIP3    H136800   1.568   3.337  11.162  0.3539  0.7946 -0.1322
 5103TIP3    H236801   1.633   3.251  11.056 -0.9903 -0.8385  0.3355
 5104TIP3   OH236802   0.795   4.894  12.188 -0.3069 -0.0390  0.3618
 5104TIP3    H136803   0.760   4.982  12.202  0.5763  1.1169 -3.8501
 5104TIP3    H236804   0.870   4.888  12.246  0.9026  2.8665 -0.7914
 5105TIP3   OH236805   1.242   7.059  12.430  0.0870 -0.2086 -0.0075
 5105TIP3    H136806   1.235   7.153  12.445  0.9040 -0.1063 -0.2410
 5105TIP3    H236807   1.253   7.050  12.335 -0.2049 -0.5536 -0.0114
 5106TIP3   OH236808   5.747   4.888  11.528  0.1751  0.9122  0.0175
 5106TIP3    H136809   5.706   4.937  11.457  1.4479 -0.2675 -1.5415
 5106TIP3    H236810   5.823   4.941  11.552 -1.4161  2.4146  2.0145
 5107TIP3   OH236811   4.168   3.342  11.290 -0.0546 -0.5769  0.2819
 5107TIP3    H136812   4.189   3.264  11.342 -0.4857 -1.2991 -0.6059
 5107TIP3    H236813   4.116   3.309  11.217 -1.1722  0.7011  0.4752
 5108TIP3   OH236814   3.618   2.441  10.059 -0.1025 -0.3341  0.8261
 5108TIP3    H136815   3.673   2.473  10.130 -1.5540  2.6878  0.6480
 5108TIP3    H236816   3.528   2.452  10.091 -0.7113 -1.3468 -0.4787
 5109TIP3   OH236817   2.740   3.780  11.034 -0.8687 -0.2010 -0.3340
 5109TIP3    H136818   2.686   3.701  11.022  0.2069 -1.1376  0.7843
 5109TIP3    H236819   2.830   3.750  11.016 -0.7318  1.4182 -2.5405
 5110TIP3   OH236820   4.016   3.401  10.233  0.2180  0.6650 -0.3497
 5110TIP3    H136821   3.967   3.449  10.167 -0.4294 -0.0211 -0.3770
 5110TIP3    H236822   4.091   3.365  10.186 -1.1374 -1.2366 -1.1093
 5111TIP3   OH236823   1.638   5.274  13.692 -0.2296 -0.1446 -0.1392
 5111TIP3    H136824   1.635   5.240  13.603  0.1764 -0.9984  0.1741
 5111TIP3    H236825   1.714   5.333  13.693 -0.3423  0.0085 -0.3988
 5112TIP3   OH236826   2.823   4.722  11.482  1.1065 -0.5503  0.7248
 5112TIP3    H136827   2.838   4.799  11.427 -0.3290 -1.0671 -0.4421
 5112TIP3    H236828   2.754   4.749  11.543 -1.0330 -1.5808 -1.1737
 5113TIP3   OH236829   2.921   5.347  13.205 -0.0205 -0.3509 -0.2306
 5113TIP3    H136830   2.836   5.388  13.222 -0.4929 -0.4375 -2.3253
 5113TIP3    H236831   2.932   5.352  13.110  1.5005 -1.9372 -0.1553
 5114TIP3   OH236832   0.259   4.225  11.643  0.5760  0.0705 -0.0096
 5114TIP3    H136833   0.334   4.251  11.697  0.1613 -0.9890  1.0852
 5114TIP3    H236834   0.270   4.131  11.630  0.1052  0.1355 -0.9057
 5115TIP3   OH236835   2.853   5.738  10.323  0.1291 -0.1315  0.4264
 5115TIP3    H136836   2.879   5.657  10.367 -0.1976 -0.1988  0.5001
 5115TIP3    H236837   2.897   5.807  10.372 -0.6311 -0.1672  1.1789
 5116TIP3   OH236838   2.769   6.832  13.683  0.5385 -0.3396 -0.6345
 5116TIP3    H136839   2.704   6.762  13.684  0.2604 -0.0778 -0.0428
 5116TIP3    H236840   2.718   6.912  13.671  0.7819 -0.1640 -0.5119
 5117TIP3   OH236841   1.037   4.567  11.212 -0.2478  0.0031  0.7476
 5117TIP3    H136842   1.055   4.498  11.275 -1.6856 -2.0117 -1.0009
 5117TIP3    H236843   0.942   4.580  11.216 -0.2824  0.2770 -0.5508
 5118TIP3   OH236844   2.595   6.306  12.475  0.5469 -0.0002 -0.7539
 5118TIP3    H136845   2.578   6.325  12.567 -2.9169  2.2636 -1.7742
 5118TIP3    H236846   2.551   6.222  12.460 -0.2875  0.4191 -0.7049
 5119TIP3   OH236847   5.581   5.027  12.836  0.3391 -0.7406  0.3512
 5119TIP3    H136848   5.549   5.045  12.747  0.1232  0.0507  0.5815
 5119TIP3    H236849   5.506   4.990  12.882  0.1198 -0.1023  0.5182
 5120TIP3   OH236850   1.805   4.705   9.792 -0.1135  0.2203 -0.0292
 5120TIP3    H136851   1.805   4.697   9.888  0.6788  2.2956  0.1662
 5120TIP3    H236852   1.726   4.755   9.772  0.8695  1.7232 -0.2497
 5121TIP3   OH236853   1.224   5.513  10.119  0.4032 -0.3286 -0.4724
 5121TIP3    H136854   1.294   5.578  10.114 -0.0367  0.0553 -1.7594
 5121TIP3    H236855   1.153   5.557  10.165  0.7406 -0.4972  0.2285
 5122TIP3   OH236856   4.224   6.314  14.078  0.0455 -0.4392  0.0844
 5122TIP3    H136857   4.161   6.267  14.132  0.3405  0.5935  1.3570
 5122TIP3    H236858   4.186   6.311  13.990 -0.4590 -2.0989  0.3463
 5123TIP3   OH236859   1.481   4.777  13.311  0.7277  0.0383  1.1099
 5123TIP3    H136860   1.442   4.831  13.380  0.1006  1.3211 -0.2086
 5123TIP3    H236861   1.406   4.751  13.257  1.4149  0.4738 -0.0571
 5124TIP3   OH236862   3.059   5.870  11.348 -0.7917  0.3619  0.2942
 5124TIP3    H136863   3.132   5.894  11.291  0.4748 -1.2773  1.1980
 5124TIP3    H236864   2.986   5.922  11.315  0.0422 -0.1121 -2.4800
 5125TIP3   OH236865   2.066   5.202  14.324  0.3899  0.5049 -0.1215
 5125TIP3    H136866   2.118   5.128  14.294 -0.5053 -0.6570  1.1065
 5125TIP3    H236867   1.979   5.164  14.340  0.0772  1.7018  1.0580
 5126TIP3   OH236868   2.721   5.955  14.226  0.0753 -0.6522 -0.0043
 5126TIP3    H136869   2.764   6.039  14.208  0.0251 -0.5058  0.5421
 5126TIP3    H236870   2.790   5.890  14.218  0.6075 -0.3240  1.7778
 5127TIP3   OH236871   3.430   4.464  12.062 -0.3754 -0.4466 -0.3111
 5127TIP3    H136872   3.366   4.394  12.073 -0.6549 -0.4459 -1.7971
 5127TIP3    H236873   3.502   4.423  12.014 -0.6598  0.3429 -1.4274
 5128TIP3   OH236874   4.914   4.690  11.494  0.4771 -0.2370 -0.1075
 5128TIP3    H136875   4.950   4.778  11.478 -0.6043  0.5463  1.6167
 5128TIP3    H236876   4.918   4.679  11.589  2.0482 -2.7164 -0.4176
 5129TIP3   OH236877   5.853   5.482  13.945  0.1214  0.1107 -0.3121
 5129TIP3    H136878   5.888   5.400  13.911 -2.2304 -0.8961 -0.3617
 5129TIP3    H236879   5.770   5.493  13.900  0.0758  2.1700  0.2322
 5130TIP3   OH236880   3.723   0.351  10.651 -0.7249 -0.8622 -0.7673
 5130TIP3    H136881   3.740   0.352  10.557 -0.7491  1.2373 -0.7757
 5130TIP3    H236882   3.791   0.407  10.689 -1.4264 -0.7235  0.3269
 5131TIP3   OH236883   2.849   4.147  13.056  0.4097  0.5486 -0.1801
 5131TIP3    H136884   2.772   4.167  13.003  1.0088  0.4723 -1.0981
 5131TIP3    H236885   2.837   4.197  13.136 -0.5017  0.6891 -0.3959
 5132TIP3   OH236886   3.002   3.646  11.022  0.1515 -0.3834 -0.7857
 5132TIP3    H136887   2.947   3.609  11.091 -0.4985  0.5228 -0.8102
 5132TIP3    H236888   3.022   3.572  10.964  0.3666 -1.0608  0.1498
 5133TIP3   OH236889   4.182   4.965  10.590 -0.2697 -0.3367 -0.2629
 5133TIP3    H136890   4.232   4.909  10.649 -1.1725  0.6782  1.5167
 5133TIP3    H236891   4.240   5.038  10.571 -0.1793 -0.3777 -0.1523
 5134TIP3   OH236892   2.861   3.519  12.360  0.3070 -0.5103  0.1414
 5134TIP3    H136893   2.846   3.447  12.299  0.0267 -1.3373  1.1629
 5134TIP3    H236894   2.949   3.505  12.394  1.0212  0.7482 -1.0931
 5135TIP3   OH236895   4.122   5.916  12.116 -0.3548 -0.0128  0.0693
 5135TIP3    H136896   4.120   5.996  12.168 -1.9886 -0.6454  1.0328
 5135TIP3    H236897   4.201   5.870  12.145 -1.1644 -0.2933  1.9431
 5136TIP3   OH236898   4.424   4.604  11.507  0.4759 -0.4192  0.4093
 5136TIP3    H136899   4.329   4.600  11.499  0.6120 -0.2259 -1.5457
 5136TIP3    H236900   4.446   4.533  11.567 -0.9730  0.2046  1.7104
 5137TIP3   OH236901   3.373   4.962  10.529  0.1130  0.3823  0.7006
 5137TIP3    H136902   3.416   4.886  10.490  1.3681  1.2003  0.4364
 5137TIP3    H236903   3.280   4.941  10.527  0.4495 -1.1734  0.7101
 5138TIP3   OH236904   2.783   5.850  12.015  0.3502 -0.2436  0.0157
 5138TIP3    H136905   2.768   5.940  12.044  4.0607  0.4207  0.1389
 5138TIP3    H236906   2.768   5.853  11.920 -2.4181 -0.2332  0.4062
 5139TIP3   OH236907   1.940   4.443  11.286  0.1980 -0.2611  0.1937
 5139TIP3    H136908   1.899   4.407  11.208  1.3486 -1.0489 -0.0663
 5139TIP3    H236909   2.001   4.509  11.254  2.4089 -2.2121  0.1912
 5140TIP3   OH236910   2.549   5.591  13.158 -0.0770 -0.1560  0.0921
 5140TIP3    H136911   2.568   5.500  13.135 -2.5620 -0.9319  1.0101
 5140TIP3    H236912   2.629   5.622  13.200  0.5574 -2.1269  0.3698
 5141TIP3   OH236913   3.864   2.270  13.220  0.6115 -1.0819  0.2932
 5141TIP3    H136914   3.777   2.230  13.230  0.3677 -1.0401 -1.4956
 5141TIP3    H236915   3.912   2.209  13.164  0.8586  0.1822 -0.9032
 5142TIP3   OH236916   1.232   4.514  11.685  0.1801  0.2895 -0.1876
 5142TIP3    H136917   1.139   4.521  11.666  0.2397 -0.3201 -0.7338
 5142TIP3    H236918   1.273   4.493  11.600  0.8918  1.2245 -0.0858
 5143TIP3   OH236919   2.515   0.136  12.710 -0.6728 -0.4303 -0.8036
 5143TIP3    H136920   2.517   0.229  12.689  1.0575 -0.8034 -2.4294
 5143TIP3    H236921   2.497   0.133  12.804 -0.6370  1.5360 -0.7128
 5144TIP3   OH236922   2.587   5.504  12.125 -0.2602 -0.0349 -0.5172
 5144TIP3    H136923   2.580   5.596  12.151 -0.2949  0.0405 -0.7925
 5144TIP3    H236924   2.676   5.495  12.091 -0.5506  0.1108 -1.3212
 5145TIP3   OH236925   2.516   3.525  11.701  0.0682 -0.1245  0.1489
 5145TIP3    H136926   2.518   3.451  11.640  1.9930  0.2673 -0.2781
 5145TIP3    H236927   2.524   3.602  11.645 -2.9373  0.5215  0.4934
 5146TIP3   OH236928   3.721   4.816  11.299  0.1547  0.4908  0.3410
 5146TIP3    H136929   3.794   4.872  11.327  0.6070 -0.5086  1.1832
 5146TIP3    H236930   3.658   4.820  11.371  0.4634 -0.5702  0.6758
 5147TIP3   OH236931   5.809   6.064  12.802 -0.3399  0.2678  0.4283
 5147TIP3    H136932   5.795   5.979  12.842 -0.3085  0.1705  0.2318
 5147TIP3    H236933   5.795   6.050  12.709 -1.1902  0.6666  0.4884
 5148TIP3   OH236934   5.927   3.426  10.187 -0.2598 -0.3562 -0.1467
 5148TIP3    H136935   5.951   3.511  10.151 -1.1356  0.0575  0.2444
 5148TIP3    H236936   5.947   3.364  10.117  0.5954  0.1360 -0.3463
 5149TIP3   OH236937   5.654   5.887  13.460  0.0672 -0.3281 -0.1855
 5149TIP3    H136938   5.645   5.959  13.522 -2.9566 -0.4304 -0.4116
 5149TIP3    H236939   5.623   5.923  13.377 -1.4991 -1.8443 -0.2929
 5150TIP3   OH236940   3.032   6.041  12.182 -0.0556  0.3834 -0.3821
 5150TIP3    H136941   2.961   6.085  12.230 -1.0484 -0.6974 -0.8324
 5150TIP3    H236942   3.085   6.113  12.148 -0.1291  1.1933  1.1367
 5151TIP3   OH236943   5.343   0.583  12.580  0.1761  0.3382  0.1238
 5151TIP3    H136944   5.333   0.494  12.612 -1.8007  0.3047 -0.5080
 5151TIP3    H236945   5.354   0.636  12.659 -0.9453 -0.2055  0.6672
 5152TIP3   OH236946   4.010   5.404  13.412 -0.0488  0.2265 -0.1930
 5152TIP3    H136947   3.999   5.484  13.462 -0.3816  0.5424 -0.7724
 5152TIP3    H236948   3.922   5.367  13.405 -0.2611  0.9908 -1.8791
 5153TIP3   OH236949   1.106   4.979  13.111  0.3493 -0.2089 -0.6278
 5153TIP3    H136950   1.100   5.005  13.020  0.4165  0.8343 -0.3428
 5153TIP3    H236951   1.137   4.889  13.109  0.9569  0.0236 -1.6154
 5154TIP3   OH236952   2.451   4.168  11.371 -0.3195  0.0703  0.1942
 5154TIP3    H136953   2.386   4.099  11.364  1.7544 -2.2417  2.8921
 5154TIP3    H236954   2.501   4.163  11.289 -2.2735  0.6244 -1.0610
 5155TIP3   OH236955   3.461   6.027  12.625  0.5839 -0.1816 -0.2680
 5155TIP3    H136956   3.531   6.070  12.674 -0.2046 -1.2059  1.8390
 5155TIP3    H236957   3.476   6.052  12.534  2.5901  1.1043  0.3855
 5156TIP3   OH236958   3.749   5.151  12.426 -0.2286 -0.0790 -0.4141
 5156TIP3    H136959   3.737   5.235  12.382  0.0872  0.4645  0.5343
 5156TIP3    H236960   3.661   5.117  12.437 -0.3983  0.4074 -0.2610
 5157TIP3   OH236961   4.783   4.817  10.585  0.0835 -0.1410 -0.1457
 5157TIP3    H136962   4.861   4.766  10.563 -1.2281 -2.3978  0.3027
 5157TIP3    H236963   4.756   4.856  10.502 -1.6150 -4.0667 -1.5412
 5158TIP3   OH236964   3.508   3.927  14.430  0.1536  0.0405 -0.4625
 5158TIP3    H136965   3.578   3.986  14.459  0.5713 -1.0222  0.7303
 5158TIP3    H236966   3.428   3.965  14.466  0.0227  1.5663 -2.2911
 5159TIP3   OH236967   4.691   5.586  11.819  0.2856  0.7362  0.2751
 5159TIP3    H136968   4.606   5.542  11.810  1.3223 -1.0705 -0.8658
 5159TIP3    H236969   4.671   5.665  11.870 -2.1817  0.6554 -0.4798
 5160TIP3   OH236970   3.528   4.275  12.407  0.2714  0.0996 -0.3813
 5160TIP3    H136971   3.597   4.311  12.463  0.8322 -1.2984 -0.1431
 5160TIP3    H236972   3.540   4.180  12.414 -1.9520 -0.1725 -0.0053
 5161TIP3   OH236973   3.398   4.241  11.314  0.3827 -0.0682 -0.3933
 5161TIP3    H136974   3.416   4.332  11.289 -1.8905 -0.0387 -2.0888
 5161TIP3    H236975   3.470   4.218  11.372  1.8119  2.3301 -1.1197
 5162TIP3   OH236976   5.759   4.300  14.926  0.5688 -0.2521  0.5813
 5162TIP3    H136977   5.683   4.257  14.964 -0.2966  0.7302 -0.0177
 5162TIP3    H236978   5.833   4.246  14.954 -0.2274 -0.6140  2.0469
 5163TIP3   OH236979   3.434   4.563  10.687 -0.2299 -0.1680  0.0263
 5163TIP3    H136980   3.522   4.563  10.723  1.2391 -0.4783 -3.3870
 5163TIP3    H236981   3.398   4.477  10.712  1.2862 -0.9607 -0.4495
 5164TIP3   OH236982   3.247   5.636  11.874  0.1846  0.6915 -0.2845
 5164TIP3    H136983   3.205   5.567  11.822  2.6823  0.0485 -1.5288
 5164TIP3    H236984   3.203   5.716  11.847 -0.9845 -0.0839 -0.7411
 5165TIP3   OH236985   2.270   5.809  11.466  0.0725 -0.2440  0.1518
 5165TIP3    H136986   2.320   5.887  11.441  1.7759 -1.7942 -1.4436
 5165TIP3    H236987   2.318   5.774  11.542 -0.0852 -0.3137  0.2193
 5166TIP3   OH236988   2.793   5.115  12.567 -0.2269  0.1631 -0.5099
 5166TIP3    H136989   2.704   5.080  12.564 -0.7616  1.3659  0.5356
 5166TIP3    H236990   2.798   5.173  12.491 -1.0005  1.5325  0.4384
 5167TIP3   OH236991   2.187   4.556  12.622 -0.1335 -0.3083  0.3228
 5167TIP3    H136992   2.213   4.528  12.534  2.9676 -2.0989  1.7250
 5167TIP3    H236993   2.209   4.481  12.678  1.3327  2.1446  3.1400
 5168TIP3   OH236994   3.818   6.500  14.132  0.3018 -0.1785  0.6844
 5168TIP3    H136995   3.748   6.437  14.143 -1.7861  2.1866  1.4702
 5168TIP3    H236996   3.832   6.505  14.038 -0.3317 -0.9430  0.5509
 5169TIP3   OH236997   3.634   3.352  12.932 -0.2076  0.3124  0.5035
 5169TIP3    H136998   3.699   3.296  12.889 -0.5178  0.6598 -0.4424
 5169TIP3    H236999   3.681   3.391  13.006  0.4358 -0.0590  0.2992
 5170TIP3   OH237000   1.314   5.464  12.361  0.0807  0.3631  0.9357
 5170TIP3    H137001   1.376   5.479  12.288  1.8884 -0.5175  2.2547
 5170TIP3    H237002   1.334   5.376  12.391 -1.9625  0.0179  1.2922
 5171TIP3   OH237003   2.453   3.329  10.488  0.1953  0.7258 -0.4018
 5171TIP3    H137004   2.374   3.353  10.536 -0.4488 -1.7105 -0.1974
 5171TIP3    H237005   2.472   3.406  10.434 -2.0404  1.5243 -0.1147
 5172TIP3   OH237006   2.234   3.723  12.139  0.2629  0.1500  0.2442
 5172TIP3    H137007   2.158   3.733  12.196 -0.7002 -0.4300 -0.9068
 5172TIP3    H237008   2.202   3.745  12.051  1.3763 -0.2655 -0.2824
 5173TIP3   OH237009   4.184   3.450  13.593  0.5165 -0.0612  0.2349
 5173TIP3    H137010   4.240   3.418  13.663 -0.6722  0.1572  1.3149
 5173TIP3    H237011   4.239   3.511  13.544  0.6820  1.6304  2.4349
 5174TIP3   OH237012   4.048   5.568  13.119  0.1864  0.0422 -0.1735
 5174TIP3    H137013   3.978   5.504  13.132  0.5306 -0.2331  0.3125
 5174TIP3    H237014   4.026   5.609  13.035 -0.3907 -0.2536 -0.1766
 5175TIP3   OH237015   1.850   5.425  13.930  0.0455  0.2552  0.0423
 5175TIP3    H137016   1.923   5.425  13.992  0.7561 -0.1987 -0.7771
 5175TIP3    H237017   1.777   5.386  13.978 -0.6625  3.7950  1.9833
 5176TIP3   OH237018   4.585   4.122  14.027  0.2259 -0.0826  0.0365
 5176TIP3    H137019   4.495   4.153  14.038  0.0791 -0.8122  0.9758
 5176TIP3    H237020   4.613   4.158  13.943 -0.3117  1.6597  0.5875
 5177TIP3   OH237021   1.320   3.016  13.749 -0.0797 -0.0928  0.1230
 5177TIP3    H137022   1.344   3.071  13.675  0.1097  0.7149  0.7798
 5177TIP3    H237023   1.233   3.047  13.775 -0.5447 -0.9926 -0.3426
 5178TIP3   OH237024   3.338   4.212  12.189  0.7819  0.1579 -0.0029
 5178TIP3    H137025   3.399   4.172  12.251 -0.4180 -1.0680  0.4315
 5178TIP3    H237026   3.253   4.175  12.213  0.1424  0.4560 -1.7481
 5179TIP3   OH237027   1.987   6.254  12.986  0.5904  0.1469  0.1359
 5179TIP3    H137028   2.063   6.200  13.010 -0.3746 -1.0200  0.5999
 5179TIP3    H237029   1.925   6.241  13.058 -0.7588 -0.2878 -1.0992
 5180TIP3   OH237030   6.530   5.977  12.928  0.2230  0.1097 -0.3952
 5180TIP3    H137031   6.514   5.991  12.835  0.3105 -1.6769 -0.6992
 5180TIP3    H237032   6.600   6.038  12.950 -0.5467  1.3341 -1.2224
 5181TIP3   OH237033   5.022   4.040  12.652  0.6661 -0.0808 -0.0285
 5181TIP3    H137034   4.995   4.099  12.581 -0.7861 -0.8880 -0.1625
 5181TIP3    H237035   5.099   4.082  12.690 -1.2261  2.7339  0.8684
 5182TIP3   OH237036   1.690   4.690  13.501  0.4044 -0.2735  0.2768
 5182TIP3    H137037   1.739   4.772  13.503  0.7926 -0.5023  0.2018
 5182TIP3    H237038   1.618   4.707  13.440  0.0238  0.2659  0.8804
 5183TIP3   OH237039   5.297   3.447  12.319 -0.6870 -0.6703  1.1671
 5183TIP3    H137040   5.242   3.523  12.337  0.2974 -0.1161  1.9339
 5183TIP3    H237041   5.363   3.479  12.258  0.1785 -0.6948  2.0632
 5184TIP3   OH237042   2.636   4.444  12.773 -0.4945  0.7443  0.6489
 5184TIP3    H137043   2.670   4.515  12.719 -1.6048  0.7098 -0.1108
 5184TIP3    H237044   2.592   4.488  12.846 -0.4360  0.8196  0.6388
 5185TIP3   OH237045   2.715   4.348  11.622  0.0250  0.1688 -0.6663
 5185TIP3    H137046   2.746   4.393  11.701 -1.0769  0.0260 -0.1360
 5185TIP3    H237047   2.620   4.364  11.622 -0.1497 -0.8766 -1.2904
 5186TIP3   OH237048   2.881   3.674  12.785  0.0358  0.1587  0.3832
 5186TIP3    H137049   2.816   3.621  12.739  1.6929 -0.4841 -1.2632
 5186TIP3    H237050   2.965   3.643  12.753  1.2148  0.6124  2.8884
 5187TIP3   OH237051   5.404   3.172  13.918  0.2551  0.0277  0.2689
 5187TIP3    H137052   5.386   3.158  14.011  0.9247 -0.1570  0.3749
 5187TIP3    H237053   5.478   3.114  13.899  1.0659  1.1473 -0.0324
 5188TIP3   OH237054   4.530   5.125  10.936  0.2415 -0.4323 -0.1434
 5188TIP3    H137055   4.475   5.201  10.919  0.2686 -0.1387  1.0196
 5188TIP3    H237056   4.472   5.050  10.924 -0.1355 -0.1663 -0.0027
 5189TIP3   OH237057   3.474   5.218  10.489 -0.6809  0.5428  0.4270
 5189TIP3    H137058   3.458   5.243  10.398  0.0883  1.9064  0.6540
 5189TIP3    H237059   3.406   5.153  10.508  0.9971 -2.0568 -2.0519
 5190TIP3   OH237060   2.465   6.860  11.595 -0.3196 -0.3941 -0.1568
 5190TIP3    H137061   2.422   6.776  11.581 -1.1024 -0.3473  1.7583
 5190TIP3    H237062   2.531   6.842  11.663  0.8804  0.1076 -1.1782
 5191TIP3   OH237063   3.317   2.971  11.564 -0.2465 -0.4810 -0.1160
 5191TIP3    H137064   3.249   3.018  11.611 -0.8328 -1.6017  0.1894
 5191TIP3    H237065   3.270   2.917  11.500  0.4648  0.0669 -1.1268
 5192TIP3   OH237066   2.054   5.278  11.028  0.3789 -0.2195 -0.2641
 5192TIP3    H137067   1.985   5.222  10.992 -0.3766  0.0108  0.7950
 5192TIP3    H237068   2.099   5.221  11.091 -0.1197  0.2166  0.5006
 5193TIP3   OH237069   1.121   6.225  11.681  0.0051 -0.2332 -0.4081
 5193TIP3    H137070   1.142   6.195  11.592  0.4172 -0.0491 -0.3772
 5193TIP3    H237071   1.184   6.179  11.737 -1.2371 -1.5001 -0.0345
 5194TIP3   OH237072   2.537   5.880  10.790 -0.1624 -0.1429  0.2988
 5194TIP3    H137073   2.564   5.826  10.864  0.4271 -0.0999  0.1121
 5194TIP3    H237074   2.521   5.967  10.828  0.4418 -0.0408  0.3252
 5195TIP3   OH237075   2.835   4.257  10.862  0.4611 -0.1300 -0.3017
 5195TIP3    H137076   2.891   4.222  10.793  0.2212 -0.4440 -0.3390
 5195TIP3    H237077   2.847   4.352  10.857  2.6216 -0.2954  1.0840
 5196TIP3   OH237078   2.313   6.266  12.807 -0.4273  0.4310 -1.1165
 5196TIP3    H137079   2.267   6.322  12.869  0.6193 -1.3066  1.3446
 5196TIP3    H237080   2.377   6.324  12.765  0.2387  1.2598  0.9469
 5197TIP3   OH237081   3.757   6.009  12.857 -0.0001  0.1390  0.2128
 5197TIP3    H137082   3.782   6.074  12.791 -1.2346 -1.1285 -1.5228
 5197TIP3    H237083   3.775   6.052  12.940 -0.9766  2.7906 -0.8967
 5198TIP3   OH237084   3.409   2.666  11.284  0.2587  0.1431 -0.6911
 5198TIP3    H137085   3.470   2.691  11.352  2.0116 -0.4055 -2.0305
 5198TIP3    H237086   3.463   2.651  11.207 -1.6217  0.2715 -2.0853
 5199TIP3   OH237087   5.083   3.848  13.301  0.3930 -0.6525 -0.5166
 5199TIP3    H137088   5.137   3.797  13.240  0.9374 -1.6477  0.7723
 5199TIP3    H237089   5.123   3.935  13.302  0.9793 -0.9189 -0.7960
 5200TIP3   OH237090   4.725   0.064  14.663  0.3735 -0.4139 -0.1454
 5200TIP3    H137091   4.743   0.015  14.744  0.1948  0.0048  0.1508
 5200TIP3    H237092   4.768   0.148  14.677 -0.4848  0.0225 -0.0794
 5201TIP3   OH237093   3.870   4.314  10.613  0.2192 -0.4876  0.5421
 5201TIP3    H137094   3.786   4.271  10.632 -0.2218 -0.5235 -1.3836
 5201TIP3    H237095   3.845   4.401  10.579  0.9970 -0.0918  0.9739
 5202TIP3   OH237096   3.029   3.690  12.095 -0.4677  0.0300 -1.1027
 5202TIP3    H137097   3.076   3.609  12.073 -1.1669 -1.0054  1.0182
 5202TIP3    H237098   2.948   3.685  12.046 -0.9867 -1.1026 -0.1570
 5203TIP3   OH237099   4.030   3.560  13.374  0.1942 -0.3972  0.2310
 5203TIP3    H137100   4.096   3.524  13.433  0.3898  0.4465  0.5304
 5203TIP3    H237101   3.959   3.587  13.432 -0.7692 -2.0116 -0.1455
 5204TIP3   OH237102   3.334   4.619  12.279  0.2746 -0.6043 -0.1259
 5204TIP3    H137103   3.409   4.664  12.317  0.4547 -0.8711 -0.1630
 5204TIP3    H237104   3.372   4.557  12.217 -0.0347  0.0353 -0.9624
 5205TIP3   OH237105   5.127   4.550  12.135  0.8659 -0.7633  1.3354
 5205TIP3    H137106   5.095   4.494  12.065 -0.0162 -0.6521  1.6493
 5205TIP3    H237107   5.080   4.633  12.123  1.6191 -0.3266  1.3178
 5206TIP3   OH237108   1.229   6.542  10.873  0.3855  0.2633 -0.2236
 5206TIP3    H137109   1.135   6.559  10.869  0.8598  2.9036 -1.0394
 5206TIP3    H237110   1.247   6.488  10.796 -0.4513 -0.1731 -0.1146
 5207TIP3   OH237111   0.859   3.946  10.461 -0.1301 -0.0161  0.1808
 5207TIP3    H137112   0.769   3.937  10.492  0.2657 -1.1878  1.0471
 5207TIP3    H237113   0.912   3.940  10.541  0.6763  1.2620 -0.2559
 5208TIP3   OH237114   3.699   4.746  12.143  0.9102  0.1136 -0.1187
 5208TIP3    H137115   3.729   4.830  12.110  1.6544 -0.9717 -2.3640
 5208TIP3    H237116   3.639   4.714  12.076  3.6034 -2.8412 -1.2757
 5209TIP3   OH237117   2.601   4.119   9.899  0.3993  0.5531  0.1749
 5209TIP3    H137118   2.686   4.164   9.906  0.1795  0.5315  3.5093
 5209TIP3    H237119   2.604   4.051   9.966 -1.9437  0.0084 -0.2372
 5210TIP3   OH237120   2.590   5.979  13.479 -0.1235 -0.3194 -0.0330
 5210TIP3    H137121   2.530   6.049  13.453 -0.9014 -0.8729  0.2172
 5210TIP3    H237122   2.536   5.900  13.476  0.6222 -0.8383  0.1282
 5211TIP3   OH237123   4.983   4.720  11.802  1.0494 -0.0152 -0.0654
 5211TIP3    H137124   5.014   4.803  11.765  2.4515 -0.3592  0.3355
 5211TIP3    H237125   4.895   4.741  11.835  0.6525  0.8480 -1.5856
 5212TIP3   OH237126   2.193   4.421  12.957  0.1794  0.3609 -0.1483
 5212TIP3    H137127   2.215   4.388  13.044  0.0725  2.0133  0.5204
 5212TIP3    H237128   2.104   4.455  12.966 -0.2153 -0.3766 -1.1715
 5213TIP3   OH237129   3.085   4.585  13.868 -0.1683  0.0302 -0.4396
 5213TIP3    H137130   3.174   4.594  13.902 -0.0871  1.8422 -1.0738
 5213TIP3    H237131   3.082   4.645  13.793 -2.4674  1.3998  0.6964
 5214TIP3   OH237132   2.184   4.406  11.795  0.0433 -0.0778  0.3613
 5214TIP3    H137133   2.097   4.428  11.763  0.5034  0.6466 -0.4058
 5214TIP3    H237134   2.169   4.338  11.861 -1.1389  0.4542  0.6482
 5215TIP3   OH237135   2.795   3.924  12.349 -0.5766 -0.1085  0.1570
 5215TIP3    H137136   2.798   3.945  12.255 -1.2808  1.3818  0.4517
 5215TIP3    H237137   2.715   3.873  12.359 -0.3319 -0.5518 -0.0976
 5216TIP3   OH237138   5.510   3.993  12.946  0.8940 -0.3677  0.4236
 5216TIP3    H137139   5.537   4.080  12.915  1.9116  0.5724  3.7042
 5216TIP3    H237140   5.415   4.001  12.956  1.0635  0.6648  1.4255
 5217TIP3   OH237141   2.066   3.899  12.631  0.7470  0.4739  0.5486
 5217TIP3    H137142   2.023   3.859  12.555  1.1253  0.4347  0.3504
 5217TIP3    H237143   2.156   3.915  12.601  0.8306  0.6790  0.9109
 5218TIP3   OH237144   3.438   5.644  14.368 -0.4088 -0.1387  0.0399
 5218TIP3    H137145   3.437   5.563  14.317 -0.6564 -0.4677  0.5680
 5218TIP3    H237146   3.406   5.618  14.454  0.7034  0.2717  0.5862
 5219TIP3   OH237147   4.450   4.284  14.693  0.5103  0.2917  0.2947
 5219TIP3    H137148   4.524   4.225  14.707 -0.2159 -0.5376  0.6836
 5219TIP3    H237149   4.445   4.294  14.598  0.9126  0.0716  0.2502
 5220TIP3   OH237150   5.124   5.853  13.570 -0.4320 -0.2087 -0.1482
 5220TIP3    H137151   5.063   5.846  13.643  0.0616  0.6600  0.3465
 5220TIP3    H237152   5.200   5.801  13.597 -0.8226 -1.0314 -0.6320
 5221TIP3   OH237153   3.465   4.013  12.410  0.3947  0.1001 -0.2345
 5221TIP3    H137154   3.380   3.986  12.373 -0.2738  0.5856  0.9275
 5221TIP3    H237155   3.486   3.944  12.474  0.0284  0.8715  0.7312
 5222TIP3   OH237156   1.395   6.473  11.516  0.2364 -0.3174  0.2348
 5222TIP3    H137157   1.478   6.474  11.468 -0.6366  1.2328 -1.3353
 5222TIP3    H237158   1.402   6.400  11.576  1.8973 -1.5642 -1.4267
 5223TIP3   OH237159   6.920   3.791  13.179 -0.0442 -0.8734  0.2109
 5223TIP3    H137160   6.957   3.808  13.092  1.2894 -1.9322  0.5581
 5223TIP3    H237161   6.955   3.861  13.234  0.4695 -1.1809  0.2728
 5224TIP3   OH237162   1.690   4.504  11.654  0.3302 -0.0555 -0.2321
 5224TIP3    H137163   1.712   4.543  11.570  0.3155 -1.4707 -0.8937
 5224TIP3    H237164   1.659   4.416  11.634  0.4646 -0.4692  1.2589
 5225TIP3   OH237165   3.992   1.762  12.191 -0.5450  0.1098  0.0564
 5225TIP3    H137166   4.009   1.730  12.102 -1.0558 -0.9458  0.3298
 5225TIP3    H237167   3.899   1.783  12.191 -0.9764 -1.7331  0.8978
 5226TIP3   OH237168   4.768   5.229  14.123 -0.0714  0.1757  0.3998
 5226TIP3    H137169   4.741   5.309  14.169 -2.8105 -0.9459  0.8235
 5226TIP3    H237170   4.821   5.181  14.187 -1.1325  0.1483  1.2604
 5227TIP3   OH237171   4.092   0.071  13.242  0.8196  0.4645  0.4494
 5227TIP3    H137172   4.167   0.019  13.215  0.7380  1.5064 -1.9535
 5227TIP3    H237173   4.130   0.149  13.282  1.0047  0.3978  0.4030
 5228TIP3   OH237174   2.441   6.688  12.063 -0.0552  0.8198 -0.2883
 5228TIP3    H137175   2.530   6.698  12.028  0.3980 -0.9375  0.2890
 5228TIP3    H237176   2.449   6.710  12.155  0.8222 -3.6731  0.8481
 5229TIP3   OH237177   0.343   6.360  11.610  0.0412  0.5468  0.2260
 5229TIP3    H137178   0.312   6.379  11.699  0.0830  2.3777 -0.1345
 5229TIP3    H237179   0.431   6.398  11.607 -0.7579  2.3346 -1.2384
 5230TIP3   OH237180   3.654   6.942   0.291  0.4774 -0.0199  0.7363
 5230TIP3    H137181   3.579   6.914   0.344  0.3256  0.2141  0.6462
 5230TIP3    H237182   3.720   6.874   0.305 -0.1845 -0.8535 -0.1447
 5231TIP3   OH237183   5.006   4.197  10.249  0.1937  0.1131  0.0146
 5231TIP3    H137184   4.986   4.283  10.286  0.4810  0.1119  0.1709
 5231TIP3    H237185   5.098   4.202  10.224  0.7387 -0.7768  1.7609
 5232TIP3   OH237186   3.369   5.028  11.934  0.0665 -0.6806 -0.1019
 5232TIP3    H137187   3.355   4.963  12.003 -0.8156 -0.4247 -0.0309
 5232TIP3    H237188   3.282   5.064  11.917  0.3031 -0.6382 -1.2591
 5233TIP3   OH237189   1.156   3.682  14.665 -0.7183 -0.4580 -0.1142
 5233TIP3    H137190   1.061   3.690  14.670 -0.8947 -2.2523 -0.2557
 5233TIP3    H237191   1.187   3.770  14.645 -2.1577  0.6599  2.4281
 5234TIP3   OH237192   4.401   4.633  11.939  0.4290  0.2480  0.3275
 5234TIP3    H137193   4.405   4.538  11.924 -0.4512  0.3911 -0.8326
 5234TIP3    H237194   4.354   4.642  12.022 -1.4295 -0.2643 -0.6338
 5235TIP3   OH237195   3.222   4.322  10.823 -0.2752  0.3043  0.4032
 5235TIP3    H137196   3.218   4.378  10.901 -0.5106 -0.4340  0.9331
 5235TIP3    H237197   3.173   4.370  10.756 -0.5479  0.6907  0.8749
 5236TIP3   OH237198   1.952   3.964  13.298  0.4780  0.1471  0.7620
 5236TIP3    H137199   1.939   3.983  13.391  2.4376 -0.5108  1.2105
 5236TIP3    H237200   2.040   3.997  13.280 -1.0282  3.0369 -1.6457
 5237TIP3   OH237201   0.187   5.830  13.225 -0.4461  0.1793 -0.2506
 5237TIP3    H137202   0.092   5.821  13.234 -0.6552  1.7701 -0.7413
 5237TIP3    H237203   0.200   5.915  13.182  1.2341  0.4072  0.6439
 5238TIP3   OH237204   4.666   2.972  11.026  0.1422  0.4125 -0.1311
 5238TIP3    H137205   4.756   2.969  10.995  0.1864 -0.0971  0.0456
 5238TIP3    H237206   4.672   3.014  11.112  0.7359 -3.2460  1.7106
 5239TIP3   OH237207   1.616   4.194  10.440  0.3388 -0.0461  1.0200
 5239TIP3    H137208   1.658   4.270  10.400  2.6598 -1.7795  0.0209
 5239TIP3    H237209   1.538   4.179  10.386  1.5612 -0.2255 -0.7641
 5240TIP3   OH237210   1.972   3.462  12.183  0.0917 -0.3041  0.1253
 5240TIP3    H137211   2.049   3.512  12.208  0.8954 -1.5798  0.2565
 5240TIP3    H237212   1.998   3.415  12.104 -0.5390 -0.7552  0.1775
 5241TIP3   OH237213   0.724   5.304  11.486 -1.1500 -0.0804  0.0571
 5241TIP3    H137214   0.744   5.210  11.486 -2.2273 -0.3432 -2.0928
 5241TIP3    H237215   0.763   5.336  11.404  1.0910  1.7994  1.7807
 5242TIP3   OH237216   4.439   3.486  11.997  0.1543  0.2844 -0.5022
 5242TIP3    H137217   4.475   3.494  12.085  1.2308  0.1807 -0.9229
 5242TIP3    H237218   4.493   3.545  11.944 -0.6466  0.5381 -1.0521
 5243TIP3   OH237219   2.742   4.803  11.985  0.6346  0.3607  0.0311
 5243TIP3    H137220   2.700   4.867  11.927  0.3671  0.0751 -0.0871
 5243TIP3    H237221   2.824   4.782  11.941  0.7918  0.7348  0.1415
 5244TIP3   OH237222   2.019   3.957  12.890  0.4656 -0.3024 -0.1816
 5244TIP3    H137223   1.996   3.940  12.798  0.0018 -2.4856  0.3151
 5244TIP3    H237224   2.115   3.959  12.889  0.4721 -0.5181 -0.6943
 5245TIP3   OH237225   4.656   3.673  11.917 -0.2522 -0.2639  0.0673
 5245TIP3    H137226   4.653   3.661  11.822  0.3376 -1.4986  0.1873
 5245TIP3    H237227   4.732   3.730  11.931 -1.0111  0.8517 -0.2730
 5246TIP3   OH237228   2.252   5.140  10.685  0.9279 -0.4272  0.3452
 5246TIP3    H137229   2.259   5.059  10.636  0.2481 -0.3472  0.1045
 5246TIP3    H237230   2.340   5.178  10.684  1.3915 -1.4566  0.9798
 5247TIP3   OH237231   2.094   4.134  14.440  0.7300 -0.7299  0.2638
 5247TIP3    H137232   2.054   4.053  14.471 -1.7833  0.3639  0.0207
 5247TIP3    H237233   2.088   4.129  14.345 -2.7312  1.2582  0.3035
 5248TIP3   OH237234   1.519   2.281  13.796  0.1751  0.1857 -0.1577
 5248TIP3    H137235   1.611   2.261  13.779 -0.0187 -0.1652 -0.7844
 5248TIP3    H237236   1.494   2.341  13.725 -0.0627  0.3425  0.0550
 5249TIP3   OH237237   2.732   5.697  13.404 -0.2448  0.4678 -0.1097
 5249TIP3    H137238   2.782   5.615  13.405 -1.3140 -0.2352 -1.8911
 5249TIP3    H237239   2.766   5.746  13.479  0.2669 -1.6783  1.1148
 5250TIP3   OH237240   2.581   5.988  12.475  0.3933 -0.2797  0.3814
 5250TIP3    H137241   2.528   6.007  12.552  0.5499  0.6031  0.2755
 5250TIP3    H237242   2.579   5.893  12.468  0.7938 -0.4009  1.7719
 5251TIP3   OH237243   2.825   5.355  12.972  0.0848 -0.1441  0.7272
 5251TIP3    H137244   2.761   5.413  13.013 -0.5210 -0.4583  0.2427
 5251TIP3    H237245   2.783   5.269  12.973  0.9170 -0.5524  1.3125
 5252TIP3   OH237246   2.994   6.643  13.272 -0.0851  0.2849  0.6470
 5252TIP3    H137247   3.079   6.669  13.307  0.4094  3.0181 -2.2622
 5252TIP3    H237248   2.941   6.723  13.276 -1.7636 -0.7837  0.3242
 5253TIP3   OH237249   4.824   4.327  11.929 -0.6499  0.1090 -0.4025
 5253TIP3    H137250   4.872   4.305  12.009  1.5408 -1.5259 -2.0973
 5253TIP3    H237251   4.732   4.331  11.956 -0.1329 -2.1280  1.8592
 5254TIP3   OH237252   2.296   0.958  12.051  0.1018  0.3588 -0.3506
 5254TIP3    H137253   2.289   1.015  11.975  0.4363 -0.4758 -1.0073
 5254TIP3    H237254   2.207   0.927  12.066  0.2665 -0.5926 -1.2705
 5255TIP3   OH237255   3.304   4.970  11.139  1.3682  0.1439  0.1881
 5255TIP3    H137256   3.331   4.939  11.225 -0.6058 -2.8418 -0.1897
 5255TIP3    H237257   3.339   4.905  11.078  1.3003  1.3111 -1.1166
 5256TIP3   OH237258   4.385   4.707  14.538 -0.1684  0.5741 -0.1502
 5256TIP3    H137259   4.319   4.776  14.533 -0.1199  0.4971 -2.4287
 5256TIP3    H237260   4.341   4.629  14.504  0.5036  0.0354  0.1957
 5257TIP3   OH237261   5.440   7.289  11.977 -0.5715 -0.2085 -0.4720
 5257TIP3    H137262   5.373   7.224  11.999 -0.3898 -0.0953  0.4534
 5257TIP3    H237263   5.500   7.287  12.051 -0.4291  0.8369 -0.5507
 5258TIP3   OH237264   2.434   4.356  11.617  0.1838  0.0594 -0.1198
 5258TIP3    H137265   2.421   4.332  11.525  1.1627 -0.7081 -0.0641
 5258TIP3    H237266   2.392   4.286  11.667  0.6058 -0.0879  0.0274
 5259TIP3   OH237267   3.973   5.599  11.157 -0.7485 -0.7526 -0.0606
 5259TIP3    H137268   3.935   5.548  11.229  1.5769 -1.5794  0.6236
 5259TIP3    H237269   3.972   5.539  11.082 -0.5791 -0.8505  0.0157
 5260TIP3   OH237270   5.038   2.487  10.726  0.3977 -0.1614  0.4916
 5260TIP3    H137271   4.986   2.410  10.702 -1.1477  0.9244  0.2474
 5260TIP3    H237272   5.022   2.550  10.656 -1.5440  1.8372  2.6484
 5261TIP3   OH237273   6.608   4.923  12.895 -0.2550  0.1256 -0.5471
 5261TIP3    H137274   6.644   5.009  12.920  0.2121  0.1507 -1.3163
 5261TIP3    H237275   6.537   4.944  12.835 -0.5119 -0.0085 -0.2940
 5262TIP3   OH237276   0.129   6.958  13.554 -0.1855  0.0991  0.2351
 5262TIP3    H137277   0.140   7.026  13.488 -2.3717 -1.2025 -1.5573
 5262TIP3    H237278   0.036   6.934  13.548  0.6944 -3.6139  0.1992
 5263TIP3   OH237279   4.813   3.612  13.644 -0.3247  0.2481 -0.7365
 5263TIP3    H137280   4.881   3.634  13.581  0.3910 -1.2551 -0.5179
 5263TIP3    H237281   4.765   3.694  13.658  0.7318  1.0497 -1.7399
 5264TIP3   OH237282   6.194   3.798  11.872  0.0964 -0.2003 -0.2166
 5264TIP3    H137283   6.241   3.793  11.955 -0.6093  1.9178  0.3358
 5264TIP3    H237284   6.190   3.892  11.852 -2.1674 -0.4757 -1.2387
 5265TIP3   OH237285   4.116   5.261  12.407 -0.6520 -0.0567 -0.1762
 5265TIP3    H137286   4.113   5.197  12.336 -0.6152  0.0297 -0.2548
 5265TIP3    H237287   4.057   5.331  12.379 -2.1276 -0.9160  0.7434
 5266TIP3   OH237288   1.589   5.478  11.266  0.0477 -0.0547 -0.2193
 5266TIP3    H137289   1.588   5.422  11.188 -2.4343 -1.5741  0.8396
 5266TIP3    H237290   1.519   5.542  11.251 -0.0516  0.0089  0.5055
 5267TIP3   OH237291   3.751   6.565  12.798 -0.5540  0.6034 -0.4959
 5267TIP3    H137292   3.656   6.573  12.789 -0.7309 -0.2548  0.4855
 5267TIP3    H237293   3.771   6.612  12.879 -0.4760 -1.3240  0.6230
 5268TIP3   OH237294   1.473   3.682  12.159 -0.6887  0.0623  0.2274
 5268TIP3    H137295   1.422   3.698  12.239 -0.8930 -0.5809  0.2330
 5268TIP3    H237296   1.560   3.658  12.190 -0.3171  1.3472  0.2118
 5269TIP3   OH237297   3.951   4.944  12.580 -0.3614 -0.6005 -0.3107
 5269TIP3    H137298   3.880   5.009  12.583  1.0753  0.9810  0.3801
 5269TIP3    H237299   3.952   4.914  12.490 -2.3125 -1.0921 -0.1816
 5270TIP3   OH237300   6.095   2.784  11.599  0.1522  0.2270 -0.3494
 5270TIP3    H137301   6.093   2.876  11.626  0.6798  0.5490 -1.3834
 5270TIP3    H237302   6.045   2.781  11.518 -0.1709 -0.4639 -0.1255
 5271TIP3   OH237303   4.255   1.998  14.073 -0.1420 -1.1122 -0.3732
 5271TIP3    H137304   4.197   1.974  14.145  0.3726 -0.2444  0.3401
 5271TIP3    H237305   4.248   2.093  14.067 -0.4910 -1.2183 -1.7457
 5272TIP3   OH237306   5.575   4.513  12.148 -0.3153  0.2674  0.3436
 5272TIP3    H137307   5.530   4.560  12.077  1.8187 -1.4497 -2.2104
 5272TIP3    H237308   5.652   4.566  12.168 -0.5411  0.3878  0.9166
 5273TIP3   OH237309   1.301   4.312  13.147  0.6654 -0.1420  0.2470
 5273TIP3    H137310   1.302   4.365  13.067  0.5475  3.0273  2.2555
 5273TIP3    H237311   1.212   4.323  13.181  0.5523 -1.9153  0.5743
 5274TIP3   OH237312   5.272   4.300  14.493 -0.0949 -0.2621  0.3855
 5274TIP3    H137313   5.327   4.263  14.424 -2.1444 -0.9359 -0.9193
 5274TIP3    H237314   5.268   4.231  14.559  1.9485  0.4209  1.2695
 5275TIP3   OH237315   4.864   3.211  10.191 -0.3149 -0.1476  0.2882
 5275TIP3    H137316   4.781   3.255  10.205 -0.5195 -0.1943 -0.7519
 5275TIP3    H237317   4.929   3.281  10.188 -0.0807 -0.2190  2.7025
 5276TIP3   OH237318   0.482   5.394  13.288  0.5105 -0.3338  0.5074
 5276TIP3    H137319   0.499   5.444  13.208  0.4350 -0.0412  0.6750
 5276TIP3    H237320   0.407   5.439  13.328 -0.2567 -1.2263  0.0978
 5277TIP3   OH237321   0.810   5.532  11.701  0.5727  0.0187 -0.0558
 5277TIP3    H137322   0.777   5.534  11.612  2.8239 -0.8884 -0.9538
 5277TIP3    H237323   0.889   5.585  11.699  2.7660 -3.1118  0.4482
 5278TIP3   OH237324   3.597   4.437  14.759 -0.0572  0.0940 -0.3876
 5278TIP3    H137325   3.516   4.405  14.800 -0.2530  1.2703  0.1853
 5278TIP3    H237326   3.667   4.403  14.815 -0.2506  0.4090  0.0559
 5279TIP3   OH237327   4.244   2.035  13.187 -0.0280  0.6580  0.0364
 5279TIP3    H137328   4.212   2.099  13.250 -0.6346 -0.6534  1.0899
 5279TIP3    H237329   4.207   2.063  13.103 -1.8674  0.6299  0.8120
 5280TIP3   OH237330   1.891   4.370  11.934  0.3018  0.2531  0.5489
 5280TIP3    H137331   1.927   4.417  12.009  3.0239  0.6306 -0.9405
 5280TIP3    H237332   1.808   4.334  11.966  1.1188  0.8921  3.5373
 5281TIP3   OH237333   2.004   5.366  11.419  0.1805  0.2550  0.0348
 5281TIP3    H137334   1.926   5.418  11.433 -0.0928  0.0293 -0.6129
 5281TIP3    H237335   2.026   5.331  11.505 -0.1799  0.6724  0.2952
 5282TIP3   OH237336   2.704   4.442  11.130  0.1026 -0.0891 -0.1369
 5282TIP3    H137337   2.693   4.350  11.104 -0.6032 -0.4503  1.3807
 5282TIP3    H237338   2.711   4.439  11.226 -1.7543  1.6047  0.0874
 5283TIP3   OH237339   4.002   5.664  12.021  0.1511  0.1722 -0.1753
 5283TIP3    H137340   4.033   5.755  12.020  1.4006 -0.2521 -0.7328
 5283TIP3    H237341   3.969   5.651  12.110  1.1680  0.7785  0.3022
 5284TIP3   OH237342   2.481   6.676  13.953 -0.0258 -0.5495  0.2788
 5284TIP3    H137343   2.544   6.605  13.941 -0.1531 -0.6481  0.1907
 5284TIP3    H237344   2.481   6.693  14.047  2.0328  1.1788  0.0007
 5285TIP3   OH237345   4.406   0.179  13.847 -0.5378  0.2462 -0.2034
 5285TIP3    H137346   4.326   0.168  13.795 -1.3247  2.4178  0.4841
 5285TIP3    H237347   4.471   0.123  13.804 -2.2634 -1.1095 -1.1201
 5286TIP3   OH237348   3.687   5.367  12.847 -0.4427  0.1478 -0.1069
 5286TIP3    H137349   3.651   5.406  12.768  1.3049  0.3925 -0.8147
 5286TIP3    H237350   3.777   5.342  12.823  0.8396  2.0922  2.3616
 5287TIP3   OH237351   0.380   5.467  13.902 -0.3421  0.1839 -0.1502
 5287TIP3    H137352   0.305   5.425  13.945 -0.2192  1.6586  1.5540
 5287TIP3    H237353   0.343   5.544  13.860 -0.0857 -0.1062 -0.9194
 5288TIP3   OH237354   3.332   6.529  12.409 -0.6954 -0.2056 -0.2326
 5288TIP3    H137355   3.341   6.612  12.363  1.4182  0.3080  1.0530
 5288TIP3    H237356   3.354   6.463  12.343  0.2787  0.4108 -0.5311
 5289TIP3   OH237357   0.601   6.723  13.930  0.2161  0.1958 -0.1877
 5289TIP3    H137358   0.616   6.653  13.866  0.1245 -1.1593  1.2363
 5289TIP3    H237359   0.683   6.727  13.980  0.0110  0.7193  0.1064
 5290TIP3   OH237360   4.258   5.720  11.106  0.2983 -0.0776 -0.2307
 5290TIP3    H137361   4.217   5.655  11.163 -0.0494  1.8575  1.7975
 5290TIP3    H237362   4.197   5.730  11.033 -0.2664 -1.0740  0.0934
 5291TIP3   OH237363   6.994   4.907  13.699  0.5577  0.3168 -0.0420
 5291TIP3    H137364   6.936   4.931  13.627 -1.0924  2.0288  1.7893
 5291TIP3    H237365   6.951   4.831  13.739 -0.9543  2.1605  1.8882
 5292TIP3   OH237366   4.407   6.181  11.305 -0.2793  0.1289  0.5741
 5292TIP3    H137367   4.454   6.121  11.247 -1.5386 -0.0359 -0.3142
 5292TIP3    H237368   4.315   6.169  11.282 -0.4901  3.2455 -0.4756
 5293TIP3   OH237369   1.875   6.223  12.290  0.2510  0.5137 -0.3617
 5293TIP3    H137370   1.781   6.206  12.283  0.3995 -0.7938  0.6648
 5293TIP3    H237371   1.888   6.306  12.243 -0.8366 -1.1360 -3.7338
 5294TIP3   OH237372   0.987   5.434  12.061  0.0048  0.1030  0.3538
 5294TIP3    H137373   0.974   5.359  12.003  1.4726  0.3685 -0.3422
 5294TIP3    H237374   1.081   5.452  12.056 -0.1871  1.4163  1.2274
 5295TIP3   OH237375   0.268   7.059  12.771 -0.0990  0.3169 -0.6843
 5295TIP3    H137376   0.305   6.977  12.740  0.5420  0.5919 -0.6447
 5295TIP3    H237377   0.328   7.126  12.739 -0.3830  0.7350 -0.3409
 5296TIP3   OH237378   5.717   1.682  10.877  0.5659  0.3448 -0.2415
 5296TIP3    H137379   5.695   1.754  10.936  2.2316  0.7514 -0.0899
 5296TIP3    H237380   5.663   1.609  10.906  1.0734  0.6565  1.5479
 5297TIP3   OH237381   6.869   4.686  11.416 -0.0652  0.0070  0.0381
 5297TIP3    H137382   6.894   4.770  11.455  0.9505  0.2680 -1.1424
 5297TIP3    H237383   6.952   4.641  11.401 -0.3225  0.4157 -2.9142
 5298TIP3   OH237384   4.371   6.250  13.101 -0.1460  0.1100  0.3385
 5298TIP3    H137385   4.317   6.223  13.175 -0.3156 -0.2674  0.0810
 5298TIP3    H237386   4.461   6.244  13.133 -0.0891 -2.1086 -0.1148
 5299TIP3   OH237387   2.638   2.522  10.433 -0.0887 -0.4255  0.2765
 5299TIP3    H137388   2.621   2.601  10.382 -1.9316  0.9411  2.8473
 5299TIP3    H237389   2.629   2.450  10.371  0.0541  1.2928 -1.7848
 5300TIP3   OH237390   4.038   2.512  11.935  0.0798  0.4267 -0.0701
 5300TIP3    H137391   4.082   2.438  11.894 -0.1605  0.6669 -0.7718
 5300TIP3    H237392   4.073   2.589  11.891  1.4666  0.8591  1.7026
 5301TIP3   OH237393   2.100   4.077  12.289 -0.1223  0.1955  0.0742
 5301TIP3    H137394   2.194   4.083  12.307  0.7854  0.2163 -4.2355
 5301TIP3    H237395   2.075   4.167  12.266 -0.8595 -0.1166 -0.3350
 5302TIP3   OH237396   2.543   5.121  10.676  0.3265 -0.3156 -0.4319
 5302TIP3    H137397   2.505   5.036  10.698  2.2754 -1.2189 -0.4882
 5302TIP3    H237398   2.636   5.103  10.662  1.0155  2.0457  0.8237
 5303TIP3   OH237399   5.289   3.985  10.751 -0.3973 -0.4566 -0.1346
 5303TIP3    H137400   5.244   4.067  10.731  0.5350 -0.0933 -0.8496
 5303TIP3    H237401   5.307   3.947  10.665 -0.3433 -1.1374  0.1762
 5304TIP3   OH237402   4.532   3.566  12.936  0.1161  0.5030  0.6998
 5304TIP3    H137403   4.622   3.547  12.910  0.1467 -0.4209  1.4505
 5304TIP3    H237404   4.518   3.515  13.016 -0.8326  1.2217  1.0081
 5305TIP3   OH237405   0.840   0.886  12.710  0.4617 -0.3651 -0.5693
 5305TIP3    H137406   0.818   0.844  12.627  0.6383  0.0341 -0.8198
 5305TIP3    H237407   0.934   0.904  12.704  0.4333 -0.1507 -0.3635
 5306TIP3   OH237408   2.320   3.298  12.050  0.1044 -0.0622 -0.5683
 5306TIP3    H137409   2.349   3.356  11.979  1.0231  0.9648  0.6236
 5306TIP3    H237410   2.399   3.251  12.076 -0.1616 -0.2118 -0.0283
 5307TIP3   OH237411   6.632   4.138  13.105  0.0864  0.6427 -0.2774
 5307TIP3    H137412   6.574   4.190  13.049  0.1604  1.1347  0.0915
 5307TIP3    H237413   6.638   4.189  13.186  0.8272  0.4661 -0.2174
 5308TIP3   OH237414   3.807   5.948  11.835 -0.5980  0.5894  0.0538
 5308TIP3    H137415   3.786   6.030  11.790  0.5401  1.1484  0.5353
 5308TIP3    H237416   3.849   5.894  11.767  1.0756  1.4164  0.4055
 5309TIP3   OH237417   0.532   6.716  11.670 -0.1607  0.0821  0.3532
 5309TIP3    H137418   0.449   6.753  11.700 -0.5760  1.1616 -1.9994
 5309TIP3    H237419   0.513   6.622  11.661 -0.9838  0.2384  0.3415
 5310TIP3   OH237420   2.700   4.665  14.656  0.2075  0.1807  0.3483
 5310TIP3    H137421   2.785   4.708  14.642 -0.6915  1.3296 -1.7190
 5310TIP3    H237422   2.642   4.737  14.682 -0.0379 -0.6869  2.2706
 5311TIP3   OH237423   1.957   4.458  11.625 -0.0394  0.1740  0.0141
 5311TIP3    H137424   1.955   4.371  11.585 -0.2752 -0.0759  0.5674
 5311TIP3    H237425   1.873   4.467  11.670  0.4222  0.2400  0.8879
 5312TIP3   OH237426   3.595   4.149  13.355 -0.2715  0.0391 -0.1147
 5312TIP3    H137427   3.581   4.068  13.405  0.2870 -1.6097 -2.5752
 5312TIP3    H237428   3.508   4.185  13.343 -0.6146 -0.6519  0.2522
 5313TIP3   OH237429   3.977   7.210  13.391 -0.5968  0.0020  0.6923
 5313TIP3    H137430   4.030   7.228  13.469  0.1679 -1.5894  0.5525
 5313TIP3    H237431   4.011   7.271  13.325 -0.1568  0.2263  1.1206
 5314TIP3   OH237432   5.128   3.083  14.033 -0.7484 -0.4256  0.0250
 5314TIP3    H137433   5.086   3.169  14.034  0.4082  0.1473  0.4197
 5314TIP3    H237434   5.147   3.066  13.941  0.3588  0.4090  0.0966
 5315TIP3   OH237435   5.671   3.590  11.938  0.0660 -0.4564  0.5310
 5315TIP3    H137436   5.647   3.629  11.854 -1.8359  0.5444  1.5021
 5315TIP3    H237437   5.758   3.553  11.923 -0.1068 -0.0303 -1.7797
 5316TIP3   OH237438   5.040   5.306  15.863  0.2567 -0.1007 -0.0204
 5316TIP3    H137439   4.986   5.293  15.786 -0.5649 -0.8289  0.6719
 5316TIP3    H237440   4.981   5.346  15.927  1.4111  2.2706 -0.3809
 5317TIP3   OH237441   0.975   6.142  13.056 -0.1068 -0.2266  0.2480
 5317TIP3    H137442   1.023   6.162  13.137 -0.0202 -1.4122  0.4971
 5317TIP3    H237443   1.035   6.086  13.006 -0.3822  0.0416 -0.3855
 5318TIP3   OH237444   4.698   5.122  12.332  0.4528 -0.0430  0.0009
 5318TIP3    H137445   4.724   5.180  12.260  1.3433 -0.9642 -0.4330
 5318TIP3    H237446   4.626   5.071  12.296 -0.3739  0.8189  0.4028
 5319TIP3   OH237447   2.052   4.716  11.582  0.1982 -0.4112  0.1847
 5319TIP3    H137448   2.135   4.693  11.541 -0.2961 -3.0017  0.5941
 5319TIP3    H237449   2.012   4.633  11.607 -1.5317  0.8858  1.9857
 5320TIP3   OH237450   5.247   6.426  12.131  0.1397 -0.0691  0.1191
 5320TIP3    H137451   5.241   6.355  12.067  0.5353 -0.1692  0.1955
 5320TIP3    H237452   5.201   6.393  12.208 -1.2467  0.4457 -0.4696
 5321TIP3   OH237453   5.006   5.459  11.342  0.0168  0.3912  0.0541
 5321TIP3    H137454   4.974   5.438  11.430 -3.2463 -2.2927 -1.6722
 5321TIP3    H237455   4.942   5.520  11.306 -0.7128 -1.4017 -1.7656
 5322TIP3   OH237456   5.684   4.668  11.703 -0.1580 -0.3875 -0.5220
 5322TIP3    H137457   5.717   4.748  11.662 -0.6628 -0.2129 -0.5915
 5322TIP3    H237458   5.762   4.619  11.727  0.1811  0.6780  0.5874
 5323TIP3   OH237459   6.137   4.396  13.192  0.5315  0.5030 -0.1787
 5323TIP3    H137460   6.180   4.333  13.250  0.4743  2.1913  1.7598
 5323TIP3    H237461   6.209   4.445  13.152  0.5140  2.1701  1.7479
 5324TIP3   OH237462   4.804   4.504  12.247  0.4587  0.1172 -0.2367
 5324TIP3    H137463   4.859   4.426  12.244 -0.2840 -0.4713  0.9540
 5324TIP3    H237464   4.865   4.574  12.270  1.1421 -0.0834 -1.3848
 5325TIP3   OH237465   3.852   3.454  13.157 -0.1265 -0.3016 -0.1264
 5325TIP3    H137466   3.905   3.484  13.231 -0.3339  0.9415 -0.4700
 5325TIP3    H237467   3.830   3.363  13.179 -0.6515  0.2126  1.6078
 5326TIP3   OH237468   5.550   5.011  13.434 -0.1496  0.3013 -0.4671
 5326TIP3    H137469   5.578   5.047  13.350 -0.2500 -0.7112 -0.9364
 5326TIP3    H237470   5.622   4.952  13.460 -1.0903 -1.0544 -0.8945
 5327TIP3   OH237471   4.551   3.763  10.871  0.4161 -0.1591 -0.1565
 5327TIP3    H137472   4.616   3.717  10.818  0.2886  0.1209 -0.5562
 5327TIP3    H237473   4.502   3.693  10.914  2.3544 -0.3667  1.8409
 5328TIP3   OH237474   3.620   6.817  12.435 -0.0896 -0.0816 -0.0630
 5328TIP3    H137475   3.601   6.744  12.493 -0.8693 -1.3904 -1.9016
 5328TIP3    H237476   3.548   6.878  12.447 -1.3538 -1.3286 -1.1812
 5329TIP3   OH237477   6.104   4.798  13.040 -0.2404 -0.0310  0.1393
 5329TIP3    H137478   6.124   4.718  13.088  0.1329 -0.5025 -0.8008
 5329TIP3    H237479   6.181   4.814  12.985 -0.9544  0.1101 -0.8430
 5330TIP3   OH237480   1.040   2.675  13.673  0.5894  0.3570  0.2698
 5330TIP3    H137481   1.036   2.720  13.589 -1.1108 -0.6794 -0.2181
 5330TIP3    H237482   1.126   2.632  13.673  1.1305  1.3995 -0.3626
 5331TIP3   OH237483   5.510   5.461  11.946  0.0738  0.8118  0.6718
 5331TIP3    H137484   5.441   5.490  12.005 -1.7811 -1.1302 -0.4248
 5331TIP3    H237485   5.470   5.464  11.859 -0.0788 -4.2382  0.4256
 5332TIP3   OH237486   3.646   5.738  12.772  0.3419 -0.0497 -0.0038
 5332TIP3    H137487   3.670   5.824  12.806 -0.7826  0.2772 -0.0236
 5332TIP3    H237488   3.728   5.703  12.737  0.9466  0.7255  0.6109
 5333TIP3   OH237489   7.060   5.789  12.359 -0.0463 -0.0219 -0.1749
 5333TIP3    H137490   7.156   5.790  12.362  0.0463 -1.4728 -2.0058
 5333TIP3    H237491   7.034   5.826  12.444  2.1207 -0.5057  0.7514
 5334TIP3   OH237492   4.165   5.836  12.752  1.2594 -0.0791  0.7924
 5334TIP3    H137493   4.211   5.920  12.758  1.5435 -0.1375 -0.5169
 5334TIP3    H237494   4.234   5.772  12.733  0.6102 -0.1276 -1.4628
 5335TIP3   OH237495   2.220   4.925  11.668 -0.1990 -0.0503 -0.3274
 5335TIP3    H137496   2.169   4.870  11.609 -0.6029 -1.1485  1.0236
 5335TIP3    H237497   2.173   4.922  11.751  0.7079  0.9511  0.2339
 5336TIP3   OH237498   6.228   6.269  12.108  0.0871  0.0493 -0.0560
 5336TIP3    H137499   6.183   6.351  12.085 -1.7288 -0.6564  0.8793
 5336TIP3    H237500   6.183   6.203  12.056  0.8142 -0.5183  0.0397
 5337TIP3   OH237501   5.543   5.011  13.770 -0.8761  0.0749 -0.3955
 5337TIP3    H137502   5.590   4.942  13.817  1.0618  1.3011 -0.5176
 5337TIP3    H237503   5.589   5.020  13.687  0.4155  3.1446  0.5825
 5338TIP3   OH237504   5.926   5.342  11.829  0.5600  0.3221 -0.4523
 5338TIP3    H137505   6.014   5.356  11.866  0.6194  0.4832 -0.6545
 5338TIP3    H237506   5.867   5.356  11.903  0.7257 -0.1582 -0.2282
 5339TIP3   OH237507   5.701   2.312  14.191 -0.4494 -0.1192  0.3304
 5339TIP3    H137508   5.692   2.394  14.238 -0.5625  0.3720 -0.5315
 5339TIP3    H237509   5.753   2.334  14.113 -1.3338 -0.6520 -0.4208
 5340TIP3   OH237510   5.720   4.627  12.813  0.3434  1.0231  0.4038
 5340TIP3    H137511   5.650   4.649  12.875 -1.4429 -0.2649 -1.0956
 5340TIP3    H237512   5.715   4.531  12.805  3.1862  0.7657  1.2995
 5341TIP3   OH237513   6.634   5.111  14.074  0.1611 -0.2578 -0.5936
 5341TIP3    H137514   6.630   5.075  13.985 -0.9994 -2.4894  0.3280
 5341TIP3    H237515   6.726   5.132  14.088  0.3006  0.4705 -2.4448
 5342TIP3   OH237516   7.339   4.837  14.801 -1.1359 -0.1665  0.7863
 5342TIP3    H137517   7.367   4.872  14.716  2.2808  0.8397  2.2679
 5342TIP3    H237518   7.277   4.901  14.835  0.2855  1.2903  0.6640
 5343TIP3   OH237519   1.670   5.827  12.185 -0.2060  0.0224 -0.7012
 5343TIP3    H137520   1.649   5.810  12.277 -0.4850  0.4137 -0.6908
 5343TIP3    H237521   1.631   5.755  12.137  0.5309 -0.5526 -0.4466
 5344TIP3   OH237522   5.179   3.622  11.623 -0.5167  0.3479 -0.3079
 5344TIP3    H137523   5.208   3.610  11.532  1.9237  1.0606  0.3607
 5344TIP3    H237524   5.160   3.716  11.629  1.0833  0.6260  0.4270
 5345TIP3   OH237525   7.164   5.598  12.181 -0.0020  0.0434  0.2249
 5345TIP3    H137526   7.161   5.679  12.233  0.6853  0.5046 -0.4287
 5345TIP3    H237527   7.077   5.590  12.144  0.1234  0.8891 -0.2862
 5346TIP3   OH237528   5.244   5.858  10.275 -0.6740  0.0225  0.2556
 5346TIP3    H137529   5.240   5.769  10.240 -2.4373 -0.0522  0.6325
 5346TIP3    H237530   5.206   5.913  10.206 -0.6393  0.3398  0.4880
 5347TIP3   OH237531   5.425   4.608  12.765  0.1704  0.3504 -0.5328
 5347TIP3    H137532   5.350   4.660  12.736  0.6752  1.3920  0.0144
 5347TIP3    H237533   5.479   4.598  12.687 -0.6526 -0.6399 -0.9995
 5348TIP3   OH237534   3.290   4.063  12.896  0.4654 -0.6442 -0.0972
 5348TIP3    H137535   3.370   4.084  12.847  0.1792  0.3465 -0.1412
 5348TIP3    H237536   3.224   4.049  12.828  0.5624 -1.3624 -0.0575
 5349TIP3   OH237537   3.319   6.257  11.840  0.6184  0.2263  0.3611
 5349TIP3    H137538   3.366   6.213  11.768 -0.8160 -0.4417 -0.1861
 5349TIP3    H237539   3.280   6.185  11.890 -0.6162  0.8022  0.2504
 5350TIP3   OH237540   5.141   5.826  12.859 -0.3537 -0.3032 -0.3807
 5350TIP3    H137541   5.106   5.914  12.842  0.8576 -0.6249 -5.3944
 5350TIP3    H237542   5.063   5.772  12.872 -1.2609  0.9275 -0.5857
 5351TIP3   OH237543   3.579   5.046  12.907 -0.0861  0.3833 -0.2156
 5351TIP3    H137544   3.533   5.130  12.918  0.3310  0.6470 -0.4542
 5351TIP3    H237545   3.591   5.038  12.813  0.4953  0.3939 -0.1435
 5352TIP3   OH237546   1.969   4.580  12.776  0.4294  0.1703 -0.3596
 5352TIP3    H137547   1.939   4.664  12.742  0.0169 -0.8737 -2.6141
 5352TIP3    H237548   2.063   4.580  12.762  0.6774  0.8913  1.1284
 5353TIP3   OH237549   7.062   1.429  14.728  0.0393  0.1819  0.0637
 5353TIP3    H137550   7.113   1.396  14.654 -1.8806 -2.5210 -0.0855
 5353TIP3    H237551   7.119   1.416  14.804  0.4054 -0.8582 -0.3827
 5354TIP3   OH237552   3.329   3.874  11.459  0.3790  0.6546  0.0006
 5354TIP3    H137553   3.291   3.923  11.532  0.2106  0.1449  0.2515
 5354TIP3    H237554   3.260   3.871  11.394 -0.3034 -0.9998  0.7907
 5355TIP3   OH237555   5.063   5.839  12.478  0.3003 -0.2446  0.2220
 5355TIP3    H137556   5.018   5.756  12.466 -0.3081 -0.0717  1.2428
 5355TIP3    H237557   4.994   5.901  12.503  0.5951  0.7966 -1.4394
 5356TIP3   OH237558   4.133   6.700  13.220 -0.1388 -0.3158  0.2299
 5356TIP3    H137559   4.172   6.729  13.138 -2.0015  0.1480 -0.5017
 5356TIP3    H237560   4.148   6.773  13.281 -2.1397  0.9838 -0.7784
 5357TIP3   OH237561   3.280   1.595  12.373 -0.0152  0.6354 -0.1019
 5357TIP3    H137562   3.242   1.610  12.287 -2.6743 -0.0861  0.8845
 5357TIP3    H237563   3.205   1.576  12.429  1.7725 -0.1582  2.1029
 5358TIP3   OH237564   4.591   5.559  10.844  0.3679  0.0808  0.2296
 5358TIP3    H137565   4.545   5.480  10.815  1.0522 -0.0633 -0.4906
 5358TIP3    H237566   4.680   5.528  10.863  0.8655  0.8232 -0.8396
 5359TIP3   OH237567   5.382   6.086  12.910 -0.0944 -0.3731 -0.4484
 5359TIP3    H137568   5.391   6.153  12.842 -0.2520  0.6447  0.5205
 5359TIP3    H237569   5.379   6.004  12.861  2.2342  0.1290 -1.5474
 5360TIP3   OH237570   5.513   4.616  14.034  0.2767 -0.3736 -0.0885
 5360TIP3    H137571   5.529   4.535  13.986  0.2538  0.5576 -1.6984
 5360TIP3    H237572   5.424   4.606  14.068  0.0672 -0.8015 -0.7485
 5361TIP3   OH237573   4.549   0.402  13.403 -0.8151  0.2915  0.0414
 5361TIP3    H137574   4.599   0.321  13.397 -2.1031 -0.4633 -0.9971
 5361TIP3    H237575   4.565   0.447  13.320 -0.2476  1.0218  0.5386
 5362TIP3   OH237576   6.108   4.913  11.266  0.1270  0.3942 -0.2296
 5362TIP3    H137577   6.095   5.007  11.251  0.5464  0.3588 -0.8133
 5362TIP3    H237578   6.028   4.872  11.233  0.5631  0.4194 -1.3588
 5363TIP3   OH237579   3.846   5.212  11.600 -0.2805  0.4622  0.6509
 5363TIP3    H137580   3.930   5.202  11.643 -0.2044 -0.1727  0.3710
 5363TIP3    H237581   3.794   5.265  11.660  0.1722  0.4869  1.0233
 5364TIP3   OH237582   6.192   4.660  10.230  0.1160 -0.0489 -0.5093
 5364TIP3    H137583   6.198   4.672  10.135 -1.3390  0.7680 -0.5139
 5364TIP3    H237584   6.280   4.678  10.263  0.0639  2.0929 -1.4500
 5365TIP3   OH237585   2.350   4.504  10.609  0.0660 -0.0275 -0.0969
 5365TIP3    H137586   2.437   4.540  10.628 -0.0925 -0.3182  1.2566
 5365TIP3    H237587   2.365   4.443  10.536  1.0956 -0.4373  0.4342
 5366TIP3   OH237588   4.540   4.258  12.710 -0.1103 -0.4304 -0.3185
 5366TIP3    H137589   4.594   4.272  12.633 -3.7012 -0.1227 -2.8840
 5366TIP3    H237590   4.488   4.338  12.718 -1.1317 -1.2329  1.3167
 5367TIP3   OH237591   3.664   5.138  11.083 -0.3424  0.2031  0.3606
 5367TIP3    H137592   3.755   5.109  11.080 -0.6612 -0.9183  1.0864
 5367TIP3    H237593   3.625   5.103  11.002 -0.1473  0.6228  0.0856
 5368TIP3   OH237594   5.167   3.959  12.064  0.5497 -0.1227 -0.0400
 5368TIP3    H137595   5.112   3.932  12.137 -0.7018  0.2897 -0.8095
 5368TIP3    H237596   5.240   3.897  12.064  0.0206 -0.7537  0.9086
 5369TIP3   OH237597   4.221   3.943  11.217 -0.2212  0.8487 -0.0581
 5369TIP3    H137598   4.238   3.947  11.123  0.9094  0.5676  0.1209
 5369TIP3    H237599   4.173   3.861  11.230  2.2738 -0.6611 -0.0297
 5370TIP3   OH237600   5.034   4.461  11.803  0.5126 -0.0065 -0.0897
 5370TIP3    H137601   4.958   4.405  11.820  0.5397 -0.0152 -0.0008
 5370TIP3    H237602   5.003   4.549  11.823  0.8277 -0.1153  0.9225
 5371TIP3   OH237603   0.094   3.290  13.976  0.4693 -0.1497 -0.0128
 5371TIP3    H137604   0.176   3.302  14.024  0.1536  0.6287  0.3368
 5371TIP3    H237605   0.107   3.209  13.926  1.8974  0.6395 -0.9219
 5372TIP3   OH237606   6.566   3.742  14.293  0.8280  0.1970  0.1429
 5372TIP3    H137607   6.538   3.833  14.300  0.4145  0.1945 -1.2052
 5372TIP3    H237608   6.502   3.693  14.345 -0.5348  0.4152 -1.2805
 5373TIP3   OH237609   6.920   4.982  12.247  0.5151  0.0695 -0.7100
 5373TIP3    H137610   6.892   4.891  12.240  1.5580 -0.3184  0.1107
 5373TIP3    H237611   6.910   5.003  12.340  0.4418  0.7465 -0.8648
 5374TIP3   OH237612   5.669   3.196  12.159  0.2368 -0.1554  0.6972
 5374TIP3    H137613   5.669   3.101  12.152  1.4364 -0.1448  0.3423
 5374TIP3    H237614   5.651   3.214  12.251  1.5423 -0.7813  1.0838
 5375TIP3   OH237615   3.020   4.706  13.635 -0.4645 -0.1957 -0.6646
 5375TIP3    H137616   3.083   4.778  13.636 -1.1336  0.4081 -0.8817
 5375TIP3    H237617   2.976   4.714  13.550 -0.2625 -1.1178 -0.8617
 5376TIP3   OH237618   4.766   1.976  12.240  0.5345  0.2016  0.1610
 5376TIP3    H137619   4.832   2.044  12.254  0.4295  0.6741 -1.6023
 5376TIP3    H237620   4.710   1.981  12.317  0.3134  2.3392 -0.1166
 5377TIP3   OH237621   6.406   4.781  13.727 -0.9469 -0.5578  0.4422
 5377TIP3    H137622   6.382   4.872  13.747  1.1456  0.0891  0.2050
 5377TIP3    H237623   6.474   4.761  13.792 -0.8425 -1.6952 -0.0195
 5378TIP3   OH237624   3.080   4.675  12.331 -0.4154 -0.1425 -0.3185
 5378TIP3    H137625   3.170   4.662  12.302 -0.6505  0.6806 -1.4444
 5378TIP3    H237626   3.029   4.610  12.283 -0.6339  0.4189 -0.8564
 5379TIP3   OH237627   0.297   3.683  11.360 -0.0898 -0.1450  0.1615
 5379TIP3    H137628   0.341   3.648  11.437  2.5519 -1.2011 -1.7523
 5379TIP3    H237629   0.280   3.607  11.305 -1.6019  0.6398 -0.4726
 5380TIP3   OH237630   6.240   3.956  12.551  0.0893 -0.2015 -0.4314
 5380TIP3    H137631   6.205   3.966  12.639  1.1169  1.1781 -0.1535
 5380TIP3    H237632   6.273   4.043  12.529 -0.3768 -0.4849 -2.2774
 5381TIP3   OH237633   3.720   2.372  13.556 -0.2470  0.1051  0.1765
 5381TIP3    H137634   3.784   2.411  13.496 -1.2666  0.0805 -0.9415
 5381TIP3    H237635   3.648   2.435  13.559 -1.3478 -1.0880 -0.6549
 5382TIP3   OH237636   4.330   2.417  12.595  0.1344  0.4050  0.0617
 5382TIP3    H137637   4.265   2.393  12.529  0.5711 -1.9178  0.4175
 5382TIP3    H237638   4.279   2.439  12.672 -0.2796 -1.9391  0.5129
 5383TIP3   OH237639   4.055   4.987  12.990  0.0112  0.0091  0.1462
 5383TIP3    H137640   4.025   5.030  13.069 -1.0185  0.4783 -0.4931
 5383TIP3    H237641   4.051   4.893  13.011  0.3313  0.1462  0.8438
 5384TIP3   OH237642   4.761   3.133  11.548  0.5861  0.2607 -0.0990
 5384TIP3    H137643   4.760   3.216  11.596  0.7700 -0.3641  1.0170
 5384TIP3    H237644   4.688   3.083  11.585  2.1963 -1.1708  1.2840
 5385TIP3   OH237645   5.449   5.684  12.951 -0.0571 -0.5721  0.4264
 5385TIP3    H137646   5.416   5.666  13.039 -0.4163  0.9801  0.6101
 5385TIP3    H237647   5.370   5.699  12.899  0.3010  2.8454  0.7969
 5386TIP3   OH237648   5.973   5.897  12.998  0.6027  0.3115  0.3381
 5386TIP3    H137649   6.040   5.941  12.946  1.1025 -1.2916 -0.3785
 5386TIP3    H237650   5.913   5.860  12.934 -0.4962  0.9590  0.9632
 5387TIP3   OH237651   4.267   2.648  12.894  0.0571  0.0684  0.0839
 5387TIP3    H137652   4.189   2.701  12.911 -0.2456 -0.2650 -0.2474
 5387TIP3    H237653   4.233   2.561  12.874  0.5323 -0.1554  0.2379
 5388TIP3   OH237654   4.667   2.778  14.726  0.1328 -0.3923  0.2275
 5388TIP3    H137655   4.737   2.800  14.787  0.0531  2.4283 -0.5808
 5388TIP3    H237656   4.589   2.816  14.765 -0.2999 -0.4412 -0.5817
 5389TIP3   OH237657   3.461   4.698  10.468 -0.1159  0.2196 -0.1424
 5389TIP3    H137658   3.425   4.654  10.391  2.4804 -0.8181 -0.8085
 5389TIP3    H237659   3.445   4.637  10.540  0.2315 -0.2121 -0.4275
 5390TIP3   OH237660   5.573   6.277  15.293  0.2945  0.0089 -0.0209
 5390TIP3    H137661   5.489   6.240  15.264  0.5162  0.2306 -0.9396
 5390TIP3    H237662   5.589   6.350  15.233  1.3790 -0.3190 -0.1324
 5391TIP3   OH237663   3.522   6.670  14.505 -0.1504  0.3187 -0.7112
 5391TIP3    H137664   3.609   6.702  14.528  0.0128 -1.2690  0.9581
 5391TIP3    H237665   3.492   6.622  14.582 -0.3020 -3.6294 -3.0571
 5392TIP3   OH237666   4.974   5.611  12.178 -0.5374  0.2474 -0.2638
 5392TIP3    H137667   5.041   5.677  12.159 -1.0346  0.9295  0.3307
 5392TIP3    H237668   4.964   5.614  12.274 -0.1878 -1.0566 -0.1831
 5393TIP3   OH237669   7.215   3.677  11.717 -0.3321 -1.1019 -0.3582
 5393TIP3    H137670   7.165   3.752  11.685  0.0505 -1.2213 -1.2579
 5393TIP3    H237671   7.205   3.680  11.812  1.6837  1.4816 -0.1804
 5394TIP3   OH237672   4.699   1.429  12.742  0.1425 -0.3498  0.2458
 5394TIP3    H137673   4.764   1.376  12.696  0.2739 -1.1254  1.3023
 5394TIP3    H237674   4.713   1.518  12.708 -0.2287 -1.0036 -1.7057
 5395TIP3   OH237675   0.459   2.603  11.636  0.3777  0.3645  0.0656
 5395TIP3    H137676   0.530   2.552  11.675  2.6313  0.8059 -3.2457
 5395TIP3    H237677   0.462   2.688  11.680  1.1513 -0.0060  0.7297
 5396TIP3   OH237678   4.987   6.240  13.515  0.0029  0.2853  0.1410
 5396TIP3    H137679   5.003   6.158  13.468  0.4173 -1.3198  2.9097
 5396TIP3    H237680   5.049   6.302  13.478  0.5149 -1.0072 -1.2079
 5397TIP3   OH237681   5.746   6.909  11.351 -0.0481  0.2501 -0.4478
 5397TIP3    H137682   5.711   6.906  11.440 -0.8213  2.1699 -0.6613
 5397TIP3    H237683   5.806   6.984  11.351 -0.3763  0.5332 -1.6551
 5398TIP3   OH237684   5.508   4.719  12.444 -0.1596  0.1935  0.4467
 5398TIP3    H137685   5.503   4.624  12.453  0.6962  0.3828  3.6485
 5398TIP3    H237686   5.416   4.747  12.438 -0.3897 -0.8559 -1.4027
 5399TIP3   OH237687   6.140   3.626  14.847  0.2212 -0.7461  0.1343
 5399TIP3    H137688   6.197   3.681  14.901 -0.0915 -1.8498  1.6294
 5399TIP3    H237689   6.086   3.687  14.798  0.3117  0.2786  1.2979
 5400TIP3   OH237690   4.811   5.587  10.085 -0.8637  0.5931  0.1187
 5400TIP3    H137691   4.873   5.586  10.158 -1.9272 -0.1041  1.0475
 5400TIP3    H237692   4.865   5.579  10.007  0.1466 -1.1167  0.9609
 5401TIP3   OH237693   5.325   6.306  11.165  0.0721 -0.2715  0.2751
 5401TIP3    H137694   5.386   6.235  11.143  0.1944  0.1556 -0.8139
 5401TIP3    H237695   5.304   6.346  11.081 -2.1468 -0.7509  0.5695
 5402TIP3   OH237696   2.464   5.919  11.683 -0.2434 -0.2500 -0.2277
 5402TIP3    H137697   2.475   5.826  11.704 -1.1647 -0.3876 -0.3235
 5402TIP3    H237698   2.516   5.932  11.603 -1.4894 -1.0870 -1.2009
 5403TIP3   OH237699   2.870   6.024  13.438 -0.3205  0.5713  0.3790
 5403TIP3    H137700   2.776   6.009  13.433 -0.1884  0.1556 -1.1977
 5403TIP3    H237701   2.886   6.096  13.377  0.6154 -0.5852 -0.7685
 5404TIP3   OH237702   5.712   5.774  12.894  0.2616 -0.3070 -0.1436
 5404TIP3    H137703   5.627   5.777  12.937  0.5358 -1.5792  0.5271
 5404TIP3    H237704   5.718   5.686  12.857  1.3774 -0.3329  0.0548
 5405TIP3   OH237705   6.299   2.974  11.306  0.9706  0.2463 -0.0609
 5405TIP3    H137706   6.261   2.886  11.302  1.7704 -0.0484 -1.5672
 5405TIP3    H237707   6.320   2.986  11.398 -1.2548 -0.2284  0.5420
 5406TIP3   OH237708   6.483   4.944  12.040 -0.4737  0.0501 -0.1990
 5406TIP3    H137709   6.516   4.906  12.122 -0.8808 -0.1441 -0.1260
 5406TIP3    H237710   6.546   5.013  12.020  0.9634 -1.4574 -0.9855
 5407TIP3   OH237711   5.877   4.855  10.775 -0.2783 -0.2074 -0.4315
 5407TIP3    H137712   5.961   4.863  10.820 -2.0478  0.9756  2.8636
 5407TIP3    H237713   5.889   4.899  10.691  1.2597  3.5148  1.6441
 5408TIP3   OH237714   4.389   6.205  11.947 -0.1844 -0.2548  0.5564
 5408TIP3    H137715   4.323   6.274  11.942  1.3099  1.2327  0.7399
 5408TIP3    H237716   4.399   6.188  12.041  1.4013  1.2640  0.6980
 5409TIP3   OH237717   3.714   5.308  10.622 -0.1183  0.1077 -0.0576
 5409TIP3    H137718   3.635   5.267  10.588 -0.3711 -0.5652  1.2964
 5409TIP3    H237719   3.785   5.247  10.600 -0.2200 -0.1096  0.2075
 5410TIP3   OH237720   6.890   3.459  10.840  0.0004  0.6919  0.1917
 5410TIP3    H137721   6.910   3.445  10.747 -2.0224  2.2130 -0.5099
 5410TIP3    H237722   6.896   3.553  10.852  0.6551  0.4702  1.7202
 5411TIP3   OH237723   4.945   2.927  12.236 -0.1169  0.0505  0.4992
 5411TIP3    H137724   4.896   2.950  12.314 -0.7277 -0.1492  0.1802
 5411TIP3    H237725   4.991   2.847  12.259  2.0308  1.5842  1.6139
 5412TIP3   OH237726   6.585   6.118  13.652  0.4121 -0.2577 -0.2368
 5412TIP3    H137727   6.648   6.047  13.639  0.8034  0.4307 -2.3109
 5412TIP3    H237728   6.634   6.197  13.629 -0.8413  0.3940 -0.6901
 5413TIP3   OH237729   4.709   4.701  10.944 -0.3862 -0.3057  0.2702
 5413TIP3    H137730   4.626   4.694  10.990 -0.1449 -2.2031  0.4361
 5413TIP3    H237731   4.738   4.791  10.960 -2.9592  0.7631 -0.7781
 5414TIP3   OH237732   3.895   3.400  11.960 -0.1606 -0.8552 -0.1859
 5414TIP3    H137733   3.988   3.392  11.940 -0.0380 -0.2484  0.1374
 5414TIP3    H237734   3.868   3.480  11.914  0.0921  0.5012  1.9540
 5415TIP3   OH237735   7.124   3.688  13.304 -0.4030  0.0205  0.5508
 5415TIP3    H137736   7.053   3.692  13.240 -0.8082 -0.4349  0.9835
 5415TIP3    H237737   7.185   3.623  13.268 -1.2166 -1.1273  1.2345
 5416TIP3   OH237738   5.793   5.078  13.144  0.6030  0.1632  0.5302
 5416TIP3    H137739   5.857   5.065  13.214 -0.7943 -1.9204  1.4378
 5416TIP3    H237740   5.712   5.100  13.189 -0.1511 -0.5490 -0.4544
 5417TIP3   OH237741   4.542   4.799  11.352  0.0657 -0.5328  0.4607
 5417TIP3    H137742   4.545   4.748  11.271  0.4188  1.5534 -0.8994
 5417TIP3    H237743   4.507   4.739  11.417 -3.1174 -1.4228 -1.9121
 5418TIP3   OH237744   4.051   4.121  11.766 -0.1203 -0.0669  0.1134
 5418TIP3    H137745   4.051   4.040  11.818 -3.9650 -0.0186  0.3751
 5418TIP3    H237746   4.069   4.093  11.677  3.3214 -0.5559  0.8927
 5419TIP3   OH237747   5.320   6.232  15.190  0.1775  0.1876 -0.1592
 5419TIP3    H137748   5.306   6.313  15.142  3.6112  1.6052  1.0752
 5419TIP3    H237749   5.353   6.171  15.124  1.0048  0.8978 -0.4114
 5420TIP3   OH237750   5.068   5.648  13.207 -0.3540 -0.3030  0.1975
 5420TIP3    H137751   5.025   5.715  13.261 -1.1568 -0.2755 -0.4627
 5420TIP3    H237752   4.999   5.617  13.148 -0.2136 -2.3572  1.0937
 5421TIP3   OH237753   5.587   4.849   9.824  0.5276  0.0644 -0.7427
 5421TIP3    H137754   5.560   4.938   9.805  0.3183  0.2316  0.2812
 5421TIP3    H237755   5.517   4.794   9.789 -0.5480  0.4318  0.7604
 5422TIP3   OH237756   5.188   7.240  10.560 -0.4781 -1.0327 -0.1439
 5422TIP3    H137757   5.243   7.267  10.634 -0.6795 -0.7144 -0.1125
 5422TIP3    H237758   5.106   7.288  10.572  0.2909  0.7457 -1.8029
 5423TIP3   OH237759   3.342   4.441  12.496 -0.3965  0.3389 -0.3382
 5423TIP3    H137760   3.395   4.372  12.455 -0.3030 -0.1035  0.5227
 5423TIP3    H237761   3.358   4.518  12.442 -0.3738 -0.2702 -1.2106
 5424TIP3   OH237762   4.150   6.178  12.885  0.2752 -0.3393  0.1639
 5424TIP3    H137763   4.174   6.257  12.933  1.5928 -1.2156  0.9715
 5424TIP3    H237764   4.130   6.209  12.796  0.4409  0.9415  0.5679
 5425TIP3   OH237765   6.449   4.611  12.299 -0.1191 -0.6051 -0.0907
 5425TIP3    H137766   6.379   4.617  12.364  0.6896 -1.3459  0.8627
 5425TIP3    H237767   6.438   4.525  12.259 -0.9712  0.0787 -1.3654
 5426TIP3   OH237768   4.558   1.510  10.878  0.4042  0.0381 -0.8878
 5426TIP3    H137769   4.506   1.590  10.881  0.8529  0.2854  1.4534
 5426TIP3    H237770   4.503   1.445  10.923  1.6402  0.0355  0.6571
 5427TIP3   OH237771   5.912   5.021  10.552  0.3581 -0.4490  0.2567
 5427TIP3    H137772   5.913   5.085  10.624 -0.4035 -2.3034  1.9396
 5427TIP3    H237773   5.984   5.048  10.496 -0.5337  2.4843  0.4196
 5428TIP3   OH237774   3.280   6.829  13.256  0.4249 -0.0702 -0.6025
 5428TIP3    H137775   3.348   6.896  13.268  0.0026  0.2948 -0.2200
 5428TIP3    H237776   3.200   6.870  13.289  0.5292 -1.4751  1.5224
 5429TIP3   OH237777   5.362   5.555  13.575 -0.2519 -0.1121 -0.4872
 5429TIP3    H137778   5.268   5.552  13.554 -0.0973  2.4327 -1.7166
 5429TIP3    H237779   5.404   5.581  13.494  1.2956  0.8340  0.5866
 5430TIP3   OH237780   3.973   5.827  11.663 -1.0569  0.2356 -0.3241
 5430TIP3    H137781   3.976   5.733  11.682  2.1207  0.2779 -0.3303
 5430TIP3    H237782   3.980   5.832  11.568 -2.4645  0.4763 -0.4309
 5431TIP3   OH237783   4.745   4.020  11.247 -0.3077 -0.2088 -0.4155
 5431TIP3    H137784   4.816   3.961  11.271 -0.3745 -0.2204 -0.2513
 5431TIP3    H237785   4.668   3.964  11.243 -0.6325  0.1165  1.1043
 5432TIP3   OH237786   6.368   3.852  12.934  0.1084 -0.0908  0.2851
 5432TIP3    H137787   6.454   3.880  12.967  0.6096 -1.3230  0.0274
 5432TIP3    H237788   6.324   3.815  13.010 -0.2194  0.5600  0.4228
 5433TIP3   OH237789   6.165   5.294  13.214 -0.5762 -0.7343 -0.2421
 5433TIP3    H137790   6.161   5.310  13.308  2.6740 -0.8000 -0.0342
 5433TIP3    H237791   6.174   5.198  13.206  1.1671 -0.5744 -0.4786
 5434TIP3   OH237792   4.855   3.955  10.941  0.0363 -0.3091 -0.5308
 5434TIP3    H137793   4.772   3.908  10.933 -0.9012  1.1979 -0.0073
 5434TIP3    H237794   4.894   3.950  10.854 -0.5249 -1.1916 -0.7315
 5435TIP3   OH237795   4.644   4.327  13.709 -0.2556  0.3688  0.2730
 5435TIP3    H137796   4.621   4.398  13.769  0.4823  1.6136 -0.8890
 5435TIP3    H237797   4.739   4.336  13.697 -0.0859 -1.1057  0.4788
 5436TIP3   OH237798   4.515   4.950  12.706 -0.0025 -0.2331 -0.5828
 5436TIP3    H137799   4.576   4.950  12.632 -0.5659  0.6566 -1.0535
 5436TIP3    H237800   4.430   4.929  12.667  0.1485 -2.5624  0.2243
 5437TIP3   OH237801   6.392   3.330  11.621 -0.3117  0.4725 -0.1156
 5437TIP3    H137802   6.335   3.404  11.602  0.2460  0.5373 -1.5965
 5437TIP3    H237803   6.479   3.369  11.629 -0.3466  0.2703  1.3382
 5438TIP3   OH237804   2.301   5.786  12.310  0.4665  0.4965 -0.3675
 5438TIP3    H137805   2.381   5.793  12.259  0.5292  1.9456 -0.1069
 5438TIP3    H237806   2.330   5.767  12.399  0.3730 -1.7030 -0.7880
 5439TIP3   OH237807   1.871   5.457  11.839 -0.3573  0.0504 -0.3031
 5439TIP3    H137808   1.955   5.413  11.848 -0.0064  0.6480 -0.6299
 5439TIP3    H237809   1.808   5.386  11.824  0.2000 -0.3415 -0.8214
 5440TIP3   OH237810   5.268   4.947  14.581 -0.9548  0.0805 -0.1825
 5440TIP3    H137811   5.285   5.004  14.505 -1.1134  0.8621  0.3614
 5440TIP3    H237812   5.222   5.003  14.643 -1.2509 -0.6921  0.3053
 5441TIP3   OH237813   4.779   7.148  12.144 -0.0287 -0.1074 -0.4535
 5441TIP3    H137814   4.866   7.176  12.173  0.3791 -2.4539  0.7475
 5441TIP3    H237815   4.772   7.177  12.053  0.7619  2.8246  0.3714
 5442TIP3   OH237816   3.454   6.843  15.846  0.1864  0.1424 -0.5862
 5442TIP3    H137817   3.370   6.806  15.872  0.6587 -0.2579  0.4152
 5442TIP3    H237818   3.437   6.936  15.834 -0.4220  0.0444 -0.4906
 5443TIP3   OH237819   4.155   0.235  10.567 -0.3709 -0.6211  0.1221
 5443TIP3    H137820   4.134   0.146  10.538  1.1051 -1.1854  0.6885
 5443TIP3    H237821   4.187   0.279  10.488 -2.2514 -0.2096 -0.4173
 5444TIP3   OH237822   4.366   4.809  12.499  1.0118 -0.2675  0.1326
 5444TIP3    H137823   4.289   4.760  12.530  1.4375 -0.8703  0.2379
 5444TIP3    H237824   4.407   4.751  12.435 -1.2602  1.9638 -3.5382
 5445TIP3   OH237825   5.342   3.144  11.620  0.2430  0.3668  0.2795
 5445TIP3    H137826   5.406   3.133  11.691  0.8848  0.6482 -0.2536
 5445TIP3    H237827   5.395   3.150  11.541 -0.4973 -0.3829 -0.2791
 5446TIP3   OH237828   3.368   5.036  13.279 -0.1767  0.5567  0.0748
 5446TIP3    H137829   3.357   4.947  13.243  1.0423  0.3925  0.1080
 5446TIP3    H237830   3.283   5.078  13.263  0.2230  0.3971 -2.7362
 5447TIP3   OH237831   7.299   4.056  11.531  0.0828  0.6050  0.8014
 5447TIP3    H137832   7.368   4.023  11.589 -0.5941 -1.0698  0.6962
 5447TIP3    H237833   7.219   4.013  11.562 -0.5573  0.9104 -0.3875
 5448TIP3   OH237834   4.291   5.138  13.493 -0.3592  0.3127  0.3628
 5448TIP3    H137835   4.341   5.180  13.424 -1.0857 -1.6553 -1.3994
 5448TIP3    H237836   4.331   5.170  13.574  2.6534  0.0611 -0.9726
 5449TIP3   OH237837   5.382   5.169  15.126 -0.1775  0.0377 -0.6915
 5449TIP3    H137838   5.476   5.158  15.116  0.1786  2.2871  0.0679
 5449TIP3    H237839   5.352   5.197  15.039 -0.1399 -0.5478 -0.8969
 5450TIP3   OH237840   5.487   5.236  11.398 -0.2622 -0.3473  0.4384
 5450TIP3    H137841   5.533   5.287  11.465  1.1444  0.1993 -0.9194
 5450TIP3    H237842   5.420   5.296  11.364  0.8106  0.3303 -0.5330
 5451TIP3   OH237843   6.388   3.360  11.990  0.1054 -0.2503 -0.3180
 5451TIP3    H137844   6.297   3.337  12.008 -0.3064  0.6441 -1.1999
 5451TIP3    H237845   6.417   3.295  11.927  0.6372 -1.5994  1.2743
 5452TIP3   OH237846   4.116   4.865  11.577  0.2070  0.2984  0.1814
 5452TIP3    H137847   4.187   4.909  11.530 -0.8688  0.7856 -1.0175
 5452TIP3    H237848   4.143   4.774  11.583  1.5593  0.7441  0.9426
 5453TIP3   OH237849   1.269   4.087  14.187  0.4307  0.2898 -0.5248
 5453TIP3    H137850   1.242   4.000  14.217  2.5352 -0.1794  0.1005
 5453TIP3    H237851   1.195   4.144  14.205 -0.6841 -1.2372 -0.2511
 5454TIP3   OH237852   5.958   1.363  11.518  0.4358  0.4475 -0.4298
 5454TIP3    H137853   5.999   1.445  11.544  1.6557 -0.4381  0.4668
 5454TIP3    H237854   6.030   1.309  11.485 -0.6486  0.4897 -3.0126
 5455TIP3   OH237855   5.226   6.092  12.467 -0.4586  0.1561 -0.4033
 5455TIP3    H137856   5.188   6.178  12.448 -0.9269  0.2589  1.0049
 5455TIP3    H237857   5.156   6.030  12.445  0.0476  0.0765 -1.8999
 5456TIP3   OH237858   3.219   6.122  13.709 -0.8951  0.0494  0.6769
 5456TIP3    H137859   3.198   6.029  13.698  0.1102 -0.1855  0.7044
 5456TIP3    H237860   3.236   6.132  13.803  0.5659 -0.0762  0.4327
 5457TIP3   OH237861   3.706   3.886  11.840 -0.0439  0.1275  0.1520
 5457TIP3    H137862   3.645   3.942  11.887  0.7491  0.1206  1.2083
 5457TIP3    H237863   3.770   3.859  11.906 -0.1973 -1.7083 -0.4336
 5458TIP3   OH237864   2.886   5.146  14.701 -0.0401 -0.3148 -0.3258
 5458TIP3    H137865   2.839   5.195  14.634  0.4443  0.5043 -0.0768
 5458TIP3    H237866   2.823   5.081  14.733 -1.0921  0.9513  0.2136
 5459TIP3   OH237867   4.450   0.717  11.847 -0.0126  0.0088 -0.1130
 5459TIP3    H137868   4.380   0.703  11.783  0.7610 -1.5772 -0.6286
 5459TIP3    H237869   4.411   0.776  11.912 -1.2437  0.5584 -1.3278
 5460TIP3   OH237870   3.950   5.276  12.640 -0.1784  0.6388 -0.3108
 5460TIP3    H137871   4.017   5.254  12.575 -2.0565  0.3004 -2.1778
 5460TIP3    H237872   3.946   5.200  12.697  0.9155  0.6004 -0.2709
 5461TIP3   OH237873   6.346   1.637  14.098 -0.3841 -0.1354  0.0895
 5461TIP3    H137874   6.404   1.622  14.173 -1.3947 -0.4193  0.8181
 5461TIP3    H237875   6.258   1.623  14.132 -0.9178  0.7258 -0.9115
 5462TIP3   OH237876   6.032   3.519  13.911 -0.2479  0.2237 -0.1304
 5462TIP3    H137877   6.070   3.607  13.913  0.3439  0.0032 -1.2660
 5462TIP3    H237878   6.059   3.483  13.827 -2.2388 -0.2897 -0.5733
 5463TIP3   OH237879   3.270   2.402  14.850  0.0024  0.4789  0.8375
 5463TIP3    H137880   3.246   2.418  14.941  1.6911  0.6226  1.2792
 5463TIP3    H237881   3.195   2.356  14.813 -0.9591  0.9726  2.1239
 5464TIP3   OH237882   5.243   2.873  13.330  0.0999  0.2336  0.0427
 5464TIP3    H137883   5.253   2.852  13.238  0.9247  0.8714 -0.0104
 5464TIP3    H237884   5.256   2.790  13.375  0.8780  0.1456 -0.3377
 5465TIP3   OH237885   4.585   6.006  13.862  0.0085  0.0155 -0.2460
 5465TIP3    H137886   4.568   5.940  13.929  0.7072  0.1022  0.0141
 5465TIP3    H237887   4.629   6.076  13.908  0.2976  0.1699 -0.7574
 5466TIP3   OH237888   4.378   3.121  11.177  0.1804 -0.0467  0.1674
 5466TIP3    H137889   4.341   3.125  11.265  0.6132 -1.2004  0.4093
 5466TIP3    H237890   4.471   3.141  11.189  0.3607 -0.7991  0.0604
 5467TIP3   OH237891   5.351   4.862  12.938  0.0861 -0.7039  0.2903
 5467TIP3    H137892   5.318   4.850  12.849 -2.5854  2.7361  0.6925
 5467TIP3    H237893   5.275   4.846  12.994  1.3474 -1.3499  1.8560
 5468TIP3   OH237894   5.681   6.476  12.078  0.6575 -0.2711  0.0898
 5468TIP3    H137895   5.721   6.475  11.991 -1.4977  1.0846 -0.9757
 5468TIP3    H237896   5.614   6.408  12.074  0.2833  0.0657  0.5422
 5469TIP3   OH237897   4.718   5.242  12.079  0.0749  0.7827 -0.8051
 5469TIP3    H137898   4.802   5.269  12.042  1.8156  0.3379  2.6516
 5469TIP3    H237899   4.654   5.304  12.042  1.8268  0.9082 -3.7465
 5470TIP3   OH237900   6.189   4.215  12.454 -0.0697 -0.4036 -0.4016
 5470TIP3    H137901   6.115   4.251  12.404  1.0138 -1.4357 -2.8336
 5470TIP3    H237902   6.263   4.270  12.430  0.6149 -1.3816 -0.5294
 5471TIP3   OH237903   4.394   7.109  12.571  0.0991 -0.1590  0.1305
 5471TIP3    H137904   4.441   7.124  12.653  1.2609  0.3745 -0.6284
 5471TIP3    H237905   4.334   7.183  12.564 -0.0639 -0.2520  0.5469
 5472TIP3   OH237906   6.428   4.996  15.247  0.5099  0.0488  0.5724
 5472TIP3    H137907   6.423   5.060  15.175  0.8685 -0.5014  0.0576
 5472TIP3    H237908   6.502   4.940  15.224 -0.2573 -1.0124  0.6415
 5473TIP3   OH237909   1.137   5.648  12.487 -0.5054  0.3114 -0.6726
 5473TIP3    H137910   1.109   5.729  12.444 -0.4769  1.1593  0.8866
 5473TIP3    H237911   1.210   5.616  12.433  0.8748  2.4487 -0.1413
 5474TIP3   OH237912   3.783   4.384  12.555 -0.5842 -0.1268  0.2072
 5474TIP3    H137913   3.724   4.454  12.582 -3.0344 -1.7516 -0.7971
 5474TIP3    H237914   3.855   4.429  12.510 -2.0397  1.7173 -0.3216
 5475TIP3   OH237915   5.579   5.190  10.178  0.6691 -0.1581  0.4029
 5475TIP3    H137916   5.591   5.254  10.248  0.3499 -2.0981  2.2802
 5475TIP3    H237917   5.627   5.226  10.104 -1.0758  3.1794  0.7875
 5476TIP3   OH237918   6.464   4.082  12.093  0.2057  0.4340 -0.1088
 5476TIP3    H137919   6.400   4.121  12.033 -0.0303 -0.9231 -0.7630
 5476TIP3    H237920   6.416   4.010  12.135  0.9351  0.1988  0.3239
 5477TIP3   OH237921   5.612   4.961  14.285 -0.4798  0.0182  0.5460
 5477TIP3    H137922   5.522   4.974  14.254 -0.4817 -0.5840  0.2771
 5477TIP3    H237923   5.665   5.018  14.229 -0.3451 -1.9497 -1.4189
 5478TIP3   OH237924   6.868   4.444  13.040  0.2711 -0.9425 -0.0632
 5478TIP3    H137925   6.870   4.403  13.126  0.5983 -2.5028 -0.7892
 5478TIP3    H237926   6.808   4.517  13.049  0.7255 -0.7648  1.6279
 5479TIP3   OH237927   0.163   4.595  12.204  0.3557  0.3530 -0.1795
 5479TIP3    H137928   0.147   4.667  12.143  1.2537  1.2664  0.6373
 5479TIP3    H237929   0.256   4.576  12.196  0.3163 -0.0716  0.3028
 5480TIP3   OH237930   5.189   2.626  10.924 -0.7668  0.1998 -0.2666
 5480TIP3    H137931   5.263   2.569  10.944  0.8358  1.6132 -1.9498
 5480TIP3    H237932   5.137   2.578  10.859 -1.0733 -0.5876  0.5556
 5481TIP3   OH237933   5.222   4.020  12.985  0.7561  0.4830  0.3392
 5481TIP3    H137934   5.217   4.041  13.078  0.0145 -0.4270  0.5166
 5481TIP3    H237935   5.142   3.970  12.967  0.8814  0.6565 -0.7910
 5482TIP3   OH237936   4.079   3.199  12.820 -0.2460 -0.2199  0.0407
 5482TIP3    H137937   4.032   3.278  12.846 -0.0382  0.9115 -2.7559
 5482TIP3    H237938   4.163   3.205  12.865 -0.6913  0.5317  0.7868
 5483TIP3   OH237939   3.938   5.798  11.382 -0.4294  0.2183  0.5255
 5483TIP3    H137940   3.959   5.891  11.381  0.6964 -0.0305 -0.8610
 5483TIP3    H237941   3.960   5.767  11.294  0.3520 -1.5915  1.3243
 5484TIP3   OH237942   5.218   6.944  14.414 -0.1424  0.3515 -1.1302
 5484TIP3    H137943   5.299   6.904  14.383  0.3011  1.5799 -1.6010
 5484TIP3    H237944   5.174   6.974  14.335  0.0120  1.6637 -0.7505
 5485TIP3   OH237945   4.123   2.018  12.217  0.1323  0.1028  0.0624
 5485TIP3    H137946   4.102   2.062  12.134  0.4442  0.8760  0.3913
 5485TIP3    H237947   4.068   1.940  12.217  1.8267 -1.1677 -1.9750
 5486TIP3   OH237948   5.133   1.581  11.946 -0.0884  0.3453 -0.2933
 5486TIP3    H137949   5.179   1.659  11.914 -0.6948  0.0917 -1.8120
 5486TIP3    H237950   5.200   1.530  11.991  0.4073  1.5314  0.3429
 5487TIP3   OH237951   6.470   5.294  13.222  0.6869 -0.0826 -0.0716
 5487TIP3    H137952   6.392   5.306  13.168  0.8908  1.0554 -0.1196
 5487TIP3    H237953   6.445   5.327  13.308  1.4997  1.4944 -0.4112
 5488TIP3   OH237954   4.837   7.330  11.236 -0.0332 -0.6293 -0.0114
 5488TIP3    H137955   4.869   7.418  11.215  0.2263 -0.4838  0.9543
 5488TIP3    H237956   4.913   7.274  11.224 -0.4860 -0.9016 -1.7317
 5489TIP3   OH237957   3.795   5.225  11.966 -0.1085  0.0228  0.0558
 5489TIP3    H137958   3.744   5.290  12.014  1.2784  0.2096  1.3190
 5489TIP3    H237959   3.879   5.267  11.948  0.7159 -1.2876  0.6731
 5490TIP3   OH237960   5.408   3.090  12.793  0.4639  0.1223 -0.3928
 5490TIP3    H137961   5.401   3.178  12.831 -0.3567 -0.1245  0.0331
 5490TIP3    H237962   5.325   3.048  12.815  1.1927 -1.0561  0.1431
 5491TIP3   OH237963   5.766   2.047  14.261 -0.1447 -0.0371 -0.0060
 5491TIP3    H137964   5.764   2.137  14.227 -3.5239  0.3284  1.0576
 5491TIP3    H237965   5.747   2.056  14.354 -0.4478 -1.8684  0.1163
 5492TIP3   OH237966   3.775   4.217  13.161 -0.9617  0.5850  0.5527
 5492TIP3    H137967   3.707   4.211  13.228 -1.7592  0.5151 -0.2472
 5492TIP3    H237968   3.810   4.128  13.153 -0.3288  0.7581  1.4272
 5493TIP3   OH237969   4.668   5.096  13.320 -0.1699 -0.2750 -0.4070
 5493TIP3    H137970   4.620   5.019  13.288  1.4888 -1.0756 -1.0421
 5493TIP3    H237971   4.607   5.169  13.307 -0.6714 -1.0296 -2.6381
 5494TIP3   OH237972   6.081   2.507  14.070  0.1498 -0.3779 -0.5446
 5494TIP3    H137973   5.996   2.541  14.099 -0.3625 -1.8298 -0.3333
 5494TIP3    H237974   6.134   2.586  14.055 -1.4614  0.5657 -1.4199
 5495TIP3   OH237975   0.258   1.123  11.107  0.1882 -0.3378 -0.3674
 5495TIP3    H137976   0.229   1.044  11.060  1.4834 -0.7950 -0.4125
 5495TIP3    H237977   0.226   1.196  11.053  0.7310 -0.8505 -1.3984
 5496TIP3   OH237978   5.048   5.226  11.189 -0.6129 -0.8390 -0.5103
 5496TIP3    H137979   5.040   5.306  11.241  1.7354 -0.7532 -0.2288
 5496TIP3    H237980   4.958   5.200  11.171 -1.4177  1.1802  0.4561
 5497TIP3   OH237981   1.106   6.171  13.380 -0.0732 -0.2386 -0.0852
 5497TIP3    H137982   1.036   6.234  13.399 -1.0805 -0.4339 -2.9166
 5497TIP3    H237983   1.066   6.085  13.393  0.0500 -0.3387 -0.3607
 5498TIP3   OH237984   6.821   4.095  12.945 -0.0439  0.2501 -0.4728
 5498TIP3    H137985   6.761   4.106  13.018 -1.2815  0.7007 -1.5353
 5498TIP3    H237986   6.857   4.007  12.955 -1.7768 -0.4700 -0.4768
 5499TIP3   OH237987   4.575   5.270  14.332 -0.2667  0.0489  0.0733
 5499TIP3    H137988   4.622   5.226  14.402 -1.2327 -1.2659 -0.0955
 5499TIP3    H237989   4.505   5.319  14.377 -0.7228 -0.5838  0.0641
 5500TIP3   OH237990   5.325   5.102  12.296  0.3762  0.5589  0.2803
 5500TIP3    H137991   5.343   5.190  12.264  0.3626  0.7699  0.8473
 5500TIP3    H237992   5.400   5.050  12.266  1.0093  1.0354  1.0390
 5501TIP3   OH237993   5.614   3.958  14.940 -0.2543  0.0077  0.5281
 5501TIP3    H137994   5.705   3.986  14.934 -0.3695  0.5311  1.1867
 5501TIP3    H237995   5.606   3.889  14.874  0.8563 -0.6852  1.0977
 5502TIP3   OH237996   4.590   4.992  13.719  0.1674 -0.1688 -0.0701
 5502TIP3    H137997   4.652   5.065  13.712 -2.1334  1.8751  0.0957
 5502TIP3    H237998   4.590   4.952  13.632  0.3165  1.0348 -0.6400
 5503TIP3   OH237999   4.796   4.962  10.805 -0.3901  0.0892  0.5441
 5503TIP3    H138000   4.805   4.924  10.717  1.3844 -2.2767  1.7027
 5503TIP3    H238001   4.707   4.941  10.831 -1.2008  1.4870 -0.9705
 5504TIP3   OH238002   3.282   5.813  13.726  0.0475 -0.1467  0.0730
 5504TIP3    H138003   3.374   5.791  13.736 -0.5996 -2.6046  0.8439
 5504TIP3    H238004   3.258   5.856  13.809 -0.3510 -2.6984  1.3289
 5505TIP3   OH238005   2.405   5.648  11.686 -0.2739  0.3006 -0.0273
 5505TIP3    H138006   2.395   5.554  11.674  1.0185  0.1955 -0.3061
 5505TIP3    H238007   2.356   5.666  11.767 -1.1449 -0.4753 -0.3652
 5506TIP3   OH238008   6.998   5.579  10.844  0.7895  0.0494 -0.1410
 5506TIP3    H138009   7.053   5.645  10.885  2.6197  0.1480 -2.6316
 5506TIP3    H238010   6.924   5.629  10.808 -0.3629  0.0677  2.1365
 5507TIP3   OH238011   2.934   0.055  11.654 -0.3130 -0.2583 -0.1197
 5507TIP3    H138012   2.963   0.020  11.570 -1.4312 -0.7337 -0.3144
 5507TIP3    H238013   2.841   0.075  11.641 -0.1386  1.0874  0.5402
 5508TIP3   OH238014   6.097   4.345  13.575  0.2817 -0.3376 -0.9047
 5508TIP3    H138015   6.015   4.395  13.573  0.0511 -0.7305 -1.1983
 5508TIP3    H238016   6.165   4.412  13.571 -0.0275 -0.0249 -0.9646
 5509TIP3   OH238017   3.821   4.579  12.315 -0.5407 -0.0072 -0.4279
 5509TIP3    H138018   3.772   4.632  12.252 -0.3959  1.8224  0.9749
 5509TIP3    H238019   3.781   4.599  12.399  1.3277 -0.0206  0.4722
 5510TIP3   OH238020   3.535   4.982  10.785  0.4700 -0.2700 -0.4498
 5510TIP3    H138021   3.629   4.963  10.788  0.5699  0.3039  0.4520
 5510TIP3    H238022   3.512   4.976  10.693  1.2148 -1.2854 -0.5772
 5511TIP3   OH238023   6.166   2.335  13.717  0.3331 -0.1274  0.0858
 5511TIP3    H138024   6.135   2.368  13.633 -0.4865  3.6457  1.7770
 5511TIP3    H238025   6.251   2.378  13.730 -0.4144  0.8313  2.0215
 5512TIP3   OH238026   6.541   3.145  13.760  0.2975  0.9647  0.5033
 5512TIP3    H138027   6.530   3.102  13.676  0.0832  0.5849  0.7274
 5512TIP3    H238028   6.502   3.085  13.824 -0.9348  1.9616  0.7010
 5513TIP3   OH238029   4.847   5.698  12.903  0.4730 -0.4411  0.2543
 5513TIP3    H138030   4.777   5.740  12.853  1.3567  1.2020  0.3509
 5513TIP3    H238031   4.814   5.696  12.993  0.2571 -0.3231  0.1785
 5514TIP3   OH238032   6.017   5.651  12.709 -0.1469 -0.0662  0.6185
 5514TIP3    H138033   6.091   5.697  12.748 -1.7798  1.3607  2.1506
 5514TIP3    H238034   5.989   5.709  12.637 -1.5772  0.8848  1.9114
 5515TIP3   OH238035   3.887   3.908  10.958 -0.0076  0.1189  0.2739
 5515TIP3    H138036   3.849   3.820  10.951  1.9019 -0.9812  2.9406
 5515TIP3    H238037   3.979   3.897  10.935  0.8787  0.8452  3.2381
 5516TIP3   OH238038   5.095   2.886  10.830 -0.1118 -0.4693  0.3747
 5516TIP3    H138039   5.136   2.811  10.873  0.3409 -0.0980  0.5942
 5516TIP3    H238040   5.073   2.854  10.742  0.5439 -0.7041  0.2924
 5517TIP3   OH238041   5.236   4.169  12.747  0.5845 -0.2215  0.0177
 5517TIP3    H138042   5.324   4.192  12.717  0.5001 -0.4634 -0.4268
 5517TIP3    H238043   5.250   4.119  12.828  0.8774 -0.6034 -0.2627
 5518TIP3   OH238044   4.911   3.919  12.872  0.4726  0.2287 -0.0739
 5518TIP3    H138045   4.865   3.980  12.928 -1.8714 -0.1932 -1.4693
 5518TIP3    H238046   4.930   3.969  12.792  2.6590  0.4649  0.5730
 5519TIP3   OH238047   5.765   2.507  11.517  0.6956  0.3392 -0.8235
 5519TIP3    H138048   5.829   2.490  11.585  0.5284  1.4944 -0.3538
 5519TIP3    H238049   5.734   2.421  11.490  1.8793 -0.1894 -0.5157
 5520TIP3   OH238050   3.672   5.434  11.756  0.8835 -0.2989 -0.3328
 5520TIP3    H138051   3.644   5.416  11.845 -0.1132 -0.7036 -0.7174
 5520TIP3    H238052   3.596   5.412  11.702  0.9145  1.4868 -1.1486
 5521TIP3   OH238053   5.819   2.987  10.087  0.0216 -0.4081 -0.2302
 5521TIP3    H138054   5.773   2.969  10.005 -2.0364  0.8243  0.6102
 5521TIP3    H238055   5.900   3.031  10.060  0.1577 -1.5166 -1.6718
 5522TIP3   OH238056   3.506   1.838  13.124  0.3079 -0.4624  0.2489
 5522TIP3    H138057   3.541   1.785  13.051  2.4841  0.8643  0.2791
 5522TIP3    H238058   3.575   1.835  13.190 -0.6472  0.3284  1.2935
 5523TIP3   OH238059   4.972   3.167  11.150 -0.3739 -0.1832  0.3315
 5523TIP3    H138060   5.014   3.246  11.184  1.0113 -0.8877  0.2659
 5523TIP3    H238061   5.005   3.158  11.061 -2.8941  0.8565 -0.7544
 5524TIP3   OH238062   5.084   5.631  10.622  0.4157  0.0176 -0.5645
 5524TIP3    H138063   5.178   5.621  10.634  0.1469 -0.3902  1.3975
 5524TIP3    H238064   5.059   5.555  10.569  0.9865 -0.6469  0.0986
 5525TIP3   OH238065   4.626   3.668  11.590  0.2203  0.0078  0.0549
 5525TIP3    H138066   4.654   3.759  11.591  1.1088 -0.2439 -0.5694
 5525TIP3    H238067   4.707   3.618  11.598 -0.0142 -0.7452 -1.9875
 5526TIP3   OH238068   3.381   2.038  13.300  0.0402 -0.2073  0.4062
 5526TIP3    H138069   3.303   2.071  13.345 -2.5399 -1.1261 -3.1645
 5526TIP3    H238070   3.380   1.944  13.317 -1.3787 -0.6787 -2.0361
 5527TIP3   OH238071   1.282   6.752  11.226 -0.0432 -0.5427  0.4584
 5527TIP3    H138072   1.347   6.691  11.192 -1.2625  0.2735 -3.7595
 5527TIP3    H238073   1.199   6.705  11.217 -0.5566  0.2555  0.9724
 5528TIP3   OH238074   5.561   3.922  12.481 -0.2488  0.9255  0.5362
 5528TIP3    H138075   5.643   3.918  12.530  0.5722  2.4390 -0.6518
 5528TIP3    H238076   5.494   3.891  12.542  0.7987  2.3153  2.4199
 5529TIP3   OH238077   4.898   3.595  15.474  0.0030 -0.0014  0.6433
 5529TIP3    H138078   4.986   3.628  15.492  0.0055  0.0776  0.4946
 5529TIP3    H238079   4.901   3.504  15.502 -0.0299  0.1517  1.1410
 5530TIP3   OH238080   7.077   5.867  13.453  0.0674 -0.3637 -0.0291
 5530TIP3    H138081   7.086   5.959  13.477 -0.7883 -0.6516  1.4445
 5530TIP3    H238082   7.097   5.819  13.533  0.3528 -1.4635 -0.7496
 5531TIP3   OH238083   7.125   5.915  12.824 -0.4315 -0.0203 -0.2019
 5531TIP3    H138084   7.200   5.942  12.877 -0.8311 -0.0945  0.4158
 5531TIP3    H238085   7.148   5.829  12.791 -1.1701 -1.0569  1.8705
 5532TIP3   OH238086   4.875   2.489  14.701 -0.7301  0.4411  0.0579
 5532TIP3    H138087   4.936   2.424  14.735 -0.3479  0.3231 -0.8397
 5532TIP3    H238088   4.835   2.447  14.624 -0.6299  1.1741 -0.4037
 5533TIP3   OH238089   0.256   5.691  12.451 -0.1524  0.3096 -0.1333
 5533TIP3    H138090   0.254   5.684  12.356 -1.8930 -0.4452 -0.0584
 5533TIP3    H238091   0.288   5.606  12.481  1.4086  0.8994 -0.0592
 5534TIP3   OH238092   7.042   5.179  10.613  0.3992  0.0657 -0.0165
 5534TIP3    H138093   6.982   5.191  10.540 -0.8659 -0.8735  0.8550
 5534TIP3    H238094   6.990   5.195  10.691  1.3036 -0.6049  0.7439
 5535TIP3   OH238095   4.578   5.478  13.533  0.6775  0.1814  0.3688
 5535TIP3    H138096   4.624   5.561  13.542  0.4296  0.2923  0.6098
 5535TIP3    H238097   4.487   5.498  13.553  0.8100 -0.3811  1.5585
 5536TIP3   OH238098   6.164   3.602  12.296 -0.0571 -0.1224  0.1878
 5536TIP3    H138099   6.089   3.640  12.250  0.2279  0.5704  0.2955
 5536TIP3    H238100   6.155   3.508  12.281 -0.0034  0.0889 -1.2178
 5537TIP3   OH238101   1.865   6.377  13.261 -0.6659  0.1884 -0.3647
 5537TIP3    H138102   1.780   6.344  13.233 -0.6065  0.9198 -1.4187
 5537TIP3    H238103   1.847   6.465  13.294 -0.1379  0.8055 -1.7062
 5538TIP3   OH238104   2.318   6.118  13.679 -0.2081  0.0187 -0.4323
 5538TIP3    H138105   2.336   6.033  13.720 -2.0429 -0.2373 -0.0782
 5538TIP3    H238106   2.400   6.166  13.687  0.3652 -1.1178  0.8893
 5539TIP3   OH238107   4.958   1.938  12.727 -0.0620 -0.2751  0.5318
 5539TIP3    H138108   4.883   1.972  12.678 -0.4518  0.9326  1.9230
 5539TIP3    H238109   5.030   1.996  12.705  0.3256 -1.0692 -0.3255
 5540TIP3   OH238110   4.677   2.720  12.024 -0.2832 -0.6250  0.1307
 5540TIP3    H138111   4.689   2.662  11.948 -2.0424 -2.1089  0.9337
 5540TIP3    H238112   4.709   2.668  12.098 -0.4554  0.0266  0.6603
 5541TIP3   OH238113   5.453   5.452  13.274 -0.4562  0.1175 -0.0942
 5541TIP3    H138114   5.419   5.539  13.252 -0.7150  0.0249 -0.0718
 5541TIP3    H238115   5.548   5.462  13.274 -0.5117  0.7653  1.4249
 5542TIP3   OH238116   4.994   2.740  10.577 -0.5437 -0.2167 -0.4222
 5542TIP3    H138117   4.909   2.696  10.573 -1.1636  0.8904  0.1120
 5542TIP3    H238118   4.977   2.828  10.543  0.0449  0.4830  1.0116
 5543TIP3   OH238119   7.203   5.257  11.639 -0.4827  0.5506  0.5991
 5543TIP3    H138120   7.171   5.336  11.683  3.4306  2.2408  0.5948
 5543TIP3    H238121   7.236   5.202  11.710 -0.2160  0.3536  0.3193
 5544TIP3   OH238122   4.322   6.605  13.630 -0.3621 -0.0211 -0.4301
 5544TIP3    H138123   4.302   6.597  13.537 -0.6580  0.7486 -0.4395
 5544TIP3    H238124   4.374   6.527  13.651 -1.1378 -0.6995 -1.0078
 5545TIP3   OH238125   7.339   4.874  11.525 -0.1550  0.1284  0.1796
 5545TIP3    H138126   7.331   4.797  11.582 -1.2594 -0.1781 -0.3763
 5545TIP3    H238127   7.396   4.846  11.454 -0.4360 -0.1348  0.0569
 5546TIP3   OH238128   7.011   4.280  12.555 -0.4818  0.5401  0.2208
 5546TIP3    H138129   6.949   4.281  12.628 -0.9800  2.1873 -0.1947
 5546TIP3    H238130   6.962   4.318  12.481 -0.0645 -1.3095 -1.0504
 5547TIP3   OH238131   7.253   6.084  12.117 -0.2332 -0.0551  0.4102
 5547TIP3    H138132   7.321   6.105  12.052 -0.6056  0.3013  0.1313
 5547TIP3    H238133   7.175   6.066  12.064  0.2219 -2.7522  0.6154
 5548TIP3   OH238134   0.885   3.605  12.488 -1.0864 -0.1600 -0.4929
 5548TIP3    H138135   0.970   3.575  12.520 -0.5560  1.6839 -0.1301
 5548TIP3    H238136   0.843   3.526  12.453  0.5765 -1.1647 -0.2517
 5549TIP3   OH238137   5.958   3.074  12.843  0.4983  0.1201  0.1900
 5549TIP3    H138138   5.981   3.165  12.825 -2.8672  0.4360 -3.2308
 5549TIP3    H238139   5.970   3.065  12.938  2.7793  3.5031  0.3266
 5550TIP3   OH238140   6.574   3.272  11.131  0.2684  0.3858 -0.7505
 5550TIP3    H138141   6.666   3.296  11.121  0.7031 -1.1106 -0.3268
 5550TIP3    H238142   6.558   3.278  11.226 -0.0990  0.7318 -0.8319
 5551TIP3   OH238143   0.325   4.739  12.995 -0.6694  0.7428  0.3357
 5551TIP3    H138144   0.326   4.687  13.075  0.7846 -1.7086 -1.1693
 5551TIP3    H238145   0.347   4.828  13.023  1.8567 -0.4624  2.4211
 5552TIP3   OH238146   7.220   3.552  11.960 -0.3854  0.1114 -0.0045
 5552TIP3    H138147   7.132   3.537  11.995 -0.7093  0.8011 -0.5206
 5552TIP3    H238148   7.251   3.630  12.007 -0.9272  1.2059 -1.4345
 5553TIP3   OH238149   3.756   1.892  14.095 -0.6058  0.1491 -0.1736
 5553TIP3    H138150   3.706   1.969  14.069 -2.3858 -0.7547  0.5226
 5553TIP3    H238151   3.732   1.825  14.032  0.1098 -0.1605 -0.1245
 5554TIP3   OH238152   0.431   5.452  12.464 -0.6271 -0.0675  0.3602
 5554TIP3    H138153   0.394   5.403  12.391 -2.1929  3.2161 -1.1621
 5554TIP3    H238154   0.525   5.458  12.444 -0.5406 -1.6642  0.1788
 5555TIP3   OH238155   0.325   4.005  13.606 -0.2088  0.5234  0.2511
 5555TIP3    H138156   0.320   3.958  13.523 -0.7723  1.6831 -0.3844
 5555TIP3    H238157   0.397   3.962  13.653  0.1790 -0.0892 -0.8696
 5556TIP3   OH238158   6.765   4.806  13.515  0.2055 -0.3384 -0.0932
 5556TIP3    H138159   6.677   4.791  13.480  0.5696  1.6860 -2.0333
 5556TIP3    H238160   6.761   4.778  13.606 -2.1536 -1.2524 -0.4568
 5557TIP3   OH238161   6.450   6.066  12.255  0.0034 -0.0062  0.2846
 5557TIP3    H138162   6.371   6.102  12.294 -0.0787 -1.3102  1.3613
 5557TIP3    H238163   6.428   5.975  12.234  0.8228 -0.0256 -0.5667
 5558TIP3   OH238164   6.416   4.897  10.494  0.3180  0.0362  0.5239
 5558TIP3    H138165   6.442   4.836  10.564 -1.1383 -0.8605  0.3193
 5558TIP3    H238166   6.416   4.843  10.415 -0.4233  0.4310  0.2493
 5559TIP3   OH238167   6.674   4.640  12.076 -0.3248  0.2979 -0.0523
 5559TIP3    H138168   6.581   4.656  12.093 -0.6418 -1.7303  0.3265
 5559TIP3    H238169   6.718   4.665  12.157 -1.1230 -3.2578  1.5965
 5560TIP3   OH238170   7.304   4.430  12.356 -0.0853 -0.2486  0.7364
 5560TIP3    H138171   7.383   4.475  12.324  0.4481  2.4444  5.2067
 5560TIP3    H238172   7.334   4.342  12.379  1.0713 -0.0273  0.1076
 5561TIP3   OH238173   2.423   4.601  12.904  0.3531  0.2734  0.8324
 5561TIP3    H138174   2.434   4.628  12.995  0.4735  1.6116  0.4283
 5561TIP3    H238175   2.357   4.532  12.908 -1.0573  1.6269  1.7339
 5562TIP3   OH238176   5.167   7.203  12.898 -0.3858 -0.6762  0.1075
 5562TIP3    H138177   5.155   7.182  12.990  1.1461  1.2555  0.7833
 5562TIP3    H238178   5.248   7.158  12.873  0.7558  1.0923  0.5093
 5563TIP3   OH238179   1.123   5.485  12.954 -0.6048 -0.1544  0.5455
 5563TIP3    H138180   1.179   5.407  12.951 -1.9948 -1.3359  3.4317
 5563TIP3    H238181   1.185   5.558  12.965  0.5047 -1.3066  2.3577
 5564TIP3   OH238182   5.329   4.314  13.266 -0.1312 -0.3989  0.2316
 5564TIP3    H138183   5.353   4.353  13.181  1.0197  2.2302  1.7103
 5564TIP3    H238184   5.412   4.298  13.310 -0.7610 -0.6625  1.3447
 5565TIP3   OH238185   0.085   4.840  13.614  0.2756 -0.1946 -0.1003
 5565TIP3    H138186   0.169   4.844  13.660 -0.6929  0.6401  1.6746
 5565TIP3    H238187   0.040   4.765  13.654  0.0080 -0.3809 -0.7508
 5566TIP3   OH238188   0.317   4.496  14.348  0.2538 -0.6606 -0.1653
 5566TIP3    H138189   0.270   4.516  14.429  2.6115 -0.1492  1.1303
 5566TIP3    H238190   0.374   4.423  14.371  0.9947 -0.4684 -1.3374
 5567TIP3   OH238191   6.960   6.691  12.138 -0.3748  0.2657 -0.5338
 5567TIP3    H138192   7.017   6.756  12.098  0.7779 -0.0650  0.5264
 5567TIP3    H238193   6.872   6.726  12.126  0.0333  0.7626 -2.2207
 5568TIP3   OH238194   5.535   5.824  11.052  0.3200 -0.8153  0.2782
 5568TIP3    H138195   5.616   5.852  11.008  1.0442 -0.3785  1.8490
 5568TIP3    H238196   5.551   5.732  11.075  0.3212 -0.7630  0.4834
 5569TIP3   OH238197   5.047   5.080  12.613 -0.1839  0.0717  0.4605
 5569TIP3    H138198   4.964   5.126  12.623 -0.9940 -1.4121  0.6361
 5569TIP3    H238199   5.108   5.147  12.582 -1.6584  0.9795 -0.5200
 5570TIP3   OH238200   6.492   4.584  10.078 -0.1151 -0.0902 -0.0668
 5570TIP3    H138201   6.421   4.625  10.028  1.6963  0.1009 -2.5579
 5570TIP3    H238202   6.477   4.612  10.169 -3.4447 -0.4034 -0.4664
 5571TIP3   OH238203   5.538   5.034  10.521  0.1649  0.5109 -0.5442
 5571TIP3    H138204   5.518   4.981  10.598 -0.6274  1.5749 -0.0124
 5571TIP3    H238205   5.551   4.970  10.451 -1.1168 -0.3709  0.0046
 5572TIP3   OH238206   6.907   5.551  12.098  0.3808  0.0317  0.7767
 5572TIP3    H138207   6.950   5.553  12.013 -0.0393 -0.9126  0.5336
 5572TIP3    H238208   6.830   5.607  12.087  0.3765 -0.0153  0.5623
 5573TIP3   OH238209   5.513   5.124  13.169 -0.6950 -0.2352  0.4104
 5573TIP3    H138210   5.418   5.125  13.181 -0.5438  1.1101  1.5610
 5573TIP3    H238211   5.529   5.190  13.102 -0.6086 -0.7944 -0.1233
 5574TIP3   OH238212   6.155   4.444  15.713 -0.4582  0.4039  0.0898
 5574TIP3    H138213   6.115   4.489  15.638 -2.4150  0.0216  0.8721
 5574TIP3    H238214   6.115   4.357  15.713 -0.4171  0.3710  1.5158
 5575TIP3   OH238215   7.319   6.292  12.266  0.0149 -0.3471 -0.0448
 5575TIP3    H138216   7.278   6.215  12.227 -0.3783 -0.0500 -0.2199
 5575TIP3    H238217   7.253   6.361  12.259  0.9203  0.4270 -1.2976
 5576TIP3   OH238218   6.162   3.079  13.351  0.9155  0.2429 -0.2329
 5576TIP3    H138219   6.251   3.105  13.328  1.4987  0.1642  1.8187
 5576TIP3    H238220   6.141   3.131  13.429 -0.8738  0.3354 -0.7526
 5577TIP3   OH238221   7.248   4.103  10.440 -0.4496 -0.7949 -0.1646
 5577TIP3    H138222   7.306   4.083  10.367  0.6264  1.2339  0.0858
 5577TIP3    H238223   7.184   4.033  10.440  0.7822 -1.9614 -1.7479
 5578TIP3   OH238224   5.547   4.855  13.130 -0.3718  0.5219 -0.2544
 5578TIP3    H138225   5.550   4.948  13.151  0.8032  0.0296  1.8016
 5578TIP3    H238226   5.492   4.851  13.051 -0.9534  2.8731 -0.0137
 5579TIP3   OH238227   0.479   4.022  12.440 -0.4180  0.1995  0.3412
 5579TIP3    H138228   0.404   4.081  12.445 -1.1817 -0.5640 -1.2952
 5579TIP3    H238229   0.445   3.938  12.471  0.4597  0.4364  1.9749
 5580TIP3   OH238230   5.469   5.257  13.536  0.7476  0.3550  0.1534
 5580TIP3    H138231   5.490   5.303  13.454  0.9187  0.0826  0.0438
 5580TIP3    H238232   5.501   5.168  13.522  2.2182  0.7141  1.1055
 5581TIP3   OH238233   7.044   3.286  13.984  0.1105 -0.4355 -0.4879
 5581TIP3    H138234   7.095   3.221  13.935  1.1207 -1.6268  2.0550
 5581TIP3    H238235   6.962   3.241  14.004  0.3656 -0.5552  0.3162
 5582TIP3   OH238236   6.104   2.104  13.510  0.0540  0.1971 -0.4680
 5582TIP3    H138237   6.131   2.022  13.468 -0.2904  0.0318 -0.3681
 5582TIP3    H238238   6.164   2.113  13.585  0.3270  0.2233 -0.6892
 5583TIP3   OH238239   6.788   3.815  12.671 -0.1464 -0.2647  0.6710
 5583TIP3    H138240   6.828   3.890  12.626 -0.3920  0.4245  1.6101
 5583TIP3    H238241   6.750   3.763  12.600  0.2165  0.3789 -0.0046
 5584TIP3   OH238242   2.202   6.090  13.060  0.4281 -0.2713  0.2949
 5584TIP3    H138243   2.292   6.101  13.090  0.9743  0.1982 -1.4753
 5584TIP3    H238244   2.204   6.011  13.006 -0.2603 -0.3566  0.3874
 5585TIP3   OH238245   0.171   4.483  11.400  0.2116 -0.5302 -0.5228
 5585TIP3    H138246   0.087   4.503  11.442  1.0028  2.0798 -0.0955
 5585TIP3    H238247   0.201   4.567  11.365  2.8540 -1.3278 -0.3101
 5586TIP3   OH238248   6.935   4.963  10.431  0.3032 -0.2062  0.4413
 5586TIP3    H138249   6.986   4.908  10.371 -0.6925 -1.5972  0.8611
 5586TIP3    H238250   6.981   5.047  10.430  0.5782 -0.3331 -1.9056
 5587TIP3   OH238251   6.634   2.084  12.340 -0.1461 -0.2693  0.0281
 5587TIP3    H138252   6.668   2.173  12.332  1.6052 -0.9757 -0.6848
 5587TIP3    H238253   6.559   2.082  12.281 -0.7396  0.9854  0.7227
 5588TIP3   OH238254   0.407   5.985  12.504 -0.8375  0.2925  0.1120
 5588TIP3    H138255   0.461   6.032  12.567  0.3782  0.8504 -1.3186
 5588TIP3    H238256   0.392   5.899  12.545  2.8209 -0.6244 -0.3075
 5589TIP3   OH238257   0.706   4.309  11.457 -0.6067  0.0423 -0.2611
 5589TIP3    H138258   0.771   4.251  11.496 -1.3432 -0.5421  0.0778
 5589TIP3    H238259   0.623   4.264  11.466 -0.8092 -0.1053 -2.4628
 5590TIP3   OH238260   6.388   5.378  13.454  0.5678 -0.2904 -0.1825
 5590TIP3    H138261   6.472   5.394  13.496  1.1289 -0.2321 -1.3347
 5590TIP3    H238262   6.327   5.367  13.527  1.3329  0.9181  0.6489
 5591TIP3   OH238263   6.249   4.206  11.949 -0.4112  0.1914  0.5296
 5591TIP3    H138264   6.283   4.234  11.864 -0.2976 -0.9188  0.2024
 5591TIP3    H238265   6.156   4.228  11.945 -0.3797  0.2695  0.1779
 5592TIP3   OH238266   6.308   3.499  12.539  0.5066 -0.5807 -0.1940
 5592TIP3    H138267   6.261   3.579  12.515  0.2908 -0.9941 -1.1474
 5592TIP3    H238268   6.344   3.466  12.457  1.5697 -0.8484  0.3778
 5593TIP3   OH238269   6.541   2.949  15.145 -0.2802  0.4133 -0.8716
 5593TIP3    H138270   6.534   3.027  15.200 -0.3471 -0.0870 -0.1777
 5593TIP3    H238271   6.453   2.912  15.144 -0.5369  1.0310 -2.2138
 5594TIP3   OH238272   4.844   1.038  13.430  0.1174  0.0752  0.0265
 5594TIP3    H138273   4.936   1.063  13.436 -0.1790  0.8870  1.3561
 5594TIP3    H238274   4.808   1.094  13.361  0.7296 -0.6353 -0.8880
 5595TIP3   OH238275   0.711   3.356  10.871  0.6820 -0.6709 -0.2010
 5595TIP3    H138276   0.791   3.409  10.871  0.9889 -1.1302  0.9832
 5595TIP3    H238277   0.646   3.412  10.828  1.3235  0.1756 -0.0979
 5596TIP3   OH238278   5.226   4.079  11.614  0.1642 -0.0530  0.4529
 5596TIP3    H138279   5.222   4.169  11.645  1.1569 -0.5052  1.9456
 5596TIP3    H238280   5.230   4.086  11.518 -0.0576  1.4557  0.5510
 5597TIP3   OH238281   7.113   4.946  11.858 -0.2464 -0.4599  0.2865
 5597TIP3    H138282   7.184   4.987  11.907 -0.0575 -0.1359 -0.2531
 5597TIP3    H238283   7.044   5.012  11.853 -1.3591 -1.4207  2.4351
 5598TIP3   OH238284   6.475   3.228  12.591  0.5706 -0.4189 -0.4068
 5598TIP3    H138285   6.419   3.258  12.664  2.0083 -0.2434  0.6502
 5598TIP3    H238286   6.473   3.133  12.597 -0.1156 -0.4310 -0.7628
 5599TIP3   OH238287   4.225   3.456  13.187  0.4098 -0.3590  0.0417
 5599TIP3    H138288   4.154   3.473  13.248  0.1198  1.2820 -0.7189
 5599TIP3    H238289   4.210   3.518  13.115  2.6383  0.0642 -0.0999
 5600TIP3   OH238290   4.520   2.372  13.603  0.7122  0.1677  0.1271
 5600TIP3    H138291   4.504   2.429  13.528 -0.6229  1.9608  1.6791
 5600TIP3    H238292   4.502   2.284  13.572 -0.7133  0.9830 -1.4121
 5601TIP3   OH238293   0.638   6.082  15.121 -0.4830  0.3771  0.0037
 5601TIP3    H138294   0.731   6.065  15.106  0.0848  0.8089  2.8148
 5601TIP3    H238295   0.608   6.008  15.174 -0.4553  2.7716  3.5187
 5602TIP3   OH238296   6.068   4.244  11.637 -0.3897 -0.0186  0.0753
 5602TIP3    H138297   5.997   4.202  11.686  0.7005  0.3538  2.0067
 5602TIP3    H238298   6.084   4.326  11.683  0.4939  0.4392 -1.0388
 5603TIP3   OH238299   2.268   4.286  12.747 -0.4042  0.3654  0.3992
 5603TIP3    H138300   2.235   4.313  12.832  0.3463 -0.2437  0.8980
 5603TIP3    H238301   2.297   4.195  12.760 -0.5093  0.1801 -0.5643
 5604TIP3   OH238302   6.286   3.969  15.983  0.1663 -0.3988  0.0217
 5604TIP3    H138303   6.364   3.918  16.003  1.1901  1.0457 -0.1919
 5604TIP3    H238304   6.300   4.000  15.894 -1.2655 -1.2181 -0.4978
 5605TIP3   OH238305   5.169   5.044  13.670 -0.4172 -0.1372 -0.0069
 5605TIP3    H138306   5.213   5.120  13.633 -0.6658  0.1486  0.2705
 5605TIP3    H238307   5.169   4.979  13.600  1.0227 -0.3828  0.2010
 5606TIP3   OH238308   1.568   3.287  12.124  0.1032  0.0366 -0.1705
 5606TIP3    H138309   1.474   3.304  12.120  0.0012 -0.5306 -0.2841
 5606TIP3    H238310   1.576   3.194  12.104  0.4788 -0.5614  2.5603
 5607TIP3   OH238311   2.241   4.413  14.145 -0.1859 -0.2995  0.2825
 5607TIP3    H138312   2.182   4.472  14.193 -0.0926  1.3533 -1.5960
 5607TIP3    H238313   2.194   4.392  14.064  1.1559 -0.1919 -0.5333
 5608TIP3   OH238314   6.489   3.190  10.551  0.0186  0.2704 -0.3718
 5608TIP3    H138315   6.399   3.194  10.584 -0.1057  2.0998 -0.8847
 5608TIP3    H238316   6.521   3.280  10.558  1.1576  0.0139 -2.0506
 5609TIP3   OH238317   1.865   4.392  14.312 -0.0233  0.0136  0.1680
 5609TIP3    H138318   1.776   4.356  14.316 -0.0336  0.0364  0.1372
 5609TIP3    H238319   1.919   4.319  14.281 -0.2023  0.3232 -0.8980
 5610TIP3   OH238320   3.823   3.196  10.880 -0.2892  0.3661 -0.1218
 5610TIP3    H138321   3.885   3.159  10.818 -0.1495  2.9442 -1.6014
 5610TIP3    H238322   3.755   3.129  10.890  0.6566 -0.8319 -1.6029
 5611TIP3   OH238323   4.793   6.005  11.226 -0.0741  0.1289  0.0287
 5611TIP3    H138324   4.784   6.099  11.237  1.5250  0.1272  1.4752
 5611TIP3    H238325   4.742   5.985  11.147 -0.8818  2.1039  0.0322
 5612TIP3   OH238326   0.117   3.396  13.701  0.8211  0.2189 -0.3516
 5612TIP3    H138327   0.097   3.335  13.772 -0.8803  1.4289  0.2531
 5612TIP3    H238328   0.076   3.358  13.624 -0.0955  0.4985 -0.0103
 5613TIP3   OH238329   6.541   2.705  13.603  0.0732 -0.8290 -0.5559
 5613TIP3    H138330   6.490   2.642  13.552 -0.3108 -0.7286 -0.3019
 5613TIP3    H238331   6.504   2.790  13.580  1.3697 -0.5986 -1.7838
 5614TIP3   OH238332   5.166   6.196  14.312 -0.2580  0.0666  0.0300
 5614TIP3    H138333   5.124   6.267  14.263 -2.2814  0.3214  2.0876
 5614TIP3    H238334   5.164   6.224  14.403  2.6557 -0.8184  0.4222
 5615TIP3   OH238335   3.068   7.205  13.448 -0.5543  0.4758 -0.2877
 5615TIP3    H138336   3.159   7.227  13.465 -0.1013 -0.7059 -1.1357
 5615TIP3    H238337   3.071   7.117  13.410 -1.9810  0.7906 -1.1576
 5616TIP3   OH238338   7.134   4.696  11.738  0.0821  0.7766  0.0742
 5616TIP3    H138339   7.098   4.623  11.789 -0.8753 -0.2295 -1.9927
 5616TIP3    H238340   7.111   4.774  11.789 -0.0166 -0.2589  1.6497
 5617TIP3   OH238341   1.207   6.063  12.589 -0.3176 -1.0060  0.9604
 5617TIP3    H138342   1.203   6.140  12.645 -0.4168 -0.7603  0.6225
 5617TIP3    H238343   1.244   5.994  12.644 -0.7595 -0.8673  1.4304
 5618TIP3   OH238344   4.975   5.855  14.429  0.7101  0.0807 -0.2466
 5618TIP3    H138345   4.882   5.830  14.431  1.0318 -1.0576  2.3230
 5618TIP3    H238346   4.976   5.946  14.458  0.4407 -0.1544  0.5238
 5619TIP3   OH238347   0.086   5.231  10.122  0.0041 -0.1901  0.0944
 5619TIP3    H138348   0.098   5.142  10.154  0.8853  0.1512  0.7242
 5619TIP3    H238349   0.045   5.278  10.196  0.5549  0.1978  0.1548
 5620TIP3   OH238350   5.954   2.660  13.765  0.2963  0.1948  0.0101
 5620TIP3    H138351   6.043   2.684  13.792  0.5650 -2.1325  1.3184
 5620TIP3    H238352   5.960   2.567  13.742 -1.6421  0.2104 -0.6368
 5621TIP3   OH238353   0.683   6.669  12.168  0.0883 -0.5222 -0.0440
 5621TIP3    H138354   0.692   6.575  12.153 -0.9267 -0.6382  0.0780
 5621TIP3    H238355   0.591   6.688  12.150  0.1360  0.3323  0.5927
 5622TIP3   OH238356   0.750   4.832  12.817 -0.1062  0.2869 -0.2791
 5622TIP3    H138357   0.665   4.875  12.807 -0.1117  0.4550  0.4930
 5622TIP3    H238358   0.814   4.902  12.803 -0.1167  0.6318  1.2712
 5623TIP3   OH238359   2.862   5.358  14.910  0.2139  0.2404 -0.0424
 5623TIP3    H138360   2.886   5.282  14.962  1.7575  0.4201 -0.4744
 5623TIP3    H238361   2.833   5.322  14.826 -0.6454  0.0517  0.3270
 5624TIP3   OH238362   0.487   4.865  10.723 -0.3856  0.7968 -0.0264
 5624TIP3    H138363   0.506   4.771  10.722  0.5384  0.9373  2.2565
 5624TIP3    H238364   0.464   4.885  10.632 -0.9872 -1.6978 -0.4684
 5625TIP3   OH238365   6.330   4.573  13.063  0.4145  0.4531 -0.0682
 5625TIP3    H138366   6.360   4.622  12.987  0.7443  1.1291  0.4957
 5625TIP3    H238367   6.342   4.633  13.137  1.3698 -0.6916  0.7102
 5626TIP3   OH238368   5.731   1.782  12.502 -0.1183  0.5742 -0.1545
 5626TIP3    H138369   5.772   1.740  12.578 -1.3258  0.2821  0.3446
 5626TIP3    H238370   5.781   1.862  12.489  1.3591 -0.3410 -0.2784
 5627TIP3   OH238371   5.795   3.967  12.620 -0.0161  0.1404  0.0297
 5627TIP3    H138372   5.849   3.921  12.556  0.2951 -1.5302  1.4556
 5627TIP3    H238373   5.857   4.027  12.664 -0.0489  0.6611 -0.6283
 5628TIP3   OH238374   1.140   4.507  13.674  0.2513 -0.3378  0.2038
 5628TIP3    H138375   1.082   4.485  13.601 -0.5467  1.9622  0.1145
 5628TIP3    H238376   1.226   4.477  13.645 -0.2954 -0.6898 -1.0991
 5629TIP3   OH238377   6.527   4.715  13.472 -0.3034  0.5531  0.2952
 5629TIP3    H138378   6.484   4.735  13.555 -0.5559  1.0319  0.0504
 5629TIP3    H238379   6.456   4.702  13.409 -0.1536 -1.2131  0.4575
 5630TIP3   OH238380   6.263   1.705  11.425 -0.1440 -0.0765  0.2424
 5630TIP3    H138381   6.283   1.685  11.517 -0.4164  1.5491  0.6784
 5630TIP3    H238382   6.338   1.672  11.376  2.0591  2.8429  1.4977
 5631TIP3   OH238383   5.541   5.253  12.458  0.1333 -0.1472 -0.4597
 5631TIP3    H138384   5.493   5.274  12.378  0.4553 -0.9506 -0.8740
 5631TIP3    H238385   5.633   5.269  12.435  0.2832 -0.9804 -0.4531
 5632TIP3   OH238386   1.595   2.143   0.516  0.1039 -0.1021 -0.6207
 5632TIP3    H138387   1.590   2.078   0.586 -0.2629 -0.8343 -1.3242
 5632TIP3    H238388   1.688   2.166   0.512  0.2315 -0.5544 -0.3392
 5633TIP3   OH238389   6.529   2.227  13.192  0.5825  0.1322 -0.6715
 5633TIP3    H138390   6.517   2.322  13.187  0.2322  0.1334  0.1658
 5633TIP3    H238391   6.610   2.211  13.143  0.3952  0.8086 -1.2040
 5634TIP3   OH238392   6.089   5.793  11.786  0.3795 -0.1116  0.2946
 5634TIP3    H138393   6.172   5.746  11.782  1.0552  1.1772 -1.5491
 5634TIP3    H238394   6.104   5.862  11.851  0.9541  0.4514 -0.4187
 5635TIP3   OH238395   4.434   6.781  10.582  0.1974  0.1006  0.0929
 5635TIP3    H138396   4.406   6.756  10.670 -0.0335 -0.8998 -0.2704
 5635TIP3    H238397   4.528   6.799  10.591  0.2349 -0.2858  0.4819
 5636TIP3   OH238398   0.811   3.317  12.304 -0.0838 -0.4142  0.0825
 5636TIP3    H138399   0.760   3.388  12.264 -0.2365 -0.4405  0.2340
 5636TIP3    H238400   0.749   3.272  12.361  0.2950 -0.0060  0.8122
 5637TIP3   OH238401   0.084   3.922  12.497  0.2891 -0.4859 -0.0893
 5637TIP3    H138402   0.118   3.840  12.534  0.2746 -0.5525 -0.2221
 5637TIP3    H238403   0.107   3.989  12.561 -0.2199 -0.6843  0.3056
 5638TIP3   OH238404   5.791   4.731  12.202 -0.3411  0.1256  0.2038
 5638TIP3    H138405   5.810   4.819  12.170  0.5488 -0.8772 -2.1565
 5638TIP3    H238406   5.871   4.681  12.184  0.7365 -0.2389  5.2746
 5639TIP3   OH238407   7.292   2.536  12.171 -0.0646 -0.0797 -0.1226
 5639TIP3    H138408   7.291   2.516  12.077  1.0020  3.8425 -1.0567
 5639TIP3    H238409   7.384   2.527  12.197 -0.5258 -2.2740  0.8591
 5640TIP3   OH238410   0.661   5.267  13.613 -0.0713  0.1457 -0.3486
 5640TIP3    H138411   0.689   5.260  13.521  0.7540  0.1146 -0.0989
 5640TIP3    H238412   0.570   5.239  13.612  0.3538 -1.2746 -0.9300
 5641TIP3   OH238413   6.713   5.343  12.267 -0.3396 -0.3631  0.9695
 5641TIP3    H138414   6.775   5.411  12.239 -0.7545 -0.6108 -0.5702
 5641TIP3    H238415   6.735   5.267  12.214 -2.2889 -0.2965  0.0451
 5642TIP3   OH238416   0.346   3.960  11.664  0.1606 -0.1597 -0.5794
 5642TIP3    H138417   0.304   3.898  11.723  0.9660 -0.9839 -0.8711
 5642TIP3    H238418   0.332   3.924  11.577 -1.8701  1.5527 -0.9897
 5643TIP3   OH238419   5.503   4.429  10.568  0.4551 -0.0355  0.2688
 5643TIP3    H138420   5.557   4.500  10.601  0.9227  0.1880 -0.9760
 5643TIP3    H238421   5.512   4.433  10.473  0.9437 -2.1102  0.1919
 5644TIP3   OH238422   0.251   4.983  14.138  0.3750  0.6981  0.6882
 5644TIP3    H138423   0.254   4.920  14.210 -1.0202  1.3189  1.3060
 5644TIP3    H238424   0.256   4.929  14.059 -1.9035 -0.3108  1.1838
 5645TIP3   OH238425   7.147   1.730  14.574 -0.3054 -0.0216 -0.1672
 5645TIP3    H138426   7.152   1.657  14.513 -0.8890 -0.2512  0.0535
 5645TIP3    H238427   7.116   1.804  14.520 -0.0390 -0.0200 -0.3177
 5646TIP3   OH238428   6.066   3.831  13.037 -0.2616  0.0968  0.0594
 5646TIP3    H138429   6.075   3.900  12.971 -0.7676  0.0796 -0.0314
 5646TIP3    H238430   5.975   3.802  13.029 -0.7819  1.1383  1.7932
 5647TIP3   OH238431   3.534   4.785  11.080  0.6604  0.0658 -0.5595
 5647TIP3    H138432   3.617   4.819  11.115  1.7738 -0.8432 -2.2270
 5647TIP3    H238433   3.528   4.696  11.114 -0.8348  0.8878  1.4624
 5648TIP3   OH238434   0.464   4.629  11.233 -0.2599  0.0719  0.3249
 5648TIP3    H138435   0.469   4.690  11.160 -0.3567  0.0174  0.2740
 5648TIP3    H238436   0.512   4.552  11.203 -1.0249 -0.2781  0.0005
 5649TIP3   OH238437   0.001   6.050  12.966 -0.3637 -0.0770 -0.0201
 5649TIP3    H138438   0.067   5.991  13.003 -2.2796 -2.1756  0.1300
 5649TIP3    H238439  -0.038   6.093  13.042 -0.7739 -0.5710  0.0474
 5650TIP3   OH238440   0.863   5.277  14.350  0.5119 -0.6216 -0.3101
 5650TIP3    H138441   0.951   5.244  14.332  0.0965 -1.5470 -0.6896
 5650TIP3    H238442   0.805   5.215  14.305 -0.3162  0.1813 -0.3536
 5651TIP3   OH238443   0.824   1.921  13.241  0.0195 -0.7175  0.1922
 5651TIP3    H138444   0.828   2.000  13.187  0.7094 -1.3487 -0.7005
 5651TIP3    H238445   0.732   1.914  13.266 -0.6509 -1.2894 -2.2692
 5652TIP3   OH238446   6.045   5.779  14.008 -0.5531  0.4454  0.2603
 5652TIP3    H138447   5.988   5.711  14.044 -0.7486  0.6033  0.2514
 5652TIP3    H238448   6.045   5.847  14.075 -1.3955  1.0013 -0.3014
 5653TIP3   OH238449   5.594   5.467  13.799  0.4132 -0.4914  0.2643
 5653TIP3    H138450   5.617   5.517  13.721 -0.3752  1.1745  1.0700
 5653TIP3    H238451   5.522   5.411  13.771 -0.9398  1.2478  0.1780
 5654TIP3   OH238452   5.606   5.213   1.389 -0.4857  0.0133  0.2466
 5654TIP3    H138453   5.619   5.132   1.439 -0.2257 -0.0738  0.0395
 5654TIP3    H238454   5.677   5.214   1.325 -0.9257  0.0324 -0.2481
 5655TIP3   OH238455   1.327   3.454  12.422 -0.7401  0.5768 -0.4890
 5655TIP3    H138456   1.308   3.360  12.429 -0.5443  0.5587 -0.2083
 5655TIP3    H238457   1.340   3.468  12.328 -3.7534  0.9158 -0.8926
 5656TIP3   OH238458   5.606   5.401  14.232  0.7056 -0.3231 -0.0538
 5656TIP3    H138459   5.580   5.488  14.201  1.4306 -0.7302 -1.8453
 5656TIP3    H238460   5.540   5.379  14.298  1.3626  2.1938  1.5127
 5657TIP3   OH238461   0.187   2.269  12.553  0.2428  0.1476  0.1825
 5657TIP3    H138462   0.134   2.209  12.502  0.7572  0.8092 -1.1440
 5657TIP3    H238463   0.247   2.212  12.601  0.6630 -0.4130 -0.9833
 5658TIP3   OH238464   6.182   2.196  11.777  0.2806 -0.0875  0.1860
 5658TIP3    H138465   6.261   2.149  11.803  0.2226  0.6245  1.6815
 5658TIP3    H238466   6.126   2.128  11.738  0.4603 -1.1496  1.7157
 5659TIP3   OH238467   7.229   4.156  14.375 -0.6034 -0.7477  0.1509
 5659TIP3    H138468   7.263   4.184  14.460 -2.1825 -0.5462  0.7426
 5659TIP3    H238469   7.306   4.147  14.320  0.4516 -0.8908  1.6127
 5660TIP3   OH238470   6.138   6.518  11.121  0.1216 -0.5509 -0.2518
 5660TIP3    H138471   6.182   6.598  11.148  0.4596 -1.2548  1.3631
 5660TIP3    H238472   6.052   6.521  11.164  0.4417 -1.4197  0.4705
 5661TIP3   OH238473   7.145   5.783  13.716 -1.1291 -0.5108  0.3072
 5661TIP3    H138474   7.222   5.839  13.704 -2.3562  1.2323  0.3325
 5661TIP3    H238475   7.130   5.783  13.811 -2.1742  0.5780  0.1499
 5662TIP3   OH238476   6.535   1.780  14.948 -0.2932  0.6231  0.0416
 5662TIP3    H138477   6.468   1.801  14.882 -0.0303  1.1213 -0.0652
 5662TIP3    H238478   6.574   1.864  14.970  0.9851  0.2205 -0.6375
 5663TIP3   OH238479   7.243   3.914  12.806 -0.0378 -0.0117 -0.4429
 5663TIP3    H138480   7.319   3.867  12.771 -0.5321 -0.4319 -0.9539
 5663TIP3    H238481   7.256   4.004  12.777 -0.2910 -0.2975 -1.4753
 5664TIP3   OH238482   5.791   3.865  14.402 -0.4477 -0.4245  0.1714
 5664TIP3    H138483   5.823   3.806  14.335  0.3540  0.4036 -0.1807
 5664TIP3    H238484   5.785   3.811  14.481  0.2639 -0.9754 -0.1457
 5665TIP3   OH238485   0.045   6.068  14.535  0.0562  0.6075  0.3987
 5665TIP3    H138486   0.101   5.991  14.542 -0.9037 -0.2112 -0.8128
 5665TIP3    H238487   0.082   6.118  14.463  0.7348  1.3483  1.2439
 5666TIP3   OH238488   5.027   3.328  12.412  0.0692 -0.1333 -0.3359
 5666TIP3    H138489   5.095   3.263  12.393 -2.5856 -2.9422 -0.5926
 5666TIP3    H238490   5.000   3.309  12.502 -1.2450  0.1300 -0.6639
 5667TIP3   OH238491   5.857   2.087  13.396 -0.3680 -0.0379  0.2074
 5667TIP3    H138492   5.878   2.038  13.317  0.6271  3.0083 -1.4639
 5667TIP3    H238493   5.939   2.090  13.445 -0.3465  0.2104  0.1593
 5668TIP3   OH238494   7.054   3.556  13.870  0.1802 -0.0725  0.3338
 5668TIP3    H138495   7.061   3.618  13.943 -2.2912  1.1344 -0.4296
 5668TIP3    H238496   7.088   3.474  13.906  0.1156  0.7996  2.4807
 5669TIP3   OH238497   6.376   4.154  12.771 -0.4487 -0.3478 -0.1452
 5669TIP3    H138498   6.407   4.231  12.820 -0.8542 -0.1841 -0.1482
 5669TIP3    H238499   6.446   4.089  12.783  0.4434  0.4096 -1.0943
 5670TIP3   OH238500   7.318   2.413  13.875 -0.0200  0.0315  0.0743
 5670TIP3    H138501   7.265   2.372  13.944  0.6812 -0.0214  0.5988
 5670TIP3    H238502   7.256   2.459  13.820 -0.8028 -1.5383 -0.3853
 5671TIP3   OH238503   0.214   2.847  12.588 -0.8224 -0.1206 -0.0137
 5671TIP3    H138504   0.236   2.786  12.518 -2.2010  0.3068 -0.8301
 5671TIP3    H238505   0.295   2.897  12.602 -0.4987 -0.2866 -1.2273
 5672TIP3   OH238506   0.174   2.004  11.645  0.2196  0.3655  0.0611
 5672TIP3    H138507   0.253   1.999  11.591 -0.2207 -1.6545 -0.4307
 5672TIP3    H238508   0.104   1.974  11.587 -0.4949 -0.3850  1.3048
 5673TIP3   OH238509   4.742   2.051  12.594 -0.4549 -0.6107 -0.3083
 5673TIP3    H138510   4.805   2.086  12.532  0.6060  2.2281  2.2169
 5673TIP3    H238511   4.668   2.112  12.589 -0.0021  0.1606  1.7432
 5674TIP3   OH238512   1.676   4.134  14.875  0.1337  0.4756  0.3584
 5674TIP3    H138513   1.609   4.094  14.930 -0.3975  0.7386 -0.0948
 5674TIP3    H238514   1.740   4.064  14.860 -1.4315 -0.5996 -1.4964
 5675TIP3   OH238515   6.994   5.153  12.695 -0.2496 -0.3319 -0.4391
 5675TIP3    H138516   7.015   5.073  12.744 -0.3597  0.0062  0.1615
 5675TIP3    H238517   7.066   5.163  12.633 -0.4409 -1.1293 -0.8059
 5676TIP3   OH238518   5.732   1.052  11.648 -0.2520  0.4139  0.0140
 5676TIP3    H138519   5.756   1.126  11.703  0.1239 -0.1766  0.6566
 5676TIP3    H238520   5.778   0.977  11.687  0.3172  0.0498 -1.3180
 5677TIP3   OH238521   5.791   4.786  12.506  0.1516  0.3703  0.1758
 5677TIP3    H138522   5.706   4.748  12.531 -0.3212  0.4700 -1.2464
 5677TIP3    H238523   5.798   4.770  12.412  2.9503 -2.0290  0.7250
 5678TIP3   OH238524   5.999   5.231  13.859  0.4341  0.6963  0.0769
 5678TIP3    H138525   6.078   5.186  13.828  0.3286  0.0096  0.7761
 5678TIP3    H238526   5.994   5.209  13.952 -0.9833  0.1140 -0.1165
 5679TIP3   OH238527   0.585   2.585  14.761 -0.1653  0.8654  0.3461
 5679TIP3    H138528   0.560   2.605  14.670 -0.3063 -0.1823  0.1530
 5679TIP3    H238529   0.502   2.588  14.809 -0.0285  1.8789  0.5302
 5680TIP3   OH238530   7.158   6.806  13.062  0.4178 -0.2689  0.2617
 5680TIP3    H138531   7.070   6.841  13.052  0.5998  0.0152 -0.3490
 5680TIP3    H238532   7.172   6.803  13.157 -1.1222 -2.5181  0.4346
 5681TIP3   OH238533   1.027   2.478  12.100  0.1075 -1.1537 -0.2201
 5681TIP3    H138534   0.978   2.550  12.140  1.6900 -0.0464 -0.2482
 5681TIP3    H238535   1.103   2.466  12.157  1.2139 -1.0509 -1.6400
 5682TIP3   OH238536   4.965   6.695  10.667  0.3685 -0.0890  0.2118
 5682TIP3    H138537   4.977   6.600  10.668 -0.4217 -0.2202 -1.3797
 5682TIP3    H238538   5.042   6.729  10.622  0.4691  0.0030  0.4503
 5683TIP3   OH238539   6.982   4.493  13.889  0.0913  0.1387 -0.2408
 5683TIP3    H138540   6.925   4.433  13.937  0.5654 -0.2525 -0.1592
 5683TIP3    H238541   7.057   4.506  13.948 -0.1182  1.0012 -0.1528
 5684TIP3   OH238542   6.336   2.275  12.374  0.3079 -0.1433  0.4813
 5684TIP3    H138543   6.352   2.276  12.280  1.6931 -0.9785  0.6993
 5684TIP3    H238544   6.266   2.210  12.386  0.7654 -0.7094  0.1159
 5685TIP3   OH238545   6.899   3.642  10.016 -0.5051  0.0907 -0.2694
 5685TIP3    H138546   6.909   3.688  10.100 -2.1434 -0.0022 -0.0219
 5685TIP3    H238547   6.966   3.682   9.960 -1.3039  2.1610  0.2075
 5686TIP3   OH238548   0.538   5.083  10.861  0.0400  0.6526  0.2925
 5686TIP3    H138549   0.526   5.041  10.946  1.4896  0.0690  0.2367
 5686TIP3    H238550   0.518   5.014  10.797  0.3734  0.6608  0.1771
 5687TIP3   OH238551   6.225   4.539  11.980 -0.0092  0.2439  0.2662
 5687TIP3    H138552   6.269   4.603  11.924 -0.8476 -0.7680 -1.5771
 5687TIP3    H238553   6.293   4.510  12.041  1.6194 -0.4925 -1.8356
 5688TIP3   OH238554   7.015   5.157  11.168 -0.0064  0.2851  0.1678
 5688TIP3    H138555   6.926   5.177  11.141  0.7001  1.5373 -1.2907
 5688TIP3    H238556   7.066   5.160  11.087  1.6575  1.2360  1.2134
 5689TIP3   OH238557   0.025   6.006  15.178 -0.2413 -0.4056  0.6877
 5689TIP3    H138558  -0.003   6.086  15.134  2.1482  0.1501  0.0836
 5689TIP3    H238559   0.004   6.021  15.270 -0.5475  0.5907  0.4656
 5690TIP3   OH238560   6.425   5.284  12.086  0.7340  0.1077  0.0308
 5690TIP3    H138561   6.403   5.240  12.168  0.2742 -1.8542 -1.1037
 5690TIP3    H238562   6.519   5.274  12.078  0.9522  1.3366  0.8719
 5691TIP3   OH238563   5.290   3.042  12.159  0.0972  0.1516  0.4607
 5691TIP3    H138564   5.283   3.124  12.111  2.1164  0.6892  1.0324
 5691TIP3    H238565   5.291   3.068  12.251 -0.3780 -0.6048  0.6840
 5692TIP3   OH238566   4.102   5.229  11.401 -0.5030 -0.0858 -0.7981
 5692TIP3    H138567   4.126   5.262  11.488 -0.8950  0.7759 -1.0042
 5692TIP3    H238568   4.182   5.236  11.349 -1.2211  3.1538 -1.5980
 5693TIP3   OH238569   4.832   4.997  11.820 -0.4238  0.0433  0.0240
 5693TIP3    H138570   4.785   4.970  11.741  1.1938 -2.4225 -0.1462
 5693TIP3    H238571   4.914   5.034  11.787  0.4439 -1.3838  0.5293
 5694TIP3   OH238572   5.913   3.361  12.408  0.1278 -0.0807 -0.1406
 5694TIP3    H138573   5.921   3.421  12.333  0.0378  0.3264  0.1707
 5694TIP3    H238574   5.843   3.300  12.382  0.5773 -0.3724 -0.6731
 5695TIP3   OH238575   0.895   3.248  12.812 -0.0455  0.4297  0.4844
 5695TIP3    H138576   0.897   3.158  12.844 -0.4917  0.7088  1.3178
 5695TIP3    H238577   0.978   3.259  12.766 -0.5397 -0.7991 -0.7316
 5696TIP3   OH238578   5.995   4.342  12.273 -0.0835  0.3063 -0.1471
 5696TIP3    H138579   5.921   4.333  12.332 -1.1442 -1.5357 -1.7121
 5696TIP3    H238580   5.997   4.435  12.250 -2.5395  0.2014 -0.8813
 5697TIP3   OH238581   0.320   4.241  10.929  0.3570  0.3343 -0.1065
 5697TIP3    H138582   0.356   4.329  10.919 -0.6201  0.7789  0.2195
 5697TIP3    H238583   0.283   4.241  11.018  0.0944 -0.2996 -0.2180
 5698TIP3   OH238584   6.663   3.507  11.917 -0.0082  0.2489 -0.4321
 5698TIP3    H138585   6.627   3.468  11.997 -0.4129  0.4169 -0.5309
 5698TIP3    H238586   6.589   3.553  11.877  0.0379 -0.3498 -1.2180
 5699TIP3   OH238587   6.693   4.405  12.437  0.0043  0.4664 -0.4261
 5699TIP3    H138588   6.625   4.356  12.391  1.1691  0.5163 -2.2093
 5699TIP3    H238589   6.761   4.420  12.372  0.5052  2.8350  0.5886
 5700TIP3   OH238590   0.304   5.263   0.215 -0.2624 -0.1946 -0.4869
 5700TIP3    H138591   0.363   5.213   0.271 -0.1114  0.5737  0.0378
 5700TIP3    H238592   0.229   5.283   0.271  1.1148  2.9698  0.2908
 5701TIP3   OH238593   5.756   4.493  14.227 -0.4417  0.0090  0.0314
 5701TIP3    H138594   5.746   4.573  14.279  3.2390  1.0453 -0.7537
 5701TIP3    H238595   5.724   4.517  14.140  0.5473  0.6029 -0.1710
 5702TIP3   OH238596   0.968   4.672  14.519 -0.2301  0.0776 -0.2081
 5702TIP3    H138597   1.014   4.595  14.553  0.3041  0.2620 -0.4948
 5702TIP3    H238598   0.989   4.741  14.582  1.5892  0.6671 -1.4250
 5703TIP3   OH238599   7.100   3.176  14.395  0.0681 -0.1021 -0.3833
 5703TIP3    H138600   7.097   3.266  14.429 -0.0962 -0.5659  0.8757
 5703TIP3    H238601   7.155   3.129  14.459 -0.4998 -1.0707 -0.6076
 5704TIP3   OH238602   6.837   4.846  11.925  0.3078 -0.2300  0.8840
 5704TIP3    H138603   6.800   4.779  11.983  0.2634  0.5690  1.7922
 5704TIP3    H238604   6.928   4.854  11.953  0.3366  0.0202  0.7176
 5705TIP3   OH238605   6.381   6.212  13.812 -0.0921 -0.6110 -0.2733
 5705TIP3    H138606   6.459   6.202  13.758 -0.4457 -0.9437 -0.7219
 5705TIP3    H238607   6.323   6.267  13.760 -0.5990 -1.2663 -0.4040
 5706TIP3   OH238608   5.736   5.355  12.038  0.2447 -0.2644 -0.0959
 5706TIP3    H138609   5.724   5.388  12.127 -1.0054 -0.2498 -0.2506
 5706TIP3    H238610   5.654   5.377  11.994  1.0805  0.2468 -1.4151
 5707TIP3   OH238611   4.585   6.732  12.624  0.6032  0.7501 -0.1116
 5707TIP3    H138612   4.545   6.735  12.537 -0.9591  2.3943  0.6299
 5707TIP3    H238613   4.626   6.646  12.628 -0.7647 -0.0192 -1.8432
 5708TIP3   OH238614   6.045   1.969  11.701 -0.7680 -0.3160  0.3418
 5708TIP3    H138615   6.052   2.000  11.611  0.9443 -1.1448  0.1699
 5708TIP3    H238616   5.959   1.999  11.730 -1.0411  0.5771 -1.3266
 5709TIP3   OH238617   1.635   4.471  10.634  0.5166 -0.1254 -0.6099
 5709TIP3    H138618   1.706   4.452  10.695  0.6197  1.4617 -0.2054
 5709TIP3    H238619   1.568   4.405  10.652  0.6497  0.1719  1.0503
 5710TIP3   OH238620   5.058   7.110  13.490  0.2462 -0.0874 -0.4023
 5710TIP3    H138621   5.065   7.154  13.405  0.5653  1.8152  0.5723
 5710TIP3    H238622   4.967   7.125  13.517  0.7961  1.4672  0.6827
 5711TIP3   OH238623   5.443   5.315  12.183  0.0870  0.1632  0.0051
 5711TIP3    H138624   5.381   5.387  12.190 -0.1894 -0.0404 -0.3275
 5711TIP3    H238625   5.499   5.338  12.109  0.8088  0.6506  0.7015
 5712TIP3   OH238626   5.096   3.298  13.076 -0.2255  0.1987  0.3644
 5712TIP3    H138627   5.102   3.341  13.162  0.0984  0.3801  0.2501
 5712TIP3    H238628   5.162   3.229  13.079  0.1866  0.5785  0.0456
 5713TIP3   OH238629   1.941   2.703  11.967  0.2885  0.1448  1.0762
 5713TIP3    H138630   1.949   2.732  11.876  1.0854 -2.9445  0.1172
 5713TIP3    H238631   1.881   2.766  12.007 -0.2710  1.4082 -1.6340
 5714TIP3   OH238632   6.058   3.117  10.634  0.3628  0.1743  0.0035
 5714TIP3    H138633   6.142   3.144  10.670  0.7488 -0.0382 -0.7362
 5714TIP3    H238634   6.009   3.199  10.622  0.1615  0.2295  1.1753
 5715TIP3   OH238635   6.036   7.043  12.611  0.1356  0.4465 -0.2816
 5715TIP3    H138636   5.965   7.072  12.668 -0.0140 -2.3882  1.0622
 5715TIP3    H238637   6.082   7.123  12.587 -1.8754  2.0374  1.0404
 5716TIP3   OH238638   7.045   7.196  11.808 -0.3589  0.6050  0.3548
 5716TIP3    H138639   7.091   7.265  11.762 -0.0015  0.0744 -0.0948
 5716TIP3    H238640   6.952   7.216  11.796 -0.2581  0.7719 -0.1330
 5717TIP3   OH238641   7.245   2.519  11.310  0.2844  0.1335  0.6210
 5717TIP3    H138642   7.219   2.610  11.322 -0.2895 -0.2337  2.2320
 5717TIP3    H238643   7.172   2.468  11.345  0.4992 -0.9591 -0.4766
 5718TIP3   OH238644   7.146   4.458  12.116  0.3193 -0.8114 -0.1720
 5718TIP3    H138645   7.203   4.443  12.192  2.0526  0.8876 -1.1228
 5718TIP3    H238646   7.115   4.548  12.127  0.3955 -0.6405 -1.3640
 5719TIP3   OH238647   6.214   5.960  11.123 -0.1032 -0.3751  0.6152
 5719TIP3    H138648   6.199   6.052  11.097  1.0361  0.4910  2.9095
 5719TIP3    H238649   6.298   5.938  11.083 -0.2765 -0.3659  0.2367
 5720TIP3   OH238650   5.209   4.400   1.313  0.0858 -0.0583  0.1489
 5720TIP3    H138651   5.249   4.348   1.382 -0.2770 -2.2070 -1.2186
 5720TIP3    H238652   5.115   4.380   1.319  0.1514 -0.9810 -1.5070
 5721TIP3   OH238653   7.267   5.532  13.756 -0.5602 -0.0558  0.4502
 5721TIP3    H138654   7.326   5.569  13.821 -0.5955 -0.2708  0.6026
 5721TIP3    H238655   7.213   5.606  13.728 -0.7598 -0.0316  0.8949
 5722TIP3   OH238656   2.216   4.351  15.016  0.1885  0.0034 -0.0465
 5722TIP3    H138657   2.201   4.258  14.999  1.9030 -0.3586  0.3263
 5722TIP3    H238658   2.197   4.394  14.932  0.5283 -0.8172 -0.5520
 5723TIP3   OH238659   7.273   5.263  13.661  0.1769 -0.0410 -0.3325
 5723TIP3    H138660   7.287   5.280  13.568 -0.2788 -0.0568 -0.4056
 5723TIP3    H238661   7.300   5.344  13.705 -2.8059  1.2419 -0.7458
 5724TIP3   OH238662   3.337   3.712  15.021 -0.1262  0.3476  0.5942
 5724TIP3    H138663   3.359   3.751  15.105  0.9654  0.3547  0.3033
 5724TIP3    H238664   3.417   3.669  14.992 -0.1843  1.2445 -0.9539
 5725TIP3   OH238665   1.978   0.757  10.493 -0.2477 -0.5393 -0.1452
 5725TIP3    H138666   2.019   0.687  10.442 -0.2765 -1.5246  1.1684
 5725TIP3    H238667   2.049   0.821  10.505 -0.2482 -0.2722 -1.4237
 5726TIP3   OH238668   2.050   5.968  15.140  0.3304  0.2029  0.1702
 5726TIP3    H138669   2.141   5.987  15.162 -0.0810  1.2370  1.0323
 5726TIP3    H238670   1.999   6.033  15.190 -0.9739 -1.3609  0.9113
 5727TIP3   OH238671   1.359   6.083  10.659  1.2499 -0.1324 -0.1872
 5727TIP3    H138672   1.437   6.061  10.609  0.7170 -1.6875 -0.3481
 5727TIP3    H238673   1.324   5.999  10.689  1.0859  0.6936  2.1057
 5728TIP3   OH238674   6.908   7.304  12.551 -0.1154 -0.0748 -0.1471
 5728TIP3    H138675   6.976   7.335  12.491 -0.8991 -0.7492 -1.4281
 5728TIP3    H238676   6.883   7.218  12.515 -1.1080 -0.1606  0.7371
 5729TIP3   OH238677   0.872   5.207  12.550  0.8813  0.0700  0.6565
 5729TIP3    H138678   0.796   5.263  12.564 -1.1156 -1.9813 -1.6038
 5729TIP3    H238679   0.939   5.265  12.515 -1.0904  1.0924 -1.4990
 5730TIP3   OH238680   5.360   5.324  10.365  0.0417  0.1745 -0.0600
 5730TIP3    H138681   5.421   5.362  10.303  1.3891 -0.8726  0.5890
 5730TIP3    H238682   5.415   5.279  10.429 -1.4680 -2.5231 -0.5749
 5731TIP3   OH238683   0.990   0.397  13.585  0.5754 -0.0720  0.0949
 5731TIP3    H138684   0.963   0.309  13.610  0.8753 -0.8257 -2.0905
 5731TIP3    H238685   0.995   0.446  13.667 -1.0958 -1.6663  1.1706
 5732TIP3   OH238686   0.436   5.584  11.805 -0.0526  0.1034  0.1835
 5732TIP3    H138687   0.436   5.569  11.900 -1.6727  0.4192  0.2636
 5732TIP3    H238688   0.442   5.679  11.796  0.3879  0.0539 -0.0369
 5733TIP3   OH238689   0.085   7.101  11.918 -0.0248 -0.4455 -0.1044
 5733TIP3    H138690   0.037   7.019  11.927 -0.9259  0.1532  0.6444
 5733TIP3    H238691   0.059   7.134  11.832 -2.8273  1.0333  1.2571
 5734TIP3   OH238692   1.378   3.196  13.544 -0.3639 -0.2204 -0.1031
 5734TIP3    H138693   1.348   3.239  13.463  0.1973 -0.3114 -0.3625
 5734TIP3    H238694   1.410   3.267  13.598  1.8139 -0.4321 -1.0747
 5735TIP3   OH238695   1.123   0.780  10.912  0.2116  0.1068 -0.6399
 5735TIP3    H138696   1.028   0.780  10.926  0.3263  1.7574  0.2246
 5735TIP3    H238697   1.132   0.790  10.817 -0.4817  0.5928 -0.6640
 5736TIP3   OH238698   7.016   1.071   1.418  0.2446 -0.2088 -0.4202
 5736TIP3    H138699   7.043   0.990   1.462  1.1213  1.1051  1.5736
 5736TIP3    H238700   6.946   1.105   1.473  1.3763  1.4912  0.0166
 5737TIP3   OH238701   0.331   0.370  11.614 -0.5721  0.4689 -0.5825
 5737TIP3    H138702   0.347   0.398  11.704  0.6478  1.4427 -1.1025
 5737TIP3    H238703   0.238   0.346  11.613 -1.0728  2.2771  0.4653
 5738TIP3   OH238704   2.521   6.772  13.063 -0.0824 -0.5038 -0.3713
 5738TIP3    H138705   2.451   6.718  13.100 -0.5431 -0.0781 -0.6278
 5738TIP3    H238706   2.578   6.709  13.017 -0.2365 -0.8572 -0.0825
 5739TIP3   OH238707   1.223   4.953  12.784  0.0397 -0.3425 -0.0574
 5739TIP3    H138708   1.258   4.889  12.722  1.0235 -0.3338  0.4735
 5739TIP3    H238709   1.299   5.004  12.811 -0.4787  0.0513  0.6901
 5740TIP3   OH238710   5.217   1.173  12.894 -0.5582 -0.3494  0.0235
 5740TIP3    H138711   5.177   1.161  12.808  1.0256  1.3870 -0.9846
 5740TIP3    H238712   5.178   1.254  12.927 -0.0726 -0.2297  0.3062
 5741TIP3   OH238713   0.236   5.394  12.830 -0.3745 -0.6103  0.2056
 5741TIP3    H138714   0.300   5.340  12.783  0.2282 -2.0566  2.6179
 5741TIP3    H238715   0.177   5.331  12.872 -0.5134  0.6378  1.9221
 5742TIP3   OH238716   1.720   1.159  10.713 -0.3475  0.3522  0.1525
 5742TIP3    H138717   1.669   1.111  10.778 -0.6584  0.7586  0.2172
 5742TIP3    H238718   1.750   1.093  10.651 -2.9989  0.3928 -1.2600
 5743TIP3   OH238719   1.116   0.565  13.213 -0.5916 -0.6057  0.4455
 5743TIP3    H138720   1.175   0.546  13.285 -1.6205 -1.3469  1.1005
 5743TIP3    H238721   1.035   0.595  13.255 -1.2674 -1.2419 -0.3764
 5744TIP3   OH238722   0.497   6.255  13.867  0.5573 -0.2685 -0.1229
 5744TIP3    H138723   0.526   6.209  13.945  1.2899 -0.4893 -0.5279
 5744TIP3    H238724   0.523   6.198  13.794 -0.4466 -0.2420 -0.5118
 5745TIP3   OH238725   2.187   0.598  14.210  0.5719 -0.0896 -0.1396
 5745TIP3    H138726   2.150   0.625  14.294  0.4047  0.4777 -0.3915
 5745TIP3    H238727   2.112   0.568  14.159  0.6690 -0.4083 -0.0946
 5746TIP3   OH238728   6.662   5.055  13.410  0.2791  0.1803  0.3785
 5746TIP3    H138729   6.683   4.965  13.434  0.9409 -0.0553 -1.0360
 5746TIP3    H238730   6.709   5.069  13.328 -0.9015  1.3792 -0.1023
 5747TIP3   OH238731   3.082   6.490  12.458 -0.2339  0.2873  0.2109
 5747TIP3    H138732   3.171   6.510  12.429  0.2009 -2.2919 -0.3299
 5747TIP3    H238733   3.087   6.402  12.493 -3.1232 -1.0070 -2.3528
 5748TIP3   OH238734   2.171   6.452  13.006  0.2779  0.0290  0.3183
 5748TIP3    H138735   2.151   6.541  13.033  2.1650 -0.0204  1.9863
 5748TIP3    H238736   2.099   6.399  13.040 -0.9981  0.9323 -0.9347
 5749TIP3   OH238737   2.735   0.156  13.556 -0.4499 -0.3803  0.0611
 5749TIP3    H138738   2.746   0.074  13.605 -0.0368 -0.3160  0.0795
 5749TIP3    H238739   2.672   0.206  13.608  1.0075  0.2495  1.2671
 5750TIP3   OH238740   4.199   6.509  15.114  0.1044  0.3717  0.4992
 5750TIP3    H138741   4.240   6.576  15.059 -1.0477  0.1467 -0.6583
 5750TIP3    H238742   4.111   6.542  15.131  0.3718  0.3370  2.0722
 5751TIP3   OH238743   2.169   5.971  10.640  0.1283  0.0604 -0.2099
 5751TIP3    H138744   2.147   5.883  10.668  1.9401 -0.7531 -1.2206
 5751TIP3    H238745   2.137   5.977  10.550  0.5730  0.1983 -0.3624
 5752TIP3   OH238746   2.137   5.283  11.936 -0.4921  0.4876 -0.1238
 5752TIP3    H138747   2.204   5.314  11.996  0.7078  0.6897 -1.5401
 5752TIP3    H238748   2.087   5.218  11.986 -0.0975  1.3190  1.3641
 5753TIP3   OH238749   7.296   5.885  10.460  0.1891 -0.2517  0.7314
 5753TIP3    H138750   7.375   5.883  10.514  0.2636 -0.8212  0.6093
 5753TIP3    H238751   7.278   5.793  10.441 -0.6124 -0.1353  0.9156
 5754TIP3   OH238752   1.244   1.051  10.964  0.1335 -0.4534 -0.4170
 5754TIP3    H138753   1.239   0.955  10.964  1.1039 -0.5137  0.8847
 5754TIP3    H238754   1.180   1.078  11.030 -0.2418 -0.1911 -0.8843
 5755TIP3   OH238755   3.433   5.450  11.624  0.1313 -0.0791 -0.5460
 5755TIP3    H138756   3.352   5.494  11.650 -1.2303 -0.3056 -4.0764
 5755TIP3    H238757   3.416   5.358  11.640  0.0803 -0.0350 -0.3354
 5756TIP3   OH238758   1.931   7.181  12.525 -0.0633  0.0174  0.1999
 5756TIP3    H138759   1.986   7.106  12.546 -1.5785 -1.2407 -0.1579
 5756TIP3    H238760   1.978   7.228  12.456  1.0789 -0.3940  0.6994
 5757TIP3   OH238761   0.291   4.872  14.809 -0.3275 -0.6309 -0.3083
 5757TIP3    H138762   0.219   4.810  14.799 -0.5589 -0.6385  1.2510
 5757TIP3    H238763   0.261   4.952  14.766 -0.8040 -0.9925 -0.6488
 5758TIP3   OH238764   0.089   6.888  13.060  0.0873 -0.4792 -0.7220
 5758TIP3    H138765   0.063   6.974  13.028 -1.1270 -0.1663  1.0594
 5758TIP3    H238766   0.008   6.838  13.062  1.0751 -2.3580 -3.6645
 5759TIP3   OH238767   0.348   0.598  14.532  0.2580  0.5496  0.3491
 5759TIP3    H138768   0.392   0.524  14.491 -1.4454  0.4719 -1.4488
 5759TIP3    H238769   0.274   0.559  14.580 -0.7691  1.0610 -0.7744
 5760TIP3   OH238770   1.247   0.046  12.480 -0.2880  0.1648 -0.0809
 5760TIP3    H138771   1.320   0.042  12.541 -0.1862 -0.4330 -0.2443
 5760TIP3    H238772   1.282   0.016  12.397 -1.0115 -1.3382  0.1277
 5761TIP3   OH238773   6.324   5.663  13.960  0.4047  0.5234 -0.7460
 5761TIP3    H138774   6.416   5.636  13.962  1.4825  4.0979 -0.1112
 5761TIP3    H238775   6.277   5.586  13.991  3.2161 -1.1028 -0.2727
 5762TIP3   OH238776   7.236   4.837  11.020 -0.4681 -0.2220  0.3125
 5762TIP3    H138777   7.160   4.857  10.965 -1.0444  1.1046  1.5534
 5762TIP3    H238778   7.201   4.834  11.109  0.4281 -2.4853  0.6133
 5763TIP3   OH238779   6.849   6.360  14.252 -0.1706  0.2810 -0.4948
 5763TIP3    H138780   6.769   6.383  14.299 -0.0570  1.5798 -0.9199
 5763TIP3    H238781   6.846   6.412  14.172  0.2717 -0.9408 -1.3307
 5764TIP3   OH238782   1.102   1.625  13.343 -0.7963  0.1972 -0.6902
 5764TIP3    H138783   1.162   1.697  13.357 -0.7770  0.1952 -0.7616
 5764TIP3    H238784   1.062   1.609  13.429  0.2071 -0.6113 -0.3533
 5765TIP3   OH238785   0.791   5.207  13.360 -0.0732  0.0624  0.2390
 5765TIP3    H138786   0.752   5.183  13.276  0.0965  1.4218 -0.2344
 5765TIP3    H238787   0.847   5.282  13.340 -0.5087  0.7799  1.6774
 5766TIP3   OH238788   1.728   4.051  11.019 -0.0330 -0.1460 -0.2003
 5766TIP3    H138789   1.633   4.050  11.007 -0.0001 -0.5420 -0.4237
 5766TIP3    H238790   1.740   4.066  11.112 -0.2989  2.1567 -0.5048
 5767TIP3   OH238791   7.173   6.377  10.943 -0.0097  0.2723 -0.0446
 5767TIP3    H138792   7.135   6.446  10.997  0.3038  0.5012 -0.1179
 5767TIP3    H238793   7.267   6.393  10.945  0.2593 -1.2187  1.4351
 5768TIP3   OH238794   2.582   7.117  10.352  0.2447  0.0113  0.2438
 5768TIP3    H138795   2.552   7.202  10.385 -1.1560 -0.4031  0.0937
 5768TIP3    H238796   2.648   7.138  10.287  0.3285  0.9651  0.6315
 5769TIP3   OH238797   5.763   5.070  11.942 -0.2935  0.8515 -0.1254
 5769TIP3    H138798   5.680   5.062  11.895 -0.2942 -0.4623  0.0581
 5769TIP3    H238799   5.791   5.160  11.928 -2.1226  1.5236  0.4057
 5770TIP3   OH238800   0.862   4.662  12.512  0.2464 -0.2257  0.3095
 5770TIP3    H138801   0.865   4.757  12.508  3.3243 -0.2335  0.6972
 5770TIP3    H238802   0.785   4.642  12.564 -1.2854  1.9766 -1.0129
 5771TIP3   OH238803   2.974   5.531  10.466  0.2944  0.0212 -0.6384
 5771TIP3    H138804   3.014   5.461  10.517 -1.9830 -0.9078 -0.0684
 5771TIP3    H238805   2.894   5.492  10.430 -1.3656  2.4878  0.2381
 5772TIP3   OH238806   0.490   5.928  14.921  0.2461 -0.2107 -0.0758
 5772TIP3    H138807   0.399   5.952  14.936  0.5348  1.9080 -1.5192
 5772TIP3    H238808   0.540   5.984  14.981  0.5585 -2.6621  2.0684
 5773TIP3   OH238809   2.935   1.833  14.564  0.2079 -0.2708  0.6403
 5773TIP3    H138810   2.856   1.782  14.549  1.3074 -0.8566 -3.6921
 5773TIP3    H238811   2.907   1.924  14.552 -0.3040 -0.2868  1.6316
 5774TIP3   OH238812   5.805   7.177  13.166  0.3842 -0.0975  0.2994
 5774TIP3    H138813   5.778   7.087  13.152 -0.8790  0.2262  0.5021
 5774TIP3    H238814   5.890   7.171  13.209  0.1336 -1.1868  0.6509
 5775TIP3   OH238815   1.046   7.213  14.056 -0.4729  0.3563 -0.0679
 5775TIP3    H138816   1.057   7.131  14.008  0.2346  0.1247  0.4869
 5775TIP3    H238817   1.134   7.235  14.086 -1.1255 -0.3319  2.4844
 5776TIP3   OH238818   2.585   4.426  14.061 -0.2122  0.7304 -0.1396
 5776TIP3    H138819   2.614   4.473  14.139  0.0356  0.1331  0.1387
 5776TIP3    H238820   2.663   4.382  14.029 -0.3168  0.9737 -0.7251
 5777TIP3   OH238821   0.706   6.916  11.781  0.2872 -0.0624  0.0972
 5777TIP3    H138822   0.666   6.854  11.720 -1.3469 -0.8055  1.8762
 5777TIP3    H238823   0.746   6.861  11.849 -1.8925  0.7841  2.1368
 5778TIP3   OH238824   0.477   7.301  12.152 -0.1496 -0.5524  0.1270
 5778TIP3    H138825   0.507   7.360  12.083 -0.7541  0.5256  0.7775
 5778TIP3    H238826   0.413   7.244  12.110 -0.5450  0.1270 -0.1919
 5779TIP3   OH238827   1.746   7.278  11.706 -0.0434 -0.4003  0.0132
 5779TIP3    H138828   1.815   7.320  11.656 -0.9879  0.3385 -0.6761
 5779TIP3    H238829   1.677   7.259  11.643 -1.4959  1.0786  1.1026
 5780TIP3   OH238830   0.269   4.893  12.625 -0.3489  0.5687 -0.2928
 5780TIP3    H138831   0.315   4.935  12.553  0.0399  1.5040  0.4986
 5780TIP3    H238832   0.184   4.938  12.629 -0.0286  1.1229  0.3929
 5781TIP3   OH238833   0.886   0.184  10.134  0.2675 -0.1442  0.7124
 5781TIP3    H138834   0.906   0.203  10.226  1.7412  0.1169  0.3508
 5781TIP3    H238835   0.934   0.251  10.085  0.5015 -1.0448 -0.3076
 5782TIP3   OH238836   2.406   5.698  12.550 -0.0164  0.1608 -0.7787
 5782TIP3    H138837   2.403   5.656  12.636  0.9869 -1.0347 -1.3105
 5782TIP3    H238838   2.500   5.705  12.531 -0.2052  1.5204 -1.2527
 5783TIP3   OH238839   0.573   6.157  12.621  0.1988 -0.5107  0.0380
 5783TIP3    H138840   0.551   6.239  12.665  2.3273  0.0586  0.0911
 5783TIP3    H238841   0.651   6.126  12.665  1.5290 -0.6855 -2.3369
 5784TIP3   OH238842   1.372   7.035  14.543 -0.3157 -0.6050  0.1734
 5784TIP3    H138843   1.312   7.006  14.474  2.4777 -0.0407 -2.6118
 5784TIP3    H238844   1.439   6.967  14.546 -0.0355 -0.2847  1.9341
 5785TIP3   OH238845   0.110   3.313  15.334  0.0185  0.2822  0.3859
 5785TIP3    H138846   0.087   3.317  15.242  0.8972 -0.7284  0.1135
 5785TIP3    H238847   0.131   3.221  15.350  0.8779  0.6285  1.3305
 5786TIP3   OH238848   6.503   5.716  11.482  0.0888 -0.8977  0.2777
 5786TIP3    H138849   6.565   5.664  11.431  0.2435 -0.2454 -0.2107
 5786TIP3    H238850   6.552   5.738  11.562 -0.4286 -2.5810  1.0735
 5787TIP3   OH238851   7.050   4.273  13.393  0.1475 -0.0209  0.2563
 5787TIP3    H138852   7.034   4.364  13.368 -0.4574  0.3089  1.7853
 5787TIP3    H238853   7.128   4.248  13.343 -0.0213  1.1413 -0.6236
 5788TIP3   OH238854   2.169   1.008  13.940 -0.2183  0.3591 -0.0908
 5788TIP3    H138855   2.075   0.992  13.955 -0.3736 -1.4243 -2.6647
 5788TIP3    H238856   2.209   0.993  14.026 -1.6796 -4.2492 -0.0642
 5789TIP3   OH238857   1.603   4.604  11.877 -0.1013 -0.2502 -0.0742
 5789TIP3    H138858   1.645   4.559  11.803  0.1381 -1.3243  0.7135
 5789TIP3    H238859   1.510   4.591  11.863 -0.1511  1.2192 -1.2419
 5790TIP3   OH238860   2.477   5.532  14.347  0.9193 -0.1852  0.2270
 5790TIP3    H138861   2.565   5.497  14.333  0.8171 -0.3761  0.0692
 5790TIP3    H238862   2.436   5.531  14.261  1.0059  0.5688  0.1750
 5791TIP3   OH238863   0.027   0.808  15.397 -0.3452  0.3131 -0.2579
 5791TIP3    H138864   0.080   0.771  15.326  0.6084  2.4271 -0.6761
 5791TIP3    H238865  -0.013   0.886  15.359 -1.7988  0.1093  0.8116
 5792TIP3   OH238866   0.960   0.068  12.480  0.1393  0.6025  0.0189
 5792TIP3    H138867   0.928  -0.014  12.444  1.1976  0.9205 -1.6866
 5792TIP3    H238868   1.055   0.062  12.471  0.2892  1.5913  0.8481
 5793TIP3   OH238869   2.509   5.019  12.344 -0.0939 -0.5230  0.5265
 5793TIP3    H138870   2.437   5.003  12.283 -1.2095  0.4329  1.5659
 5793TIP3    H238871   2.550   4.934  12.356 -0.6449 -0.9526 -0.5938
 5794TIP3   OH238872   0.827   4.989  11.689  0.0723  0.6416 -1.0185
 5794TIP3    H138873   0.830   5.080  11.719  0.7669  1.2523 -2.8639
 5794TIP3    H238874   0.768   4.992  11.613  0.3070 -0.3980 -1.2367
 5795TIP3   OH238875   6.038   0.532  13.866  0.1188 -0.1299 -0.5373
 5795TIP3    H138876   6.081   0.560  13.786  0.1134 -1.5323 -1.0487
 5795TIP3    H238877   6.047   0.606  13.926  1.1096  0.5002 -1.4548
 5796TIP3   OH238878   1.602   0.897  12.734 -0.0101 -0.3336  0.1821
 5796TIP3    H138879   1.523   0.853  12.764 -0.1802 -0.1420  0.0169
 5796TIP3    H238880   1.659   0.899  12.811 -0.2114 -0.3655  0.3321
 5797TIP3   OH238881   6.804   6.380  12.384 -0.1815 -0.1390 -0.3289
 5797TIP3    H138882   6.814   6.468  12.421  1.9163 -0.9657  1.1738
 5797TIP3    H238883   6.815   6.321  12.459  0.6038 -1.7544 -1.6808
 5798TIP3   OH238884   1.199   5.213  13.010  0.8378 -0.1220  0.6652
 5798TIP3    H138885   1.280   5.178  12.974 -0.1507 -0.3321 -1.3814
 5798TIP3    H238886   1.179   5.157  13.085 -0.0233 -3.1379 -1.7629
 5799TIP3   OH238887   1.757   5.753  10.344 -0.3503 -0.4190  0.2468
 5799TIP3    H138888   1.786   5.728  10.255 -0.7787 -0.9838  0.2635
 5799TIP3    H238889   1.675   5.800  10.330 -0.8776 -1.2827  0.4038
 5800TIP3   OH238890   0.898   0.660  10.390  0.4659  0.7881  0.4353
 5800TIP3    H138891   0.807   0.647  10.416  0.2338 -0.2190 -0.8119
 5800TIP3    H238892   0.906   0.755  10.377 -0.0488  1.0222  1.7987
 5801TIP3   OH238893   1.850   6.344  12.020 -0.1330 -0.0891  0.4047
 5801TIP3    H138894   1.860   6.439  12.020  1.4024 -0.2280 -0.6107
 5801TIP3    H238895   1.817   6.324  11.932 -1.5848 -0.4107  1.0009
 5802TIP3   OH238896   6.012   0.872  13.046 -0.3062 -0.2350 -0.1627
 5802TIP3    H138897   6.042   0.960  13.072 -1.2899  0.6926 -2.0658
 5802TIP3    H238898   5.922   0.867  13.079  0.1050 -0.9565  0.8727
 5803TIP3   OH238899   4.020   6.714  12.358  0.7067  0.1783  0.1898
 5803TIP3    H138900   3.996   6.662  12.435  2.6277 -2.0117 -0.6192
 5803TIP3    H238901   3.937   6.731  12.314 -0.1340 -0.9277  1.2926
 5804TIP3   OH238902   5.185   0.227  11.770 -0.3287 -0.2441  0.3540
 5804TIP3    H138903   5.157   0.306  11.817  1.5435  1.0492 -0.6297
 5804TIP3    H238904   5.271   0.206  11.805 -0.6476 -1.6402  0.3330
 5805TIP3   OH238905   7.323   0.820  12.355  0.0068  0.3158 -1.0809
 5805TIP3    H138906   7.396   0.846  12.412 -0.0312 -1.7837 -0.0243
 5805TIP3    H238907   7.252   0.799  12.415 -0.4682 -0.6227 -1.9549
 5806TIP3   OH238908   5.612   3.123  13.248  0.2084  0.5132 -0.3259
 5806TIP3    H138909   5.544   3.108  13.313  0.1181 -0.3147 -0.6156
 5806TIP3    H238910   5.673   3.183  13.291 -0.9377  1.6295 -0.2394
 5807TIP3   OH238911   0.110   0.410  14.070 -0.3132  0.3219 -0.2461
 5807TIP3    H138912   0.151   0.483  14.116 -1.5178  0.0669  1.2801
 5807TIP3    H238913   0.020   0.408  14.102 -0.0900 -2.3100  0.3576
 5808TIP3   OH238914   1.561   5.588  13.984  0.2149  0.7310 -0.0859
 5808TIP3    H138915   1.547   5.545  14.069  0.1296 -0.4396 -0.6740
 5808TIP3    H238916   1.649   5.623  13.989 -0.0391  1.2634  0.7423
 5809TIP3   OH238917   1.651   5.815  12.455  0.3773  0.5683  0.1786
 5809TIP3    H138918   1.739   5.853  12.455  0.5119  0.2944 -1.2685
 5809TIP3    H238919   1.615   5.837  12.541  1.6125  1.2488  0.5333
 5810TIP3   OH238920   1.695   5.708  15.053  0.5540 -0.2111 -0.6710
 5810TIP3    H138921   1.638   5.661  14.991 -0.0259  1.4297 -1.4189
 5810TIP3    H238922   1.735   5.777  15.000  1.3014  0.2077  0.4391
 5811TIP3   OH238923   0.438   2.249  12.891 -0.6695 -0.2209  0.7298
 5811TIP3    H138924   0.506   2.258  12.825 -0.3206 -3.3934  0.5680
 5811TIP3    H238925   0.360   2.222  12.842 -1.5139  1.3844  1.1560
 5812TIP3   OH238926   7.081   4.060  10.754  0.3174  0.3981 -0.2678
 5812TIP3    H138927   7.161   4.107  10.777  0.7973 -0.5967  0.1236
 5812TIP3    H238928   7.025   4.069  10.831  0.5546  0.0272 -0.0485
 5813TIP3   OH238929   0.463   0.734  11.615  0.1414  0.0856 -0.1926
 5813TIP3    H138930   0.441   0.819  11.652 -1.3525 -0.2429 -0.2627
 5813TIP3    H238931   0.509   0.688  11.685 -0.6773  0.2841  0.4841
 5814TIP3   OH238932   0.371   0.406  11.262  0.1445 -0.0737  0.0699
 5814TIP3    H138933   0.408   0.417  11.175 -0.8798 -0.5564 -0.4400
 5814TIP3    H238934   0.431   0.452  11.320  0.3503  1.0220 -0.9991
 5815TIP3   OH238935   1.822   5.094  12.936  0.3393  0.3961  0.2449
 5815TIP3    H138936   1.901   5.052  12.901  1.6907  1.8121  1.5136
 5815TIP3    H238937   1.816   5.062  13.026 -1.0665 -0.4068 -0.1210
 5816TIP3   OH238938   0.745   7.100  12.681  0.4928  0.1148  0.1059
 5816TIP3    H138939   0.773   7.176  12.731  1.1161 -1.1059  1.6823
 5816TIP3    H238940   0.787   7.110  12.596  1.3496  1.0349  0.6269
 5817TIP3   OH238941   0.335   7.284  13.991 -0.1042 -0.0962 -0.1606
 5817TIP3    H138942   0.241   7.270  13.981  0.1197 -1.0040 -1.0783
 5817TIP3    H238943   0.346   7.378  13.984 -1.0394  0.0965  0.7891
 5818TIP3   OH238944   2.367   5.886  13.824  0.1142  0.0665  0.4444
 5818TIP3    H138945   2.429   5.897  13.897  0.9846 -0.4892 -0.2111
 5818TIP3    H238946   2.407   5.820  13.768 -0.8563  0.0417 -0.2247
 5819TIP3   OH238947   0.447   2.320  11.440 -0.1481 -0.2805 -0.3889
 5819TIP3    H138948   0.458   2.368  11.522  0.8210 -1.0786 -0.0534
 5819TIP3    H238949   0.407   2.384  11.381 -0.5426  0.3975  0.5989
 5820TIP3   OH238950   2.008   6.170  11.707  0.4235  0.1271 -0.2966
 5820TIP3    H138951   2.012   6.208  11.619 -1.9166  0.3117 -0.3440
 5820TIP3    H238952   2.093   6.128  11.719 -0.1218 -2.0428 -3.6028
 5821TIP3   OH238953   0.379   4.867  15.069 -0.0919 -0.4503  0.2188
 5821TIP3    H138954   0.323   4.790  15.077 -2.2463  0.8401 -1.8567
 5821TIP3    H238955   0.391   4.879  14.975  1.9541  0.5389  0.5804
 5822TIP3   OH238956   2.686   5.709  12.438  0.1191 -0.2380  0.3433
 5822TIP3    H138957   2.778   5.704  12.464  0.6048  1.2497 -1.0233
 5822TIP3    H238958   2.669   5.627  12.392  1.3476  0.3657 -1.2133
 5823TIP3   OH238959   1.402   7.340  12.279 -0.0353 -0.0901 -0.1772
 5823TIP3    H138960   1.454   7.261  12.267 -0.6365 -0.7542  1.3921
 5823TIP3    H238961   1.366   7.359  12.192  1.1078 -0.8264 -0.8173
 5824TIP3   OH238962   1.360   5.181  12.357  0.0248  0.4696 -0.1578
 5824TIP3    H138963   1.358   5.184  12.262  0.4529  1.4461 -0.1439
 5824TIP3    H238964   1.405   5.099  12.378  0.3671  0.4936 -0.8024
 5825TIP3   OH238965   0.239   5.278  12.264  0.1929 -0.2284 -0.0433
 5825TIP3    H138966   0.167   5.341  12.259  1.3721  1.0870 -0.6087
 5825TIP3    H238967   0.235   5.231  12.181  0.0876 -0.0537 -0.1375
 5826TIP3   OH238968   1.618   0.821  12.337  0.2045  0.1257 -0.2044
 5826TIP3    H138969   1.542   0.763  12.335 -0.3715  0.8520  0.3244
 5826TIP3    H238970   1.664   0.804  12.254 -1.5520  1.0296 -1.3818
 5827TIP3   OH238971   0.148   3.659  12.567 -0.0588 -0.9574  0.5705
 5827TIP3    H138972   0.068   3.610  12.545 -2.0962  2.3495  0.3378
 5827TIP3    H238973   0.158   3.646  12.661 -2.9735  1.4342  1.3033
 5828TIP3   OH238974   1.367   3.184  12.444  0.6169  0.3959 -1.0251
 5828TIP3    H138975   1.457   3.169  12.417  1.1727 -1.1785  1.5045
 5828TIP3    H238976   1.317   3.113  12.403  1.1461 -0.8849  0.5151
 5829TIP3   OH238977   0.888   0.261  11.311 -0.5394 -0.5556  0.0857
 5829TIP3    H138978   0.826   0.333  11.305 -1.2221 -1.2526 -1.4989
 5829TIP3    H238979   0.852   0.193  11.254  0.7945 -1.6276  0.4827
 5830TIP3   OH238980   1.720   0.272  14.508  0.5394 -0.1148  0.3782
 5830TIP3    H138981   1.747   0.286  14.418 -0.0480  1.5987  0.4511
 5830TIP3    H238982   1.789   0.218  14.546  0.5672 -1.2034 -1.2082
 5831TIP3   OH238983   2.624   5.154  11.241  0.5437  0.0184  0.1130
 5831TIP3    H138984   2.625   5.189  11.152 -0.1243 -1.0388 -0.3169
 5831TIP3    H238985   2.713   5.121  11.255  0.9366  1.0905  0.2129
 5832TIP3   OH238986   0.895   0.009  14.262 -0.1897  0.6638 -0.2056
 5832TIP3    H138987   0.932  -0.035  14.185 -0.7503 -0.0204 -0.0882
 5832TIP3    H238988   0.821  -0.046  14.287  0.4159  0.5080  1.2454
 5833TIP3   OH238989   7.115   7.180  13.177 -1.2447 -0.3381 -0.2509
 5833TIP3    H138990   7.094   7.267  13.210 -2.1936  0.0792 -1.9012
 5833TIP3    H238991   7.087   7.120  13.246 -1.5442  0.6014  0.4502
 5834TIP3   OH238992   0.765   5.968  11.225 -0.2804  0.2191  0.6244
 5834TIP3    H138993   0.685   6.013  11.253  0.1973  1.4033  0.0900
 5834TIP3    H238994   0.741   5.924  11.143 -0.0223  1.6708 -0.2402
 5835TIP3   OH238995   1.644   5.806  11.328  0.1522  0.2385  0.6421
 5835TIP3    H138996   1.676   5.770  11.246 -0.8687  0.4685  0.1337
 5835TIP3    H238997   1.719   5.801  11.388  0.4515 -1.3712  0.1535
 5836TIP3   OH238998   6.341   7.263  12.390 -0.1561 -0.0191 -0.0851
 5836TIP3    H138999   6.315   7.228  12.475 -1.7928  3.8175  1.1283
 5836TIP3    H239000   6.427   7.302  12.406  0.2594 -0.6995 -0.6263
 5837TIP3   OH239001   6.173   3.979  12.810  0.5024  0.3597 -0.2933
 5837TIP3    H139002   6.218   3.930  12.879  1.8778 -1.4263 -2.3907
 5837TIP3    H239003   6.232   4.051  12.788 -0.4068  1.5610  1.0591
 5838TIP3   OH239004   0.055   0.419  10.724 -0.0785  0.0657  0.1867
 5838TIP3    H139005   0.139   0.463  10.714 -0.3122  0.7176  1.1519
 5838TIP3    H239006   0.019   0.452  10.806 -1.5309  0.2015 -0.4901
 5839TIP3   OH239007   6.779   2.985  12.352  0.8860  0.2161 -0.1379
 5839TIP3    H139008   6.715   3.057  12.352  0.2428 -0.2795 -2.6636
 5839TIP3    H239009   6.858   3.024  12.316  0.9555  0.0030 -0.2141
 5840TIP3   OH239010   1.191   0.004  13.605  0.0618  0.2195 -0.2649
 5840TIP3    H139011   1.140  -0.038  13.536  0.3686 -1.8626  0.7487
 5840TIP3    H239012   1.281  -0.024  13.589  0.6316  2.2969 -0.8761
 5841TIP3   OH239013   0.264   6.086  13.132 -0.2423 -0.1054  0.2982
 5841TIP3    H139014   0.215   6.167  13.140  0.7861  0.5252  0.2681
 5841TIP3    H239015   0.337   6.107  13.074  1.1098 -0.5327  1.8118
 5842TIP3   OH239016   0.971   5.830  11.741  0.9455 -0.3976  0.5820
 5842TIP3    H139017   0.930   5.832  11.655  0.3666 -0.1338  0.8622
 5842TIP3    H239018   0.923   5.894  11.793  0.2398 -1.7009  1.5743
 5843TIP3   OH239019   5.306   6.569  13.084  0.4105  0.9863 -0.5260
 5843TIP3    H139020   5.287   6.476  13.094  2.2956  0.7587  1.2484
 5843TIP3    H239021   5.238   6.612  13.136 -0.1799  0.5904 -0.9625
 5844TIP3   OH239022   0.409   0.803  10.236  0.1697  0.5488  0.2475
 5844TIP3    H139023   0.365   0.865  10.177 -0.2259 -1.6402 -1.8571
 5844TIP3    H239024   0.496   0.839  10.248  0.9829  0.0477 -3.4399
 5845TIP3   OH239025   5.966   0.308  14.249  0.6687  0.1524  0.7830
 5845TIP3    H139026   6.016   0.279  14.173  0.6682  0.0670  0.8144
 5845TIP3    H239027   5.875   0.299  14.223  0.6619 -0.7339  1.1095
 5846TIP3   OH239028   0.131   6.419  12.829  0.2854  0.7118  0.2347
 5846TIP3    H139029   0.081   6.451  12.753 -1.8167  0.1489  1.3310
 5846TIP3    H239030   0.161   6.332  12.803 -0.8374  0.3245  0.2242
 5847TIP3   OH239031   2.161   6.423  14.716 -0.0050 -0.3924  0.3974
 5847TIP3    H139032   2.153   6.473  14.634  0.8709  1.4842  1.4313
 5847TIP3    H239033   2.073   6.389  14.731 -0.5429  0.5342 -0.5285
 5848TIP3   OH239034   0.324   1.955  11.407  0.2932  0.0336  0.2219
 5848TIP3    H139035   0.414   1.932  11.386  0.0575  0.2326 -1.0796
 5848TIP3    H239036   0.292   1.999  11.328 -0.2175  2.0698  1.5167
 5849TIP3   OH239037   3.359   6.778  13.585  0.0500  0.5676 -0.1982
 5849TIP3    H139038   3.352   6.717  13.512 -0.7810  1.6474 -1.0355
 5849TIP3    H239039   3.453   6.783  13.603  0.1508 -0.7464 -0.2817
 5850TIP3   OH239040   6.831   5.424  15.264  0.2952  0.1910 -0.3062
 5850TIP3    H139041   6.875   5.509  15.254  0.3388 -0.0151 -1.9563
 5850TIP3    H239042   6.829   5.409  15.359 -0.5839  2.4813  0.0647
 5851TIP3   OH239043   0.210   6.173  10.773  0.3489  0.4129  0.1754
 5851TIP3    H139044   0.206   6.240  10.841 -1.6937 -1.1759  1.6903
 5851TIP3    H239045   0.149   6.203  10.706  0.2812  0.6288  0.3346
 5852TIP3   OH239046   0.900   4.660  13.100 -0.0351 -0.1820 -0.1230
 5852TIP3    H139047   0.810   4.673  13.129 -0.6801 -1.9740 -1.2285
 5852TIP3    H239048   0.896   4.667  13.004  0.7155 -1.6845 -0.2923
 5853TIP3   OH239049   2.141   5.156  13.896 -0.4806 -0.2117  0.4465
 5853TIP3    H139050   2.227   5.116  13.891 -0.5040 -0.1444 -0.6275
 5853TIP3    H239051   2.098   5.132  13.814 -0.7875  1.3222  0.1358
 5854TIP3   OH239052   0.094   5.456  14.577  0.0204  0.0909 -0.5397
 5854TIP3    H139053   0.065   5.366  14.565  2.3255 -0.7309 -0.0350
 5854TIP3    H239054   0.145   5.476  14.498  0.4986  0.5645 -0.1175
 5855TIP3   OH239055   0.799   1.828  11.588  0.2017  0.4385  0.4858
 5855TIP3    H139056   0.769   1.919  11.585  2.2819  1.1178 -0.6350
 5855TIP3    H239057   0.866   1.828  11.656  0.3305 -0.2259  0.3542
 5856TIP3   OH239058   0.140   0.836  14.228 -0.0250 -0.2475 -0.3865
 5856TIP3    H139059   0.091   0.887  14.163  0.7406  1.0259  0.0198
 5856TIP3    H239060   0.231   0.862  14.215  0.0365  0.8672  1.9061
 5857TIP3   OH239061   1.167   7.019  12.812  0.5594 -0.2605  0.9223
 5857TIP3    H139062   1.148   7.104  12.774  0.8854 -0.2260  0.8350
 5857TIP3    H239063   1.100   6.961  12.776  1.7694 -0.5628 -0.9127
 5858TIP3   OH239064   0.393   4.823  13.252  0.6246 -0.0590 -0.1638
 5858TIP3    H139065   0.318   4.860  13.299 -0.8248 -1.5946 -1.1951
 5858TIP3    H239066   0.422   4.893  13.194  0.9700  1.0686  1.3521
 5859TIP3   OH239067   2.085   0.153  14.028  0.3786 -0.8908  0.3241
 5859TIP3    H139068   2.052   0.177  13.942  2.5963 -0.1451 -0.3458
 5859TIP3    H239069   2.019   0.185  14.090  0.0606  0.9121 -0.9452
 5860TIP3   OH239070   1.493   7.268  13.825  0.5377  0.3042  0.0705
 5860TIP3    H139071   1.507   7.216  13.746 -1.4943 -0.2191  0.0338
 5860TIP3    H239072   1.525   7.356  13.802  0.7980 -0.0738 -1.0259
 5861TIP3   OH239073   2.875   4.817  12.419 -0.1424  0.2860 -0.1614
 5861TIP3    H139074   2.935   4.758  12.374 -0.6651  0.8734 -1.6345
 5861TIP3    H239075   2.931   4.866  12.479  0.4230 -1.0869  0.4553
 5862TIP3   OH239076   0.347   5.121  12.480 -0.0189 -0.6227  0.2775
 5862TIP3    H139077   0.304   5.192  12.433 -1.0269 -0.0969  1.9841
 5862TIP3    H239078   0.421   5.097  12.423 -0.0680  1.3064 -0.6439
 5863TIP3   OH239079   7.055   3.979  14.524 -0.6601 -0.2338 -0.1387
 5863TIP3    H139080   7.030   3.919  14.454  1.0008 -1.2588  0.1026
 5863TIP3    H239081   7.124   4.033  14.486 -0.2769 -0.2901  0.4551
 5864TIP3   OH239082   1.778   0.761  11.279  0.3878  0.6167  0.2921
 5864TIP3    H139083   1.817   0.708  11.209  1.0180  1.1440  0.2406
 5864TIP3    H239084   1.834   0.745  11.355 -0.9497 -0.8319  0.9899
 5865TIP3   OH239085   3.576   0.702  11.630 -0.0806  0.2546  0.3352
 5865TIP3    H139086   3.594   0.615  11.593  2.3349  0.5731  0.6623
 5865TIP3    H239087   3.552   0.685  11.721 -0.4488 -0.1451  0.1611
 5866TIP3   OH239088   1.976   4.322  13.503 -0.2947  0.1851 -0.1519
 5866TIP3    H139089   1.889   4.357  13.523  0.7447  2.4786  0.4796
 5866TIP3    H239090   2.010   4.379  13.434  0.9132 -0.4123 -0.0691
 5867TIP3   OH239091   3.339   6.134  15.030 -0.2516 -0.2193 -0.0299
 5867TIP3    H139092   3.259   6.084  15.011 -0.6408  0.0499  0.8643
 5867TIP3    H239093   3.395   6.071  15.075  0.4322 -0.6878 -1.5371
 5868TIP3   OH239094   7.185   3.870  13.627  1.1214  0.1645  0.1008
 5868TIP3    H139095   7.119   3.805  13.606 -0.1658  0.6154  2.5444
 5868TIP3    H239096   7.216   3.902  13.542 -1.8738  0.0318 -1.0970
 5869TIP3   OH239097   1.795   1.551  13.738  0.3744  0.3807 -0.6584
 5869TIP3    H139098   1.715   1.600  13.758  0.2283  0.0811 -0.5181
 5869TIP3    H239099   1.837   1.539  13.823 -0.2955 -0.9795 -0.5188
 5870TIP3   OH239100   3.668   0.185  13.596  0.2806  0.4407 -0.6017
 5870TIP3    H139101   3.708   0.146  13.674  2.0063  0.6035 -1.3874
 5870TIP3    H239102   3.626   0.265  13.628 -1.1460 -0.7568  0.5767
 5871TIP3   OH239103   1.127   0.183  14.768 -0.2532  0.4858 -0.0324
 5871TIP3    H139104   1.104   0.090  14.764  0.3052  0.3167  0.5167
 5871TIP3    H239105   1.223   0.184  14.759 -0.1976  0.9617  0.5882
 5872TIP3   OH239106   6.857   3.102  14.282 -0.3322 -0.2085  0.6313
 5872TIP3    H139107   6.899   3.058  14.208 -0.6055 -0.2316  0.4865
 5872TIP3    H239108   6.925   3.157  14.320  0.1381 -1.0919  1.0855
 5873TIP3   OH239109   2.760   1.236  10.635  0.0840 -0.3959 -0.0898
 5873TIP3    H139110   2.668   1.258  10.648  0.4875  0.3074  1.8650
 5873TIP3    H239111   2.773   1.158  10.689  0.7983 -0.0366  0.2651
 5874TIP3   OH239112   4.016   1.302  11.058 -0.0038  0.9099 -0.1662
 5874TIP3    H139113   4.058   1.345  10.983 -0.1995 -0.4147 -1.0433
 5874TIP3    H239114   3.941   1.358  11.079 -1.1737  0.1792 -2.3055
 5875TIP3   OH239115   0.602   6.927  12.891  0.0853 -0.5046  0.5903
 5875TIP3    H139116   0.541   6.875  12.838 -1.0202 -0.7057  2.0281
 5875TIP3    H239117   0.641   6.988  12.829 -2.0158  0.0215 -0.2758
 5876TIP3   OH239118   1.685   6.330  10.653  0.8511  0.6402  0.9777
 5876TIP3    H139119   1.662   6.244  10.619  0.5606  1.4792 -1.0463
 5876TIP3    H239120   1.770   6.318  10.694  2.1256 -0.0376 -1.7674
 5877TIP3   OH239121   1.349   6.318  11.214 -0.0870  0.0215 -0.5550
 5877TIP3    H139122   1.289   6.264  11.267 -0.3194  1.0347  0.2368
 5877TIP3    H239123   1.398   6.255  11.162 -0.8018 -0.9220 -0.1113
 5878TIP3   OH239124   1.959   0.204  12.335  0.2123 -0.1682 -0.1528
 5878TIP3    H139125   1.926   0.239  12.417 -2.3490 -0.4031 -1.0559
 5878TIP3    H239126   2.029   0.144  12.361 -0.2355  0.1242  1.8012
 5879TIP3   OH239127   1.107   0.702  12.394 -0.1573  0.6673  0.4015
 5879TIP3    H139128   1.114   0.797  12.398 -0.9860  0.7397  0.1693
 5879TIP3    H239129   1.118   0.673  12.485  2.0495  0.8407  0.2162
 5880TIP3   OH239130   7.065   7.288  11.385  0.4863  0.5533 -0.1806
 5880TIP3    H139131   6.971   7.302  11.389  0.5486  0.9293 -0.0194
 5880TIP3    H239132   7.096   7.310  11.473  0.5988 -0.5066  0.0543
 5881TIP3   OH239133   0.563   0.087  15.232  0.1906 -0.2688 -0.0738
 5881TIP3    H139134   0.578   0.001  15.271  1.8852  0.0359 -0.0541
 5881TIP3    H239135   0.563   0.148  15.306  0.8360 -0.0142 -0.2837
 5882TIP3   OH239136   2.671   7.240  12.207  0.2739  0.2392 -0.4101
 5882TIP3    H139137   2.765   7.231  12.219 -0.0323 -0.6908  1.4437
 5882TIP3    H239138   2.652   7.329  12.236  0.3217 -0.2243  1.1108
 5883TIP3   OH239139   1.619   0.613  11.571 -0.2143  0.1325 -0.4185
 5883TIP3    H139140   1.657   0.624  11.658  0.8192 -0.6212 -0.7732
 5883TIP3    H239141   1.692   0.590  11.515 -1.1434 -1.0817 -1.1642
 5884TIP3   OH239142   0.568   6.021  13.096  0.0138 -0.3746 -0.0024
 5884TIP3    H139143   0.663   6.014  13.097  0.0899  0.6411 -0.4013
 5884TIP3    H239144   0.548   6.074  13.019 -0.8517 -0.1127  0.3982
 5885TIP3   OH239145   2.688   0.247  14.396  0.4686 -0.1146  0.6059
 5885TIP3    H139146   2.648   0.163  14.417  0.6729 -1.1196 -2.6950
 5885TIP3    H239147   2.617   0.298  14.356  1.5901 -0.7685 -2.3864
 5886TIP3   OH239148   7.167   0.643  15.208 -0.3431 -1.0271  0.7387
 5886TIP3    H139149   7.160   0.737  15.188  1.3714 -1.1233 -0.4386
 5886TIP3    H239150   7.121   0.633  15.292 -1.8905  0.5757  0.1148
 5887TIP3   OH239151   2.672   6.560  11.779 -0.2438 -0.0420  0.1389
 5887TIP3    H139152   2.587   6.548  11.736  0.7074 -3.4995 -0.8704
 5887TIP3    H239153   2.736   6.559  11.707  0.9122 -0.5726  1.1514
 5888TIP3   OH239154   1.188   6.621  12.911  0.0167  0.2111 -0.1996
 5888TIP3    H139155   1.108   6.572  12.893 -0.6900  0.9312  0.9202
 5888TIP3    H239156   1.222   6.584  12.992  1.1430 -0.4867 -0.9776
 5889TIP3   OH239157   1.520   2.945  13.114 -0.0386 -0.4248  0.1727
 5889TIP3    H139158   1.511   3.002  13.037 -3.0015 -0.7555  0.2270
 5889TIP3    H239159   1.513   3.004  13.188  0.2280 -0.4471  0.2177
 5890TIP3   OH239160   1.288   0.111  13.858  0.4778 -0.2459 -0.3607
 5890TIP3    H139161   1.239   0.060  13.793  0.6765 -1.6906  0.6054
 5890TIP3    H239162   1.226   0.122  13.930  0.9742 -0.5311  0.1105
 5891TIP3   OH239163   1.027   0.867  11.981 -0.6155 -0.4090  0.0972
 5891TIP3    H139164   1.098   0.803  11.988 -1.1090 -0.8079  1.7550
 5891TIP3    H239165   1.035   0.920  12.059 -0.3777  1.4205 -1.1453
 5892TIP3   OH239166   4.132   5.727  10.855 -0.2986 -0.0011 -0.2060
 5892TIP3    H139167   4.204   5.735  10.793  1.9216 -0.7551  2.2111
 5892TIP3    H239168   4.094   5.641  10.837  1.4153 -0.9374  0.5890
 5893TIP3   OH239169   1.160   7.096  11.871  0.0220  0.1539  0.2860
 5893TIP3    H139170   1.220   7.132  11.806 -0.1714  0.7551  0.4368
 5893TIP3    H239171   1.139   7.008  11.838 -1.0691  0.9280 -1.1226
 5894TIP3   OH239172   6.665   5.614  12.007 -0.6862  0.0150 -0.1996
 5894TIP3    H139173   6.616   5.638  12.086 -1.2260 -1.9763  0.1024
 5894TIP3    H239174   6.614   5.651  11.935 -1.4129 -0.0985  0.2531
 5895TIP3   OH239175   5.971   6.253  12.312 -0.2748 -0.3275 -0.2675
 5895TIP3    H139176   5.925   6.216  12.237  0.2035 -0.5418 -0.4596
 5895TIP3    H239177   5.912   6.239  12.386 -0.8159  0.0241 -0.6286
 5896TIP3   OH239178   1.741   1.061   9.878  0.4536 -0.0872  0.3465
 5896TIP3    H139179   1.658   1.014   9.886  0.8268 -0.7061  0.6375
 5896TIP3    H239180   1.765   1.052   9.785 -0.1597  0.7074  0.1091
 5897TIP3   OH239181   2.021   0.639  13.085 -0.5703  0.0748  0.2438
 5897TIP3    H139182   2.005   0.551  13.120 -0.4363 -0.0600 -0.0265
 5897TIP3    H239183   2.088   0.625  13.017 -1.4842  0.2004 -0.6865
 5898TIP3   OH239184   0.060   6.475  11.802  0.3950 -0.5197  0.1944
 5898TIP3    H139185   0.103   6.469  11.887 -0.1777 -0.0878  0.5129
 5898TIP3    H239186  -0.026   6.513  11.820  0.4646  0.0502 -0.6429
 5899TIP3   OH239187   5.466   0.435  15.139  0.3373  0.5623  0.3895
 5899TIP3    H139188   5.464   0.528  15.159  0.7096  1.4451 -3.1989
 5899TIP3    H239189   5.374   0.409  15.133  0.2318  0.8282  0.8882
 5900TIP3   OH239190   2.575   4.913  13.426  0.1285 -0.1676 -0.6353
 5900TIP3    H139191   2.515   4.975  13.467 -0.0229  0.2366 -1.4637
 5900TIP3    H239192   2.585   4.843  13.491 -2.2545 -0.8859 -1.0065
 5901TIP3   OH239193   2.427   6.137  10.671 -0.2060  0.4111 -0.1328
 5901TIP3    H139194   2.489   6.079  10.627  0.1191  0.6752 -0.0281
 5901TIP3    H239195   2.346   6.086  10.677  0.2083 -0.1829  0.3575
 5902TIP3   OH239196   0.906   4.767  11.966 -0.4242  0.2796 -0.6422
 5902TIP3    H139197   0.850   4.811  12.030  1.0434  0.8412  0.2665
 5902TIP3    H239198   0.964   4.836  11.933 -0.0806 -0.3544 -1.3892
 5903TIP3   OH239199   1.077   6.971  13.899  0.1100 -0.0293  0.1257
 5903TIP3    H139200   1.008   6.906  13.917 -1.9200  2.0568  0.1323
 5903TIP3    H239201   1.096   6.960  13.806 -0.7843 -0.1305 -0.0559
 5904TIP3   OH239202   6.785   6.481  11.267 -0.0782  0.4953  0.1856
 5904TIP3    H139203   6.734   6.403  11.244  0.8422 -0.0732  0.0493
 5904TIP3    H239204   6.725   6.554  11.250 -0.8338 -0.1563 -0.0136
 5905TIP3   OH239205   1.314   5.858  12.722  0.0714  0.6288  0.7726
 5905TIP3    H139206   1.297   5.764  12.730 -0.1907  0.7465  1.7290
 5905TIP3    H239207   1.407   5.867  12.740  0.0460  0.5712  0.9386
 5906TIP3   OH239208   0.458   5.187  12.731  0.2113 -0.1923 -0.1789
 5906TIP3    H139209   0.425   5.150  12.649 -2.5098 -0.1560  0.8678
 5906TIP3    H239210   0.497   5.271  12.705 -1.9048  0.4870 -1.2525
 5907TIP3   OH239211   1.908   7.058  12.242  0.1392 -0.0755  0.1741
 5907TIP3    H139212   1.960   7.138  12.236 -2.0861  1.3849 -0.1090
 5907TIP3    H239213   1.942   7.003  12.171  1.6896  0.6120  0.3678
 5908TIP3   OH239214   6.652   6.608  10.868 -0.2765 -0.2568  0.7331
 5908TIP3    H139215   6.627   6.603  10.776 -2.6185 -0.5498  1.3537
 5908TIP3    H239216   6.688   6.696  10.878  0.4541 -0.4059 -0.5737
 5909TIP3   OH239217   0.884   5.642  13.197  0.5327 -0.8671 -0.5591
 5909TIP3    H139218   0.830   5.715  13.166 -1.9803 -1.7960  1.5068
 5909TIP3    H239219   0.951   5.683  13.252 -1.6987 -0.1960  1.7097
 5910TIP3   OH239220   0.703   7.036  14.551 -0.4016  0.1849 -0.1815
 5910TIP3    H139221   0.649   7.044  14.630 -0.1669  1.2969 -0.1273
 5910TIP3    H239222   0.787   7.074  14.576 -0.5396  1.1607 -1.1682
 5911TIP3   OH239223   0.044   6.298  12.545 -0.1616  0.0265  0.0543
 5911TIP3    H139224   0.010   6.285  12.457  0.0847 -1.5177  0.1675
 5911TIP3    H239225   0.139   6.302  12.533 -0.1194 -0.3333  0.2580
 5912TIP3   OH239226   0.418   7.118  14.215 -0.2244  0.4035  0.1850
 5912TIP3    H139227   0.412   7.177  14.140  2.8600 -0.6818 -0.9891
 5912TIP3    H239228   0.400   7.031  14.179 -2.9099  0.3535  1.5526
 5913TIP3   OH239229   2.273   5.839  12.855  0.1978  0.0972 -0.1873
 5913TIP3    H139230   2.178   5.832  12.841 -0.1772  1.5500  1.4859
 5913TIP3    H239231   2.285   5.816  12.947  1.6073 -0.9322 -0.5990
 5914TIP3   OH239232   1.716   0.492  12.284  0.0954  0.4143 -0.9148
 5914TIP3    H139233   1.641   0.460  12.235  0.1790  0.9554 -1.4065
 5914TIP3    H239234   1.718   0.439  12.363 -0.6948  0.2764 -0.9871
 5915TIP3   OH239235   4.599   5.882  12.418 -0.2221  0.5221 -0.1232
 5915TIP3    H139236   4.614   5.891  12.512 -0.6322  1.2929 -0.1250
 5915TIP3    H239237   4.581   5.789  12.406  1.6172  0.0941  0.2823
 5916TIP3   OH239238   0.643   4.276  12.578 -0.2570  1.2003  0.3256
 5916TIP3    H139239   0.711   4.274  12.645  0.3562 -1.0517 -0.3028
 5916TIP3    H239240   0.671   4.211  12.514 -3.0813  0.0730  0.1548
 5917TIP3   OH239241   3.111   6.346  10.472 -0.0333 -0.5639 -0.4068
 5917TIP3    H139242   3.031   6.322  10.425 -0.8630  1.1926  0.0391
 5917TIP3    H239243   3.158   6.405  10.413  0.6235 -1.0812 -0.4091
 5918TIP3   OH239244   1.798   6.636  12.545 -0.0274  0.0205  0.8178
 5918TIP3    H139245   1.728   6.674  12.598 -1.0681 -0.5086 -0.1539
 5918TIP3    H239246   1.851   6.710  12.518 -0.3011  0.4440  1.4185
 5919TIP3   OH239247   4.734   6.459  13.943 -0.3370 -0.1256  0.6400
 5919TIP3    H139248   4.641   6.465  13.967 -0.9733 -2.5426 -0.9598
 5919TIP3    H239249   4.766   6.383  13.992  0.5405  0.1247  0.4468
 5920TIP3   OH239250   1.633   0.096  14.164 -0.4261  0.2737  0.0094
 5920TIP3    H139251   1.679   0.031  14.111  0.1995 -0.8554  1.8993
 5920TIP3    H239252   1.686   0.175  14.156 -0.0709 -0.0301 -0.6557
 5921TIP3   OH239253   0.808   6.400  12.632  0.4378  0.2803 -0.7001
 5921TIP3    H139254   0.838   6.364  12.549 -0.3189 -0.8564 -0.4926
 5921TIP3    H239255   0.870   6.367  12.697 -0.3145 -0.7593 -0.4970
 5922TIP3   OH239256   2.440   1.383  12.635 -0.2977 -0.0774 -0.2304
 5922TIP3    H139257   2.508   1.429  12.684  0.5704 -0.9868 -0.5548
 5922TIP3    H239258   2.391   1.335  12.702 -0.6786  0.6495  0.0146
 5923TIP3   OH239259   4.442   6.660  11.437  0.0525 -0.1195  0.9722
 5923TIP3    H139260   4.488   6.577  11.441 -1.0454 -0.7656  0.3645
 5923TIP3    H239261   4.448   6.696  11.525  0.5509 -0.8287  1.2255
 5924TIP3   OH239262   2.457   0.350  12.005 -0.3275  0.1959  0.0250
 5924TIP3    H139263   2.444   0.430  11.955 -0.0541  0.5834  0.5741
 5924TIP3    H239264   2.416   0.281  11.952  1.6868  0.2810 -1.6476
 5925TIP3   OH239265   1.618   0.502  13.284  0.3247  0.4178 -0.1133
 5925TIP3    H139266   1.578   0.484  13.369  2.0096  2.1679  1.1126
 5925TIP3    H239267   1.645   0.416  13.251 -2.3828 -0.5209  0.0405
 5926TIP3   OH239268   2.426   0.375  10.922  0.0475 -0.3311 -0.1730
 5926TIP3    H139269   2.516   0.355  10.894  0.0102 -0.4065 -0.2439
 5926TIP3    H239270   2.372   0.349  10.847 -0.1547 -1.6040  0.3889
 5927TIP3   OH239271   1.765   4.837  10.303  0.2364  0.2706 -0.1974
 5927TIP3    H139272   1.818   4.816  10.226 -0.4673 -0.3154 -0.5332
 5927TIP3    H239273   1.826   4.879  10.364  1.8522 -3.0988  0.6661
 5928TIP3   OH239274   3.243   6.949  12.016 -0.6486 -0.7574 -0.4194
 5928TIP3    H139275   3.155   6.913  12.002 -0.6078 -0.3957 -1.7262
 5928TIP3    H239276   3.291   6.926  11.936 -0.4950  1.7786 -1.0960
 5929TIP3   OH239277   4.136   7.245  12.968 -0.1572 -0.0214 -0.0418
 5929TIP3    H139278   4.203   7.309  12.992  0.3162 -0.7572  0.6105
 5929TIP3    H239279   4.176   7.193  12.898  0.4305 -1.2717  1.2080
 5930TIP3   OH239280   4.252   6.453  12.931  0.5964 -0.6429  0.9773
 5930TIP3    H139281   4.293   6.418  13.010 -0.2223 -0.6130  1.4170
 5930TIP3    H239282   4.251   6.548  12.945  1.6944 -0.5249  0.3254
 5931TIP3   OH239283   4.338   5.854  11.648  0.2546  0.1834  0.3608
 5931TIP3    H139284   4.289   5.828  11.570  0.7478 -1.6789  0.6324
 5931TIP3    H239285   4.273   5.890  11.707 -0.3018  0.5399 -0.4746
 5932TIP3   OH239286   3.981   6.485  12.164  0.4042  0.1320 -0.0652
 5932TIP3    H139287   3.902   6.434  12.182 -0.4404  1.2552 -0.5429
 5932TIP3    H239288   3.965   6.569  12.207  1.5184  0.2330  0.1719
 5933TIP3   OH239289   2.605   0.452  11.304  0.5917  0.2474 -0.0700
 5933TIP3    H139290   2.522   0.411  11.279  0.6812 -0.4312  0.7342
 5933TIP3    H239291   2.590   0.546  11.292 -0.5413  0.1800  0.8171
 5934TIP3   OH239292   5.021   0.215  11.032  0.3841 -0.3040 -0.3348
 5934TIP3    H139293   4.973   0.163  10.968  0.2702 -0.4682 -0.1164
 5934TIP3    H239294   5.112   0.209  11.005  0.2880 -0.0248 -0.7277
 5935TIP3   OH239295   0.736   6.361  15.098  0.2897 -0.3230  0.2649
 5935TIP3    H139296   0.691   6.281  15.126 -1.6366  0.9321  0.8750
 5935TIP3    H239297   0.764   6.403  15.180 -1.0882  0.9435  0.1192
 5936TIP3   OH239298   0.805   1.563  10.972 -0.2613 -0.4385  1.5978
 5936TIP3    H139299   0.849   1.509  11.038  0.1164  0.1162  1.8118
 5936TIP3    H239300   0.860   1.641  10.966 -1.4925  0.5034  2.2416
 5937TIP3   OH239301   2.851   6.291  11.858  0.3992 -0.5025  0.3580
 5937TIP3    H139302   2.884   6.298  11.948  0.9873 -0.6079  0.1535
 5937TIP3    H239303   2.785   6.360  11.851  0.2672 -0.5699  0.9072
 5938TIP3   OH239304   3.919   7.019  11.112  0.0938 -0.8991 -0.0317
 5938TIP3    H139305   3.938   7.112  11.120  0.4503 -1.0020  0.3342
 5938TIP3    H239306   3.977   6.977  11.175 -0.3431 -1.3377  0.0869
 5939TIP3   OH239307   1.226   6.297  12.274  0.5385 -0.0394 -0.8194
 5939TIP3    H139308   1.201   6.387  12.251  0.3201  0.3909  1.0381
 5939TIP3    H239309   1.302   6.307  12.331 -0.5335 -0.9314  0.8133
 5940TIP3   OH239310   2.635   7.047  13.610  0.5487  0.0386  0.2177
 5940TIP3    H139311   2.632   7.100  13.530  0.7011  0.5236  0.5314
 5940TIP3    H239312   2.564   7.080  13.664  2.8110  2.3395  1.9086
 5941TIP3   OH239313   5.718   7.118  15.202 -0.4715  0.4181  0.3087
 5941TIP3    H139314   5.706   7.030  15.238  0.6633  0.2433  0.2901
 5941TIP3    H239315   5.658   7.122  15.128  0.0178 -0.6239 -0.1581
 5942TIP3   OH239316   2.753   0.290  13.287 -0.7990 -0.2557  0.2920
 5942TIP3    H139317   2.682   0.337  13.243 -1.2077 -0.1049  1.0939
 5942TIP3    H239318   2.762   0.334  13.372  0.7996  0.2303 -0.1194
 5943TIP3   OH239319   3.912   0.415  10.457  0.1624  0.3810 -0.5917
 5943TIP3    H139320   3.965   0.339  10.431 -0.7849 -0.4651 -0.1156
 5943TIP3    H239321   3.839   0.415  10.395  0.1143  0.8496 -0.5320
 5944TIP3   OH239322   1.534   0.125  13.451 -0.3186  0.2014 -0.1321
 5944TIP3    H139323   1.596   0.136  13.379  1.3581 -0.3183  1.2000
 5944TIP3    H239324   1.508   0.214  13.474  1.1566  0.5252  0.3295
 5945TIP3   OH239325   2.984   5.602  13.597 -0.5065  0.0755 -0.5930
 5945TIP3    H139326   2.962   5.693  13.576 -0.3936  0.0720 -0.7275
 5945TIP3    H239327   3.077   5.605  13.619 -0.8746  0.2757  1.0082
 5946TIP3   OH239328   4.549   6.875  11.948  0.6076  0.9099 -0.3698
 5946TIP3    H139329   4.640   6.870  11.977  1.1430  0.2558 -2.1118
 5946TIP3    H239330   4.554   6.895  11.855 -1.0508  1.4028 -0.3805
 5947TIP3   OH239331   4.520   7.001  14.279  0.0728 -0.0186  0.1837
 5947TIP3    H139332   4.578   6.974  14.208  0.2171  1.0837 -0.1159
 5947TIP3    H239333   4.571   6.986  14.359  0.9804  1.4551 -0.1082
 5948TIP3   OH239334   4.426   6.838  12.817 -0.2422  0.5630 -0.1271
 5948TIP3    H139335   4.466   6.783  12.749 -1.5029  1.1153 -1.3580
 5948TIP3    H239336   4.406   6.920  12.772 -1.1587  0.9178  0.9037
 5949TIP3   OH239337   3.212   6.583  13.478 -0.4594  0.3241  0.0902
 5949TIP3    H139338   3.203   6.488  13.476  2.3332  0.0226 -0.6353
 5949TIP3    H239339   3.124   6.615  13.500 -2.3042 -2.2484 -2.9993
 5950TIP3   OH239340   1.781   0.781  12.106 -0.3254  0.2574  0.2763
 5950TIP3    H139341   1.865   0.826  12.093  0.7281 -1.5278  0.8286
 5950TIP3    H239342   1.783   0.708  12.045 -2.7082  1.7878 -1.7324
 5951TIP3   OH239343   1.585   5.754  13.717 -0.2963 -0.1387 -0.1133
 5951TIP3    H139344   1.495   5.742  13.688 -0.4810  0.1500  0.3524
 5951TIP3    H239345   1.588   5.713  13.803  0.2641 -1.0210 -0.5378
 5952TIP3   OH239346   1.138   0.914  10.663 -0.3560 -0.7751  0.3277
 5952TIP3    H139347   1.104   0.884  10.579  0.2459  0.2241 -0.2861
 5952TIP3    H239348   1.232   0.926  10.649 -0.4862  0.8526  0.6824
 5953TIP3   OH239349   1.462   2.426  10.939 -0.2430 -0.1344  0.1997
 5953TIP3    H139350   1.431   2.495  10.880  1.6613 -1.4520 -2.4474
 5953TIP3    H239351   1.414   2.348  10.914  1.8583 -1.1305 -0.8975
 5954TIP3   OH239352   0.825   6.730  11.948  0.1696 -0.4806 -0.1562
 5954TIP3    H139353   0.781   6.726  12.033 -0.2718 -1.4832 -0.4129
 5954TIP3    H239354   0.918   6.734  11.969 -0.0483  2.2550  0.4007
 5955TIP3   OH239355   2.573   0.392  12.658 -0.3541  0.0712 -0.3544
 5955TIP3    H139356   2.634   0.449  12.612  0.1159  0.0572  0.2448
 5955TIP3    H239357   2.527   0.451  12.718  0.3975 -0.2375  0.5365
 5956TIP3   OH239358   3.642   6.939  15.994 -0.6436 -0.6409 -0.2875
 5956TIP3    H139359   3.616   6.939  16.086 -1.5373  4.0037 -0.4314
 5956TIP3    H239360   3.578   6.882  15.950 -1.4831 -1.2015  1.6313
 5957TIP3   OH239361   2.807   6.599  11.540 -0.0156 -0.0594 -0.5876
 5957TIP3    H139362   2.766   6.674  11.497 -1.8561  0.1995  1.5537
 5957TIP3    H239363   2.813   6.532  11.472 -1.6713  0.7867 -1.5827
 5958TIP3   OH239364   1.943   6.875  14.261 -0.3739  0.1596  0.0837
 5958TIP3    H139365   1.961   6.967  14.283 -1.5816  0.4499 -0.1414
 5958TIP3    H239366   1.856   6.876  14.224 -1.7491 -1.5318  3.0653
 5959TIP3   OH239367   2.614   6.091  10.993 -0.3006 -0.3488 -0.5396
 5959TIP3    H139368   2.582   6.175  11.026 -0.0733  0.4302 -2.2808
 5959TIP3    H239369   2.651   6.048  11.070  0.5125  1.5789  0.1663
 5960TIP3   OH239370   2.181   6.751  13.758 -0.2079 -0.3831  0.3240
 5960TIP3    H139371   2.242   6.803  13.811 -0.6946  0.3194  0.1970
 5960TIP3    H239372   2.163   6.674  13.812 -0.0473 -0.0762  0.8215
 5961TIP3   OH239373   3.971   1.113  10.849  0.3501 -0.2249  0.1358
 5961TIP3    H139374   3.891   1.155  10.815 -0.6134 -1.4702  0.8398
 5961TIP3    H239375   4.017   1.183  10.895 -0.6603  0.3460  0.2890
 5962TIP3   OH239376   2.626   6.108  13.738 -0.0370 -0.3818  0.1659
 5962TIP3    H139377   2.650   6.194  13.704 -0.7470  0.2046  1.0851
 5962TIP3    H239378   2.623   6.051  13.662  1.9772  0.0493 -0.2398
 5963TIP3   OH239379   0.525   6.981  15.168  0.6117 -0.1424 -0.3203
 5963TIP3    H139380   0.571   6.897  15.162  1.4784  0.4053 -1.4020
 5963TIP3    H239381   0.433   6.958  15.153  0.6793 -1.0520  0.5571
 5964TIP3   OH239382   5.789   5.678  10.745  0.1150  0.3613  0.1779
 5964TIP3    H139383   5.769   5.751  10.804  0.8553  1.8662 -1.3735
 5964TIP3    H239384   5.786   5.716  10.657  0.9594 -1.3732 -0.6405
 5965TIP3   OH239385   3.599   6.913  10.283  0.3869 -0.5721 -0.0107
 5965TIP3    H139386   3.616   6.981  10.218 -0.0467 -1.2625 -0.8664
 5965TIP3    H239387   3.506   6.923  10.304 -0.0934 -1.9827 -1.4179
 5966TIP3   OH239388   3.139   0.657  13.568 -0.0695 -0.2584 -0.0634
 5966TIP3    H139389   3.152   0.712  13.491  1.5823 -0.5901 -0.0314
 5966TIP3    H239390   3.091   0.581  13.535 -1.0710  0.4890 -0.3759
 5967TIP3   OH239391   5.560   4.725  10.446 -0.6441  0.0931  0.5601
 5967TIP3    H139392   5.597   4.675  10.519 -1.9489 -0.8824  0.5760
 5967TIP3    H239393   5.634   4.774  10.411  1.0016 -2.8164 -0.2613
 5968TIP3   OH239394   3.634   7.292  12.590 -0.3561  0.1361  0.7632
 5968TIP3    H139395   3.674   7.341  12.662  0.8293  0.5345 -0.1337
 5968TIP3    H239396   3.623   7.204  12.625  3.2730 -0.5572  0.4348
 5969TIP3   OH239397   1.725   0.696  12.574 -0.3463 -0.0326 -0.7464
 5969TIP3    H139398   1.650   0.745  12.608  0.6049 -0.2034  1.6924
 5969TIP3    H239399   1.718   0.704  12.479 -1.6790  2.6230 -0.4654
 5970TIP3   OH239400   5.282   5.899  11.652  0.1955  0.1897  0.0851
 5970TIP3    H139401   5.210   5.836  11.644 -0.0944  0.4203  0.8074
 5970TIP3    H239402   5.329   5.871  11.730 -0.9525  1.8713  1.4330
 5971TIP3   OH239403   1.850   0.089  13.590 -0.1039  0.3055  0.6560
 5971TIP3    H139404   1.805   0.056  13.512 -0.1233  1.0173  0.3592
 5971TIP3    H239405   1.867   0.011  13.643  0.2645 -0.2398 -0.2419
 5972TIP3   OH239406   5.298   6.114  12.138 -0.3602 -0.2803  0.0438
 5972TIP3    H139407   5.284   6.143  12.228  2.3652  3.0037 -0.4755
 5972TIP3    H239408   5.388   6.080  12.137 -1.0849 -2.3060 -1.0087
 5973TIP3   OH239409   2.346   7.247  13.037 -0.0654  0.3379  0.1323
 5973TIP3    H139410   2.260   7.282  13.016  0.3176  0.1865 -1.7157
 5973TIP3    H239411   2.360   7.176  12.974  1.5408  0.5717  0.2034
 5974TIP3   OH239412   4.112   6.261  12.300 -0.2292 -0.2366 -0.2377
 5974TIP3    H139413   4.058   6.326  12.254  0.7762  2.4510  2.2489
 5974TIP3    H239414   4.050   6.212  12.354 -0.7391 -0.0492 -0.6486
 5975TIP3   OH239415   4.603   6.213  11.074 -0.9965  0.4881 -0.0978
 5975TIP3    H139416   4.589   6.233  11.166 -0.6319  0.1121  0.0344
 5975TIP3    H239417   4.537   6.266  11.028 -0.8841  1.0142  0.3454
 5976TIP3   OH239418   3.780   4.985  13.704  0.3247 -0.8925 -0.1305
 5976TIP3    H139419   3.726   4.973  13.782  0.8580  1.5994  0.6772
 5976TIP3    H239420   3.868   5.003  13.739  0.5484  0.3286 -1.2842
 5977TIP3   OH239421   3.910   6.616  11.854  0.0651 -0.0200  0.4952
 5977TIP3    H139422   3.866   6.567  11.923  0.5262 -1.2417 -0.0620
 5977TIP3    H239423   3.884   6.572  11.773  2.9360 -1.3072  0.2061
 5978TIP3   OH239424   3.847   5.473  10.806  0.0937 -0.0312  0.0617
 5978TIP3    H139425   3.793   5.397  10.782 -1.1809  0.8499  0.1366
 5978TIP3    H239426   3.785   5.538  10.837  1.3294  0.4857  1.5106
 5979TIP3   OH239427   3.057   6.446  10.721 -0.3880  0.1335  0.6082
 5979TIP3    H139428   2.983   6.386  10.732  1.2272 -1.8575  0.6914
 5979TIP3    H239429   3.086   6.434  10.631  0.3513  0.3135  0.8176
 5980TIP3   OH239430   5.194   6.954  11.349  0.5967 -0.1463 -0.0908
 5980TIP3    H139431   5.260   6.972  11.415  0.3797  0.0029  0.0834
 5980TIP3    H239432   5.240   6.900  11.284  1.2073  0.8935 -0.5465
 5981TIP3   OH239433   2.796   5.147  12.136 -0.2744 -0.0695  0.2459
 5981TIP3    H139434   2.801   5.232  12.093  0.6665 -0.3075 -0.1304
 5981TIP3    H239435   2.742   5.162  12.213 -0.3385  0.8103  0.0339
 5982TIP3   OH239436   5.292   6.256  11.434  0.4654 -0.3103 -0.6317
 5982TIP3    H139437   5.236   6.180  11.421 -0.3447  0.1290  0.2454
 5982TIP3    H239438   5.282   6.308  11.354 -4.0651  2.1072  1.3412
 5983TIP3   OH239439   3.769   6.591  11.616 -0.4656  0.0698 -0.1648
 5983TIP3    H139440   3.776   6.530  11.543 -1.5970  1.6360 -1.6362
 5983TIP3    H239441   3.817   6.669  11.586 -2.1940  1.2769  0.1269
 5984TIP3   OH239442   3.816   5.296  11.308  0.6870 -0.0577 -0.7943
 5984TIP3    H139443   3.897   5.301  11.259  1.0897  2.1633 -0.0121
 5984TIP3    H239444   3.842   5.267  11.395  0.4756 -0.5566 -0.8982
 5985TIP3   OH239445   1.934   5.776  12.143  0.2587  0.5551 -0.1169
 5985TIP3    H139446   1.844   5.808  12.149 -0.0177  0.1927 -2.0455
 5985TIP3    H239447   1.987   5.851  12.169 -0.5334  1.4282 -0.9576
 5986TIP3   OH239448   1.737   6.464  14.838  0.2964  0.6001 -0.1075
 5986TIP3    H139449   1.672   6.434  14.902  0.3331  0.5305 -0.1020
 5986TIP3    H239450   1.739   6.394  14.772  1.6375 -0.2454  0.7929
 5987TIP3   OH239451   3.605   0.817  11.202  0.0054  0.0785  1.1896
 5987TIP3    H139452   3.625   0.896  11.252  0.3236 -0.9330  2.6890
 5987TIP3    H239453   3.659   0.749  11.242  0.9539 -0.5744 -1.1135
 5988TIP3   OH239454   1.369   0.008  12.004  0.5130  0.5124  0.4217
 5988TIP3    H139455   1.347  -0.070  11.952 -0.0074 -0.1180  1.5610
 5988TIP3    H239456   1.453   0.037  11.970 -0.0506  0.3934 -1.0893
 5989TIP3   OH239457   2.336   5.761  13.101 -0.4971  0.2652 -0.3919
 5989TIP3    H139458   2.409   5.699  13.098 -0.9755 -0.3470  0.3923
 5989TIP3    H239459   2.287   5.736  13.179 -0.4674  1.8891  0.1769
 5990TIP3   OH239460   3.616   0.937  11.449  0.0253  0.0941 -0.2669
 5990TIP3    H139461   3.634   0.869  11.514  0.5163  0.7481  0.2770
 5990TIP3    H239462   3.526   0.920  11.421  0.1255 -0.7465 -0.0942
 5991TIP3   OH239463   2.452   5.621  13.761 -0.1189 -0.5722 -0.0765
 5991TIP3    H139464   2.546   5.629  13.778 -0.2037 -0.1972  0.2184
 5991TIP3    H239465   2.441   5.530  13.734  0.6954  0.0033 -2.4954
 5992TIP3   OH239466   1.807   2.448  10.377  0.8167 -0.3856 -0.0234
 5992TIP3    H139467   1.814   2.355  10.352  0.6460 -0.1484 -0.9814
 5992TIP3    H239468   1.764   2.489  10.302 -1.1470  0.0868  1.3423
 5993TIP3   OH239469   2.706   6.644  12.924 -0.1925 -0.5152  0.0737
 5993TIP3    H139470   2.793   6.685  12.924 -0.4336  0.0031  0.9410
 5993TIP3    H239471   2.662   6.683  12.848 -0.0487  0.0284  0.2676
 5994TIP3   OH239472   2.745   1.218  12.413  0.2645 -0.3179 -0.1177
 5994TIP3    H139473   2.702   1.134  12.426  0.0386 -0.0221  1.1656
 5994TIP3    H239474   2.675   1.277  12.385  0.6686 -0.8500 -2.3744
 5995TIP3   OH239475   2.104   7.123  11.387  1.2953 -0.4185 -0.2570
 5995TIP3    H139476   2.121   7.071  11.465  0.2616 -0.4579 -0.0505
 5995TIP3    H239477   2.142   7.072  11.315 -0.1559 -1.6998 -0.1170
 5996TIP3   OH239478   7.156   0.364  13.147  0.3291  0.0295  0.3790
 5996TIP3    H139479   7.125   0.313  13.072  0.8106  0.8423 -0.3720
 5996TIP3    H239480   7.184   0.298  13.210 -1.9768 -0.7114  0.6788
 5997TIP3   OH239481   2.803   1.893  14.139 -0.3132  0.0151  0.3199
 5997TIP3    H139482   2.754   1.840  14.201 -0.7828 -0.2660 -0.2806
 5997TIP3    H239483   2.852   1.955  14.193 -1.9719  0.8518  0.8911
 5998TIP3   OH239484   3.890   0.860   0.132  0.6345 -0.0669  0.4105
 5998TIP3    H139485   3.948   0.793   0.169  1.2074  0.3588  0.3017
 5998TIP3    H239486   3.935   0.889   0.053  0.1565  0.1114  0.2009
 5999TIP3   OH239487   1.525   1.486  14.428 -0.1260 -0.3244 -0.0170
 5999TIP3    H139488   1.603   1.446  14.465  1.9628  0.6306 -3.1333
 5999TIP3    H239489   1.535   1.580  14.446 -0.1694 -0.1115 -1.0435
 6000TIP3   OH239490   6.065   4.741  13.440  0.3026  0.2539  0.8008
 6000TIP3    H139491   6.040   4.739  13.533  0.1488  0.4288  0.7651
 6000TIP3    H239492   5.984   4.762  13.394  0.5287  0.9032  0.6872
 6001TIP3   OH239493   4.834   4.101  13.784 -0.8359  0.1054 -0.3954
 6001TIP3    H139494   4.826   4.065  13.696 -0.1090 -0.8521 -0.0867
 6001TIP3    H239495   4.863   4.191  13.771 -0.0825 -0.2367 -1.1265
 6002TIP3   OH239496   4.078   6.761  11.689  0.2024  0.4803 -0.0081
 6002TIP3    H139497   4.036   6.763  11.603  1.0924 -2.4451 -0.5769
 6002TIP3    H239498   4.007   6.741  11.750 -0.0407  0.1593 -0.3906
 6003TIP3   OH239499   1.649   1.257  13.166 -0.5395 -0.2792 -0.7270
 6003TIP3    H139500   1.726   1.220  13.122 -1.0296 -0.1177 -1.7501
 6003TIP3    H239501   1.593   1.287  13.094 -1.2706  0.1852  0.0258
 6004TIP3   OH239502   3.312   6.485  10.329  0.6037  0.0024  0.3329
 6004TIP3    H139503   3.408   6.491  10.329  0.4953  1.8854  0.0652
 6004TIP3    H239504   3.292   6.428  10.255  1.4155  1.2680 -0.8588
 6005TIP3   OH239505   1.383   1.619  11.017  0.0113 -0.4607 -0.3529
 6005TIP3    H139506   1.389   1.709  10.984 -0.6913  0.6997  2.5112
 6005TIP3    H239507   1.449   1.613  11.086 -0.1272 -2.0465 -0.3299
 6006TIP3   OH239508   2.141   0.933  13.351 -0.1068  0.0544  0.2206
 6006TIP3    H139509   2.098   0.910  13.434 -1.1304  0.8324 -0.0764
 6006TIP3    H239510   2.138   1.029  13.348  0.8775  0.0716 -0.2183
 6007TIP3   OH239511   2.230   7.279  13.671  0.1241 -0.3469  0.0256
 6007TIP3    H139512   2.228   7.242  13.582 -0.2841 -1.1530  0.3746
 6007TIP3    H239513   2.237   7.374  13.656 -0.2787 -0.4469 -0.8702
 6008TIP3   OH239514   1.623   0.038  11.917 -0.2877 -0.2394  0.0699
 6008TIP3    H139515   1.648  -0.013  11.839  0.3820 -0.1838  0.2414
 6008TIP3    H239516   1.614   0.127  11.884  0.0251 -0.2104  0.0580
 6009TIP3   OH239517   3.543   0.239  15.449 -0.2076  0.2100 -0.1752
 6009TIP3    H139518   3.507   0.266  15.365  0.5711 -0.1864 -0.6475
 6009TIP3    H239519   3.611   0.175  15.426  1.4061  1.5948  0.6239
 6010TIP3   OH239520   3.646   0.718  10.684 -0.1124  0.0052 -0.0768
 6010TIP3    H139521   3.705   0.783  10.723  0.5555 -1.3658  1.2535
 6010TIP3    H239522   3.559   0.743  10.715 -0.1697  1.5937 -1.4422
 6011TIP3   OH239523   2.703   0.238  12.937 -0.4432  0.2047 -0.7818
 6011TIP3    H139524   2.709   0.204  12.847 -0.0091 -1.2392 -0.2227
 6011TIP3    H239525   2.794   0.245  12.966 -0.5049  2.1708 -0.9807
 6012TIP3   OH239526   2.100   7.223  14.605  0.0415  0.0691  0.1673
 6012TIP3    H139527   2.160   7.162  14.562 -1.1337 -0.7978 -0.2622
 6012TIP3    H239528   2.132   7.228  14.696  0.4482 -0.7652  0.0702
 6013TIP3   OH239529   4.251   0.148  12.856  1.0359 -0.3172  0.0577
 6013TIP3    H139530   4.243   0.217  12.922  1.2265  1.2426 -1.5147
 6013TIP3    H239531   4.329   0.172  12.806  1.6966 -2.2415  0.1366
 6014TIP3   OH239532   1.777   7.267  13.005 -0.0855 -0.1010  0.2871
 6014TIP3    H139533   1.702   7.239  12.954  0.3953 -0.7833 -0.0610
 6014TIP3    H239534   1.809   7.346  12.960  0.6512 -0.9926 -0.7992
 6015TIP3   OH239535   3.822   6.168  14.376  0.0732  0.4411 -0.3294
 6015TIP3    H139536   3.807   6.101  14.443 -0.1484  0.9654  0.1446
 6015TIP3    H239537   3.746   6.163  14.318 -0.0904  0.4878 -0.1190
 6016TIP3   OH239538   7.214   7.000   9.644 -0.6765  0.0902  0.0341
 6016TIP3    H139539   7.177   7.059   9.710 -0.9220 -0.8569  0.7395
 6016TIP3    H239540   7.308   7.001   9.661 -0.5240  1.2493 -0.7547
 6017TIP3   OH239541   2.237   0.019  10.359 -0.3848  0.1956 -0.0821
 6017TIP3    H139542   2.213  -0.073  10.352 -1.4537  0.4313  0.3890
 6017TIP3    H239543   2.276   0.027  10.447  0.3527  0.0534 -0.3922
 6018TIP3   OH239544   3.006   1.254  13.174 -0.3277  0.3385  0.3253
 6018TIP3    H139545   3.066   1.277  13.103 -1.6790 -0.2400 -1.0076
 6018TIP3    H239546   2.956   1.180  13.141 -3.6510  2.4605  0.3858
 6019TIP3   OH239547   2.547   1.992  11.894 -0.4372  0.2460 -0.6225
 6019TIP3    H139548   2.476   1.958  11.839 -1.4737  0.3328  0.6393
 6019TIP3    H239549   2.540   1.941  11.975  1.2268 -0.0503 -0.6488
 6020TIP3   OH239550   4.151   7.210  12.189 -0.0380 -0.0268 -0.2424
 6020TIP3    H139551   4.130   7.124  12.226 -0.1592  0.0560 -0.1170
 6020TIP3    H239552   4.102   7.214  12.107 -0.7703  0.2942  0.2043
 6021TIP3   OH239553   4.246   6.957  11.786 -0.1706  0.5070 -0.2889
 6021TIP3    H139554   4.217   6.903  11.713  0.0604  2.5122 -1.9348
 6021TIP3    H239555   4.202   6.921  11.862 -1.4012 -0.8723 -1.6252
 6022TIP3   OH239556   3.689   7.172  13.032 -0.0429 -0.0472 -0.0113
 6022TIP3    H139557   3.701   7.101  12.969  0.4760 -1.0364  1.1730
 6022TIP3    H239558   3.751   7.240  13.004 -0.2703 -0.2110 -0.9245
 6023TIP3   OH239559   6.475   0.238  10.647  0.0473 -0.3962  0.0355
 6023TIP3    H139560   6.451   0.260  10.738  1.6082  3.9121 -0.4728
 6023TIP3    H239561   6.554   0.186  10.656 -0.0467 -0.3772  1.1590
 6024TIP3   OH239562   4.348   4.995  11.174  0.3056 -0.0608  0.1522
 6024TIP3    H139563   4.279   4.931  11.192 -1.9207  1.6746 -1.8588
 6024TIP3    H239564   4.396   4.959  11.100  0.2507 -0.2884  0.2279
 6025TIP3   OH239565   5.469   6.261  13.672  0.4740  0.0144  0.5545
 6025TIP3    H139566   5.379   6.291  13.684 -0.0954 -1.3921 -0.0604
 6025TIP3    H239567   5.488   6.279  13.580  0.5480 -0.3913  0.4879
 6026TIP3   OH239568   3.542   6.172  12.073  0.2393  0.0377  0.4583
 6026TIP3    H139569   3.463   6.139  12.029  0.6308 -0.1954 -0.0654
 6026TIP3    H239570   3.614   6.125  12.031  0.6924  0.5577  0.6604
 6027TIP3   OH239571   2.260   6.069  11.770 -0.3725  0.4115 -0.0033
 6027TIP3    H139572   2.260   6.051  11.864 -1.0618  2.4128  0.4004
 6027TIP3    H239573   2.326   6.009  11.734 -0.0781 -0.3480  1.7493
 6028TIP3   OH239574   1.463   7.217  10.211 -0.1468  0.3914  0.0619
 6028TIP3    H139575   1.414   7.293  10.242 -0.8447  0.5712 -1.4196
 6028TIP3    H239576   1.423   7.197  10.126  1.8755  0.0974 -0.8325
 6029TIP3   OH239577   2.595   5.701  11.017  0.6785 -0.3321  0.8062
 6029TIP3    H139578   2.664   5.718  11.081  0.3983  0.0952  0.9941
 6029TIP3    H239579   2.517   5.681  11.069  0.4647 -0.0450  0.6023
 6030TIP3   OH239580   4.242   6.749  12.983  0.6181  0.2423 -0.1140
 6030TIP3    H139581   4.309   6.774  12.920 -0.6719  1.9625 -0.8416
 6030TIP3    H239582   4.167   6.804  12.962 -0.6169 -0.7675  1.4778
 6031TIP3   OH239583   0.590   5.960  15.525 -0.2222 -0.5628  0.0239
 6031TIP3    H139584   0.527   5.909  15.577 -0.8559 -0.9037 -1.0494
 6031TIP3    H239585   0.644   6.006  15.589 -0.4087 -1.6835  0.9887
 6032TIP3   OH239586   4.230   7.189  15.896 -0.2440  0.3080 -0.3944
 6032TIP3    H139587   4.143   7.188  15.935  0.2335 -1.7448  0.7122
 6032TIP3    H239588   4.228   7.121  15.830  0.3076  0.7569 -0.8803
 6033TIP3   OH239589   3.894   0.717  10.996 -0.1115 -0.4370  0.1438
 6033TIP3    H139590   3.926   0.646  11.052 -2.2184 -0.4165  1.4669
 6033TIP3    H239591   3.907   0.796  11.049  1.1190  0.0291 -0.8392
 6034TIP3   OH239592   4.060   1.351  14.727  0.2334  0.1863  0.5551
 6034TIP3    H139593   4.068   1.408  14.651  1.0017 -1.0166 -0.2834
 6034TIP3    H239594   4.001   1.282  14.699  0.3456 -0.1414  1.1206
 6035TIP3   OH239595   3.654   1.047  11.766  0.0620  0.7363  0.3717
 6035TIP3    H139596   3.646   1.136  11.800 -0.9400  0.2198  1.5419
 6035TIP3    H239597   3.616   1.051  11.679 -2.1982  0.9608  1.3273
 6036TIP3   OH239598   4.046   0.459  12.208  0.3874  0.5069  0.1294
 6036TIP3    H139599   4.100   0.397  12.160  0.1878  0.6208 -0.2416
 6036TIP3    H239600   4.085   0.545  12.190 -0.1555  0.6304 -0.4579
 6037TIP3   OH239601   1.474   2.449  13.551 -0.0972  0.2662 -0.4260
 6037TIP3    H139602   1.523   2.523  13.515  0.1791  0.2448 -0.0983
 6037TIP3    H239603   1.433   2.408  13.475  1.2605 -0.3600 -0.8394
 6038TIP3   OH239604   1.380   6.658  13.173  0.4106  0.2349  0.1690
 6038TIP3    H139605   1.389   6.618  13.259 -0.6368 -0.8127 -0.2035
 6038TIP3    H239606   1.352   6.748  13.192 -0.3474 -0.1480  0.9127
 6039TIP3   OH239607   2.189   7.038  12.671 -0.2381  0.5312 -0.1450
 6039TIP3    H139608   2.212   6.983  12.596 -0.5835  1.9008 -1.2528
 6039TIP3    H239609   2.241   7.117  12.660  1.3337 -0.1059  2.2083
 6040TIP3   OH239610   5.982   6.373  14.079  0.5493  0.1927  0.8194
 6040TIP3    H139611   5.970   6.307  14.011 -0.5690  0.4326  0.7730
 6040TIP3    H239612   5.906   6.363  14.137 -0.2947  2.2052  0.1373
 6041TIP3   OH239613   3.240   6.459  13.727 -0.2034 -0.6709  0.7501
 6041TIP3    H139614   3.215   6.530  13.668 -0.7912 -1.3132  0.2286
 6041TIP3    H239615   3.335   6.452  13.716 -0.2024 -0.2708  0.4689
 6042TIP3   OH239616   2.091   0.535  12.834  0.3483 -0.5119  0.3814
 6042TIP3    H139617   2.015   0.495  12.791  0.9460  0.2298 -1.3752
 6042TIP3    H239618   2.164   0.479  12.809  0.7488  0.1112  0.1508
 6043TIP3   OH239619   3.906   0.291  12.394  0.1958 -0.2296 -0.1619
 6043TIP3    H139620   3.941   0.349  12.326 -2.1886  0.5157 -0.8310
 6043TIP3    H239621   3.845   0.234  12.348 -1.4109  0.2362  1.3029
 6044TIP3   OH239622   0.790   0.295  11.815 -0.1731  0.0059 -0.5287
 6044TIP3    H139623   0.770   0.219  11.871  1.2179  0.9329  1.2909
 6044TIP3    H239624   0.855   0.262  11.753  0.7310 -0.2189  0.5103
 6045TIP3   OH239625   6.526   6.569  14.092 -0.2118  0.2356 -0.6748
 6045TIP3    H139626   6.479   6.646  14.126 -0.4438 -0.1329 -0.1516
 6045TIP3    H239627   6.457   6.515  14.054 -0.3234 -0.6588  0.7591
 6046TIP3   OH239628   5.554   5.706  12.355 -0.2020  0.6007  0.6231
 6046TIP3    H139629   5.562   5.677  12.446  0.0670 -0.7271  0.1886
 6046TIP3    H239630   5.460   5.704  12.337 -0.1335 -0.7378  0.3740
 6047TIP3   OH239631   2.261   4.569  12.362  0.4128 -0.2001  0.6940
 6047TIP3    H139632   2.251   4.606  12.274 -1.8080  1.5491  1.6280
 6047TIP3    H239633   2.324   4.498  12.351 -0.2098 -0.3553 -2.4217
 6048TIP3   OH239634   3.327   5.360  12.439 -0.3282  0.5267  0.0317
 6048TIP3    H139635   3.406   5.378  12.388 -0.5137 -0.8842 -0.7828
 6048TIP3    H239636   3.354   5.371  12.530  1.2222 -1.3899 -0.1681
 6049TIP3   OH239637   5.581   5.852  14.002  0.4722  0.5659 -0.2374
 6049TIP3    H139638   5.492   5.886  14.012  0.1627  0.1278 -1.4098
 6049TIP3    H239639   5.575   5.761  14.031  0.9900  1.1076  1.5825
 6050TIP3   OH239640   4.493   6.414  13.722  0.0430  0.3458  0.8414
 6050TIP3    H139641   4.586   6.392  13.729  0.3579  1.6258  0.7704
 6050TIP3    H239642   4.469   6.442  13.811 -0.4146 -0.4882  0.9871
 6051TIP3   OH239643   0.135   4.640  13.240  0.2572  0.1784 -0.6162
 6051TIP3    H139644   0.185   4.559  13.227 -0.9456 -0.8191  0.7799
 6051TIP3    H239645   0.079   4.647  13.163  0.6386 -0.1138 -0.9222
 6052TIP3   OH239646   2.473   6.757  11.283  0.2146 -0.4036 -0.5415
 6052TIP3    H139647   2.561   6.791  11.298  0.0645  0.0173 -0.6214
 6052TIP3    H239648   2.418   6.834  11.274 -0.3926 -0.6578  0.8458
 6053TIP3   OH239649   3.752   0.114  13.915 -0.3469  0.2444  0.2105
 6053TIP3    H139650   3.724   0.204  13.930 -1.8159  0.0397 -1.1295
 6053TIP3    H239651   3.704   0.063  13.981  1.0737  0.5058  1.4778
 6054TIP3   OH239652   2.082   5.350  14.082  0.4152 -0.4039 -0.4384
 6054TIP3    H139653   2.081   5.317  14.171  0.1903  0.1655 -0.2262
 6054TIP3    H239654   2.100   5.273  14.028 -1.4234 -1.1234 -0.0737
 6055TIP3   OH239655   3.182   1.198  15.050 -0.2723  0.5361 -0.1440
 6055TIP3    H139656   3.213   1.122  15.000  1.3974  1.5294 -0.6508
 6055TIP3    H239657   3.157   1.162  15.135  2.9239 -0.2412  0.5256
 6056TIP3   OH239658   3.473   5.641  13.820  0.0926  0.6008  0.0061
 6056TIP3    H139659   3.439   5.561  13.860 -1.4701  1.2919  0.1091
 6056TIP3    H239660   3.566   5.640  13.840 -0.0571 -0.7845  0.7162
 6057TIP3   OH239661   0.897   5.187  12.981 -0.5747 -0.2876  0.6158
 6057TIP3    H139662   0.895   5.125  12.908  0.1506 -0.0463  0.3868
 6057TIP3    H239663   0.986   5.222  12.981 -0.1430 -1.3078  2.4841
 6058TIP3   OH239664   1.678   6.058  14.552 -0.0841 -0.7323 -0.4708
 6058TIP3    H139665   1.748   6.000  14.584 -0.4135 -1.1253 -0.4682
 6058TIP3    H239666   1.610   6.053  14.619  1.6924  3.0710  1.7883
 6059TIP3   OH239667   3.002   6.705  13.625  0.7144 -0.3233 -0.5426
 6059TIP3    H139668   3.068   6.721  13.693 -0.7012 -0.8465  1.0111
 6059TIP3    H239669   2.945   6.781  13.628 -1.0785 -1.6758  0.9565
 6060TIP3   OH239670   2.695   6.770  12.012  0.1689  0.2075 -0.7627
 6060TIP3    H139671   2.765   6.704  12.020 -0.0449 -0.2344 -2.3516
 6060TIP3    H239672   2.706   6.806  11.924 -0.2507  1.7153 -0.2143
 6061TIP3   OH239673   3.552   0.643  11.886 -0.0021  0.1283 -0.2622
 6061TIP3    H139674   3.565   0.736  11.905 -2.2348  0.2377  0.8440
 6061TIP3    H239675   3.503   0.610  11.961 -0.2506 -1.6990 -1.2039
 6062TIP3   OH239676   4.573   5.870  14.453 -0.1020  0.1001 -0.2673
 6062TIP3    H139677   4.631   5.810  14.498 -0.3781  0.6995  0.9020
 6062TIP3    H239678   4.556   5.940  14.516 -1.1868  0.5089 -0.9864
 6063TIP3   OH239679   1.568   2.026  14.361 -0.1943 -0.4823 -0.4860
 6063TIP3    H139680   1.490   2.071  14.328 -0.8860 -1.0762  0.3169
 6063TIP3    H239681   1.560   2.032  14.457  0.6534 -0.6956 -0.4024
 6064TIP3   OH239682   1.670   7.181  12.447  0.1546  0.4829  0.2821
 6064TIP3    H139683   1.762   7.173  12.473  0.1711  0.5628  0.2485
 6064TIP3    H239684   1.673   7.230  12.365  0.1112  0.1278  0.0706
 6065TIP3   OH239685   3.891   0.007  13.051  0.1172  0.1589 -0.3745
 6065TIP3    H139686   3.968  -0.039  13.019  1.2819  1.5945  0.2926
 6065TIP3    H239687   3.924   0.060  13.125 -1.7190 -0.1006  0.6610
 6066TIP3   OH239688   4.462   0.142  12.439 -0.1038 -0.0126 -0.4115
 6066TIP3    H139689   4.378   0.104  12.415 -0.0021  0.0941 -0.9502
 6066TIP3    H239690   4.441   0.206  12.507 -0.0617 -2.2418  1.7769
 6067TIP3   OH239691   4.219   4.352  13.584 -0.6930 -0.5554  0.3531
 6067TIP3    H139692   4.279   4.404  13.637  0.6262 -0.3221 -1.3243
 6067TIP3    H239693   4.190   4.282  13.642  1.3838 -0.7964  1.1460
 6068TIP3   OH239694   4.436   6.478  11.767  0.0051  0.4912 -0.1286
 6068TIP3    H139695   4.440   6.423  11.689 -0.0666 -1.4533  1.2072
 6068TIP3    H239696   4.345   6.508  11.770 -0.2457 -0.2381 -0.2618
 6069TIP3   OH239697   3.434   7.240  12.924  0.4628 -0.0861 -0.2508
 6069TIP3    H139698   3.461   7.174  12.860 -0.0397  0.0807 -0.6377
 6069TIP3    H239699   3.493   7.227  12.998  0.8211 -0.5093 -0.6095
 6070TIP3   OH239700   3.334   0.670  11.504 -0.6071  0.3536 -0.5369
 6070TIP3    H139701   3.427   0.686  11.520 -0.5944  0.2215 -0.4653
 6070TIP3    H239702   3.301   0.640  11.589 -0.7528  0.5714 -0.5174
 6071TIP3   OH239703   3.165   0.586  13.066  0.0964  0.1783  0.2363
 6071TIP3    H139704   3.124   0.507  13.100 -0.0505  0.8450  1.6561
 6071TIP3    H239705   3.259   0.571  13.078  0.0320  0.5196  1.1985
 6072TIP3   OH239706   5.335   6.547  15.325  0.4303  0.3925 -0.0707
 6072TIP3    H139707   5.420   6.535  15.284  1.5255  0.8079  2.0462
 6072TIP3    H239708   5.274   6.500  15.268  2.0695  0.0213 -1.5452
 6073TIP3   OH239709   5.660   5.570  11.729  0.1522  0.3689 -0.1147
 6073TIP3    H139710   5.636   5.512  11.801  1.0002 -0.0689 -0.1880
 6073TIP3    H239711   5.624   5.527  11.651 -3.2028  2.2183  0.3282
 6074TIP3   OH239712   7.287   4.254  13.974  0.1017  0.0188 -0.2390
 6074TIP3    H139713   7.260   4.327  14.029  2.3340  0.7883 -0.1323
 6074TIP3    H239714   7.263   4.280  13.885 -1.4428 -0.2442  0.0930
 6075TIP3   OH239715   3.242   0.001  14.017 -0.4950  0.2125  0.3010
 6075TIP3    H139716   3.214  -0.038  13.934  0.9386  0.8679 -0.5157
 6075TIP3    H239717   3.165  -0.004  14.073 -1.2172 -1.0477 -0.7795
 6076TIP3   OH239718   2.451   6.535  13.248 -0.0978  0.4779 -0.4133
 6076TIP3    H139719   2.445   6.458  13.191 -1.2365 -1.0876  1.7392
 6076TIP3    H239720   2.530   6.520  13.301  0.0517  1.1279 -0.4447
 6077TIP3   OH239721   1.839   5.726  11.819  0.0405  0.4090 -0.2725
 6077TIP3    H139722   1.846   5.633  11.836  0.1854  0.6246  0.8418
 6077TIP3    H239723   1.889   5.768  11.888 -0.6812  1.3490 -0.3056
 6078TIP3   OH239724   3.515   0.453  13.927 -0.1576  0.5820  0.2588
 6078TIP3    H139725   3.565   0.492  13.855  0.5033 -0.9914 -0.1642
 6078TIP3    H239726   3.430   0.434  13.888  0.2343 -0.3687 -0.1621
 6079TIP3   OH239727   3.701   6.882  11.883  0.4053 -0.0308  0.1453
 6079TIP3    H139728   3.759   6.885  11.808 -1.2569 -1.8033 -1.2616
 6079TIP3    H239729   3.615   6.904  11.848 -0.1756  0.3979  1.7700
 6080TIP3   OH239730   1.692   5.897  10.734 -1.0321 -0.0923 -0.0149
 6080TIP3    H139731   1.767   5.860  10.687  0.1130  0.9572  0.9528
 6080TIP3    H239732   1.655   5.962  10.674 -1.6685 -1.1824 -0.8115
 6081TIP3   OH239733   4.153   6.901  11.227  0.1978  0.1191 -0.2957
 6081TIP3    H139734   4.247   6.899  11.246  0.1754 -0.2359 -0.2324
 6081TIP3    H239735   4.126   6.809  11.227 -0.2762  0.2538  0.3401
 6082TIP3   OH239736   4.330   6.082  13.608 -0.1613 -0.1117 -0.3252
 6082TIP3    H139737   4.252   6.088  13.663 -0.1900 -1.6031 -0.1961
 6082TIP3    H239738   4.403   6.076  13.671 -0.1898 -1.7476 -0.4250
 6083TIP3   OH239739   4.474   7.193  11.919  0.0054  0.2511  0.3222
 6083TIP3    H139740   4.459   7.107  11.882 -1.2763  0.6994 -0.2380
 6083TIP3    H239741   4.569   7.202  11.924  0.1745 -0.1989 -1.9251
 6084TIP3   OH239742   1.626   6.786  10.158 -0.3219 -0.2718 -0.8036
 6084TIP3    H139743   1.605   6.755  10.246  1.3831  0.6450 -0.0506
 6084TIP3    H239744   1.596   6.716  10.100  0.4442 -1.8282  0.6421
 6085TIP3   OH239745   2.954   5.384  11.281 -0.2715 -0.4156 -0.3857
 6085TIP3    H139746   2.951   5.479  11.285 -0.0857 -0.4035 -0.5093
 6085TIP3    H239747   2.885   5.355  11.340  0.6033 -0.2138  0.7429
 6086TIP3   OH239748   3.710   6.307  13.217  0.3382 -0.1331 -0.0292
 6086TIP3    H139749   3.657   6.372  13.262  0.3381 -1.2062  1.5729
 6086TIP3    H239750   3.788   6.354  13.188  0.0158  0.7231  0.4901
 6087TIP3   OH239751   4.766   0.082  14.044  0.3061  0.1808 -0.0700
 6087TIP3    H139752   4.834   0.149  14.052 -0.9906  1.8606 -2.5182
 6087TIP3    H239753   4.727   0.077  14.132  0.7314  2.2968  0.2689
 6088TIP3   OH239754   1.917   1.860  13.137  0.2621  0.3856 -0.0124
 6088TIP3    H139755   1.973   1.790  13.104  0.1502  0.6764 -0.8132
 6088TIP3    H239756   1.836   1.854  13.085  0.4818  1.4848 -0.4999
 6089TIP3   OH239757   4.113   0.444  12.755 -0.0645  0.2095 -0.4776
 6089TIP3    H139758   4.071   0.361  12.733  2.1777 -0.9518 -0.4942
 6089TIP3    H239759   4.158   0.427  12.838 -1.8199  2.2090  0.9366
 6090TIP3   OH239760   2.357   0.797  13.264  0.5622  0.2973  0.4808
 6090TIP3    H139761   2.286   0.861  13.271 -1.2916 -1.6410 -0.0840
 6090TIP3    H239762   2.334   0.730  13.329  2.2810  0.0110  0.8094
 6091TIP3   OH239763   1.996   5.890  10.411 -0.8236 -0.3045  1.0076
 6091TIP3    H139764   2.005   5.929  10.324 -0.3318 -0.5694  0.9388
 6091TIP3    H239765   1.906   5.856  10.412 -0.5721 -1.0009  0.3128
 6092TIP3   OH239766   5.665   6.994  11.611  0.4061  0.3463  0.3280
 6092TIP3    H139767   5.679   7.089  11.608 -1.4994  0.7267  2.0536
 6092TIP3    H239768   5.729   6.962  11.675 -1.3360  1.0098  2.4706
 6093TIP3   OH239769   3.620   6.632  12.002  0.1979 -0.0695  0.7801
 6093TIP3    H139770   3.598   6.594  11.917 -0.7926  0.3569  0.8400
 6093TIP3    H239771   3.637   6.724  11.984  0.9980 -0.1879  0.8903
 6094TIP3   OH239772   3.232   0.807  14.201 -0.5035 -0.2895  0.5139
 6094TIP3    H139773   3.304   0.807  14.264 -0.3310 -1.4476  0.3376
 6094TIP3    H239774   3.165   0.753  14.242  0.3143 -2.5793 -1.0477
 6095TIP3   OH239775   4.609   5.729  10.484 -0.3202 -0.3108  0.1001
 6095TIP3    H139776   4.701   5.720  10.510 -0.3809 -2.5299 -0.3877
 6095TIP3    H239777   4.583   5.814  10.519  1.9640  0.4178  0.1056
 6096TIP3   OH239778   1.785   4.398  10.948 -0.4697  0.1844 -0.7832
 6096TIP3    H139779   1.808   4.473  10.893  2.4037 -0.4007 -0.4513
 6096TIP3    H239780   1.828   4.324  10.905 -0.8929 -0.8002  0.4734
 6097TIP3   OH239781   1.903   5.971  13.974 -0.7679 -0.1158 -0.5802
 6097TIP3    H139782   1.914   5.982  14.069 -0.2169 -0.8262 -0.5589
 6097TIP3    H239783   1.810   5.986  13.959 -0.8629 -0.0221  0.0800
 6098TIP3   OH239784   3.514   5.836  11.424  0.3833  0.4232  0.0381
 6098TIP3    H139785   3.429   5.794  11.412  0.7701  0.2220 -2.2097
 6098TIP3    H239786   3.567   5.770  11.467 -0.8941  0.9342  2.4575
 6099TIP3   OH239787   2.660   0.719  12.212 -0.1994 -0.3292  0.2583
 6099TIP3    H139788   2.576   0.752  12.244 -0.6752 -1.6316  0.4081
 6099TIP3    H239789   2.720   0.793  12.219 -1.3101  0.5870  0.2479
 6100TIP3   OH239790   3.782   6.706  12.242 -0.0066  0.4488 -0.7746
 6100TIP3    H139791   3.726   6.696  12.165 -1.0508 -1.1442  0.1670
 6100TIP3    H239792   3.727   6.754  12.304  0.3918  0.6549 -0.5865
 6101TIP3   OH239793   2.739   6.601  10.937  0.5085  0.3927 -0.2220
 6101TIP3    H139794   2.667   6.602  10.874 -0.7143  1.3613  1.1545
 6101TIP3    H239795   2.715   6.532  10.999  0.3778  1.2185  0.6609
 6102TIP3   OH239796   3.124   6.627  12.095 -0.1192 -0.1208 -0.6692
 6102TIP3    H139797   3.110   6.661  12.007  1.6441  1.0137 -0.5232
 6102TIP3    H239798   3.212   6.588  12.093 -0.0243 -0.0056  0.6103
 6103TIP3   OH239799   0.276   0.054   0.245 -0.8150  0.2284  0.0479
 6103TIP3    H139800   0.338   0.069   0.175  1.2796 -0.0623  1.7942
 6103TIP3    H239801   0.226   0.135   0.251  0.6341  1.1526 -0.1679
 6104TIP3   OH239802   3.243   7.306  12.324 -0.8080  0.1867 -0.5426
 6104TIP3    H139803   3.322   7.357  12.340 -0.8501 -0.2623  1.1946
 6104TIP3    H239804   3.274   7.226  12.282 -0.5761  0.9573 -1.8456
 6105TIP3   OH239805   2.020   0.840  13.632  0.0269  0.4642  0.3492
 6105TIP3    H139806   2.034   0.750  13.601  0.1172  0.1181  1.3973
 6105TIP3    H239807   1.946   0.872  13.580  2.7789  1.3347 -3.2641
 6106TIP3   OH239808   6.636   4.149  12.556 -0.2722 -0.2651  0.1067
 6106TIP3    H139809   6.625   4.103  12.639  0.7614  0.3008  0.5707
 6106TIP3    H239810   6.720   4.193  12.564 -0.3283  0.0856 -1.1091
 6107TIP3   OH239811   5.512   6.294  14.344 -0.2954  0.5469  0.2134
 6107TIP3    H139812   5.519   6.223  14.407 -3.4554  0.1488  0.2336
 6107TIP3    H239813   5.488   6.250  14.262  3.3282  1.0957 -1.2105
 6108TIP3   OH239814   5.836   5.770  12.388  0.3463 -0.1224  0.1784
 6108TIP3    H139815   5.891   5.733  12.318  0.0198 -0.9737  0.3688
 6108TIP3    H239816   5.748   5.738  12.369  0.1051  0.3543  0.4921
 6109TIP3   OH239817   5.452   6.259  14.078 -0.3062 -0.0386  0.0098
 6109TIP3    H139818   5.490   6.340  14.044 -0.4172  0.3648  0.8291
 6109TIP3    H239819   5.358   6.274  14.078 -0.3519 -0.3245 -0.2320
 6110TIP3   OH239820   3.824   2.368  12.273 -0.0470  0.3933 -0.1299
 6110TIP3    H139821   3.841   2.299  12.209 -0.4998  0.3144 -0.1663
 6110TIP3    H239822   3.898   2.427  12.264 -1.5505  1.9846 -2.8429
 6111TIP3   OH239823   5.239   6.068  10.464 -0.4648 -0.0146 -0.2657
 6111TIP3    H139824   5.316   6.097  10.416 -0.3796  0.3743  0.1099
 6111TIP3    H239825   5.197   6.005  10.406 -0.9249  1.2224 -1.2926
 6112TIP3   OH239826   4.460   6.128  12.420 -0.3365  0.0076  0.2736
 6112TIP3    H139827   4.534   6.180  12.449 -0.3409 -0.1493  0.5649
 6112TIP3    H239828   4.492   6.038  12.419 -0.1688  0.0669 -0.7304
 6113TIP3   OH239829   5.878   7.147  12.262 -0.2800 -0.5354  0.7037
 6113TIP3    H139830   5.946   7.134  12.195  1.3139 -3.7102  2.7792
 6113TIP3    H239831   5.803   7.181  12.215  2.3503  1.9624 -1.8895
 6114TIP3   OH239832   6.528   0.230  10.915  0.0342  0.3543 -0.3011
 6114TIP3    H139833   6.500   0.312  10.956 -0.3419 -0.9125  2.0620
 6114TIP3    H239834   6.623   0.235  10.913 -0.0309  1.3831 -1.3509
 6115TIP3   OH239835   5.304   6.988  13.443  0.2028 -0.1777 -0.0610
 6115TIP3    H139836   5.228   7.034  13.476 -0.2301 -1.2352  0.4522
 6115TIP3    H239837   5.377   7.023  13.495 -0.1451 -0.2024  0.4508
 6116TIP3   OH239838   5.583   5.585  12.622 -0.2747 -0.2519 -0.3971
 6116TIP3    H139839   5.647   5.547  12.683 -0.5514  0.3279  0.2634
 6116TIP3    H239840   5.499   5.579  12.669 -0.5946 -0.3869 -0.9833
 6117TIP3   OH239841   4.741   0.148  11.776  0.1699  0.3305 -0.1632
 6117TIP3    H139842   4.825   0.103  11.781 -0.0592 -0.2605 -1.4104
 6117TIP3    H239843   4.744   0.197  11.694 -0.5803  0.5521 -0.0644
 6118TIP3   OH239844   4.383   4.873  10.920 -0.3504  0.0368 -0.6285
 6118TIP3    H139845   4.430   4.795  10.890  0.3306 -0.0386  0.6163
 6118TIP3    H239846   4.291   4.854  10.900 -0.1819 -1.0239 -0.4608
 6119TIP3   OH239847   5.174   6.205  11.935 -1.0282 -0.4057 -0.5891
 6119TIP3    H139848   5.205   6.141  11.998 -0.6490 -0.6628 -1.0275
 6119TIP3    H239849   5.162   6.154  11.854 -0.8145  0.0543 -0.9110
 6120TIP3   OH239850   6.254   6.833   0.784  0.0824  0.2074  1.0764
 6120TIP3    H139851   6.284   6.900   0.846  1.0325  3.0111 -2.2193
 6120TIP3    H239852   6.334   6.804   0.740 -0.9696  1.5077 -1.8364
 6121TIP3   OH239853   0.703   0.373  13.531  0.2120  0.2707  0.0572
 6121TIP3    H139854   0.646   0.329  13.467  0.4395  0.0602 -0.0004
 6121TIP3    H239855   0.787   0.328  13.523  0.4201  0.6613  0.0600
 6122TIP3   OH239856   6.147   6.764  11.751 -0.0533 -0.1552 -0.0794
 6122TIP3    H139857   6.211   6.693  11.758  0.2091  0.0149 -0.6541
 6122TIP3    H239858   6.152   6.810  11.835 -1.6420 -1.9823  1.0417
 6123TIP3   OH239859   7.109   6.266  12.663  0.4583 -0.5203 -0.3152
 6123TIP3    H139860   7.184   6.324  12.656  0.0371  0.0511 -0.1179
 6123TIP3    H239861   7.136   6.186  12.618  0.8178  0.0549 -1.1363
 6124TIP3   OH239862   3.476   7.026  13.733  0.1102  0.4368  0.2205
 6124TIP3    H139863   3.387   7.002  13.707  0.2273  1.0142 -0.7690
 6124TIP3    H239864   3.483   6.998  13.824 -0.4212 -1.4388 -0.2801
 6125TIP3   OH239865   3.648   5.491  12.024  0.1592  0.2091 -0.4315
 6125TIP3    H139866   3.593   5.568  12.011  0.2235  0.4673  0.7628
 6125TIP3    H239867   3.653   5.480  12.119  3.4302  1.1078 -0.4331
 6126TIP3   OH239868   5.517   7.024  11.879  0.3786  0.4565 -0.3537
 6126TIP3    H139869   5.545   7.021  11.970 -0.0258  2.2510 -0.1481
 6126TIP3    H239870   5.594   7.052  11.830  0.0308  1.5682 -0.2822
 6127TIP3   OH239871   6.803   6.085  11.335 -0.0636  0.4033  0.1636
 6127TIP3    H139872   6.814   5.998  11.294 -2.4863  0.3787 -0.5273
 6127TIP3    H239873   6.742   6.130  11.277 -1.3674  1.4003  2.2832
 6128TIP3   OH239874   6.019   5.913  14.255  0.4526  0.2953 -0.3246
 6128TIP3    H139875   6.067   5.933  14.335 -0.4961  1.6138 -0.0665
 6128TIP3    H239876   5.931   5.947  14.271  0.4927  1.3714 -2.2692
 6129TIP3   OH239877   6.911   2.983  12.908  0.2406  0.4797 -0.5702
 6129TIP3    H139878   6.933   3.019  12.821  1.6478  0.1752 -0.3556
 6129TIP3    H239879   6.959   2.900  12.912  0.3990  0.6269  0.6055
 6130TIP3   OH239880   4.647   6.561  14.352 -0.1248  0.1439 -0.0080
 6130TIP3    H139881   4.720   6.500  14.347  0.8380  1.2761  0.0546
 6130TIP3    H239882   4.678   6.632  14.407 -1.7812 -0.0390  1.2180
 6131TIP3   OH239883   6.740   6.339  10.914 -0.2022  0.2911 -0.1029
 6131TIP3    H139884   6.804   6.313  10.847 -1.2545 -0.3354 -0.8888
 6131TIP3    H239885   6.712   6.427  10.887  0.4274  0.6205  0.3176
 6132TIP3   OH239886   0.209   6.843  11.610 -0.0301  0.8420 -0.3110
 6132TIP3    H139887   0.118   6.872  11.612 -0.6247 -0.9045 -1.6173
 6132TIP3    H239888   0.210   6.769  11.550  1.9204 -0.3164  1.0902
 6133TIP3   OH239889   0.645   5.778  13.333 -0.2799 -0.4387 -0.3502
 6133TIP3    H139890   0.578   5.753  13.268 -1.4522  1.7673 -0.0474
 6133TIP3    H239891   0.654   5.701  13.389 -2.3054 -0.9200 -0.6421
 6134TIP3   OH239892   6.155   7.061  11.482  0.1515 -0.0679  0.0658
 6134TIP3    H139893   6.236   7.013  11.464  0.1282 -0.6388  1.3963
 6134TIP3    H239894   6.172   7.106  11.565 -0.1962  1.4110 -0.6535
 6135TIP3   OH239895   6.419   4.649  12.810 -0.0354  0.2536  0.0571
 6135TIP3    H139896   6.365   4.686  12.740 -1.3940 -0.8739  0.4793
 6135TIP3    H239897   6.461   4.573  12.770 -2.7092 -1.8480  1.0689
 6136TIP3   OH239898   5.910   6.943  14.591 -0.2353 -0.7507  0.6013
 6136TIP3    H139899   5.878   6.875  14.532  0.0809 -0.8485  0.5416
 6136TIP3    H239900   5.851   6.938  14.666 -0.1727 -1.1409  0.6287
 6137TIP3   OH239901   4.178   0.083  12.368  0.1916 -0.1638  0.1524
 6137TIP3    H139902   4.170   0.006  12.312 -1.9270 -0.7202  1.1412
 6137TIP3    H239903   4.157   0.157  12.310  0.7693 -0.4696 -0.4510
 6138TIP3   OH239904   4.655   1.259  13.573 -0.0648  0.1230  1.1772
 6138TIP3    H139905   4.667   1.301  13.488  1.7643  1.1055  1.8880
 6138TIP3    H239906   4.669   1.166  13.555 -2.0757  0.0196 -0.0182
 6139TIP3   OH239907   5.320   4.365  12.207 -0.1597  0.1793  0.1707
 6139TIP3    H139908   5.398   4.406  12.171 -0.7487 -0.5868 -2.0492
 6139TIP3    H239909   5.247   4.419  12.176 -0.5562  0.8593  2.1791
 6140TIP3   OH239910   4.632   0.557  13.160 -0.0324 -0.3857  0.2637
 6140TIP3    H139911   4.706   0.551  13.100  1.6489 -1.2792  2.3789
 6140TIP3    H239912   4.589   0.640  13.136  0.2740 -0.9722 -2.4783
 6141TIP3   OH239913   5.550   5.220  14.479 -0.3297  0.2050  0.4078
 6141TIP3    H139914   5.634   5.188  14.514 -1.3344 -1.1209  1.6925
 6141TIP3    H239915   5.545   5.183  14.391 -1.5271 -3.4572  1.9118
 6142TIP3   OH239916   4.602   6.987  15.235  0.1297 -0.3577  0.6168
 6142TIP3    H139917   4.641   6.994  15.148  0.6507  0.7097  0.9201
 6142TIP3    H239918   4.522   7.039  15.230  1.2703  1.5332  1.3702
 6143TIP3   OH239919   4.469   1.179  12.712  0.0008 -0.3918 -0.0879
 6143TIP3    H139920   4.436   1.236  12.781 -0.4014 -0.6854 -0.0365
 6143TIP3    H239921   4.391   1.134  12.678  0.4350 -1.6058  0.5018
 6144TIP3   OH239922   5.106   4.982  11.743 -0.3098 -0.4964  0.1789
 6144TIP3    H139923   5.107   4.996  11.649 -2.9096  3.2180  0.5485
 6144TIP3    H239924   5.162   5.052  11.778 -0.5049 -0.9552  1.4418
 6145TIP3   OH239925   6.429   5.340  14.548 -0.4003  0.0423  0.0283
 6145TIP3    H139926   6.392   5.367  14.464 -1.2206  1.3511  0.7992
 6145TIP3    H239927   6.505   5.397  14.561  0.5367 -1.0766 -0.4541
 6146TIP3   OH239928   5.762   6.122  13.267  0.2509  0.3074  0.0405
 6146TIP3    H139929   5.759   6.169  13.184 -0.2955  0.5360  0.1913
 6146TIP3    H239930   5.856   6.108  13.283  0.3047 -1.3840 -1.5485
 6147TIP3   OH239931   4.284   2.399  15.648  0.5382  0.0499  0.3861
 6147TIP3    H139932   4.291   2.475  15.706 -1.1014  0.3788  0.1571
 6147TIP3    H239933   4.291   2.323  15.707 -0.6637  0.3837  0.9656
 6148TIP3   OH239934   0.683   4.783  11.785 -0.7703 -0.3244 -0.2265
 6148TIP3    H139935   0.734   4.734  11.849 -1.1476 -0.2604  0.1261
 6148TIP3    H239936   0.745   4.844  11.747 -0.5789 -0.2616  0.1817
 6149TIP3   OH239937   2.852   5.520  12.296  0.3037 -0.4003 -0.5772
 6149TIP3    H139938   2.882   5.608  12.270 -2.2475  0.3166 -1.2648
 6149TIP3    H239939   2.921   5.487  12.352  1.0437  2.3474  0.2360
 6150TIP3   OH239940   1.684   0.227  11.054 -0.1320  0.4992  0.1893
 6150TIP3    H139941   1.621   0.267  11.114 -0.9617 -1.2808  0.5335
 6150TIP3    H239942   1.632   0.204  10.977  0.0416 -1.1324  0.5385
 6151TIP3   OH239943   3.088   1.644  12.993 -0.0536  0.0986 -0.0546
 6151TIP3    H139944   3.115   1.626  13.083  1.2019 -3.1460 -1.0080
 6151TIP3    H239945   2.993   1.637  12.995  0.0520 -1.2291  0.7832
 6152TIP3   OH239946   2.702   4.416  15.139  0.0025 -0.4681  0.2858
 6152TIP3    H139947   2.714   4.357  15.065  1.3028 -0.8011  0.7477
 6152TIP3    H239948   2.608   4.437  15.138  0.2616  0.8237 -2.4100
 6153TIP3   OH239949   7.287   2.122  12.448  0.6383 -0.6669  0.0976
 6153TIP3    H139950   7.209   2.082  12.408  0.2659  0.5911 -0.4371
 6153TIP3    H239951   7.314   2.058  12.514 -2.8299  0.3731  2.6481
 6154TIP3   OH239952   3.928   6.427  14.549  0.3557 -0.2836  0.6496
 6154TIP3    H139953   3.936   6.451  14.642 -3.8690  0.9843  0.7639
 6154TIP3    H239954   3.861   6.359  14.547  0.9147 -0.8062 -1.4389
 6155TIP3   OH239955   0.057   5.508  14.174  0.1287 -0.2352 -0.4301
 6155TIP3    H139956   0.138   5.522  14.223 -0.0623 -2.1380  0.4935
 6155TIP3    H239957   0.022   5.425  14.209 -1.0565 -0.5964 -2.3911
 6156TIP3   OH239958   3.054   0.716  12.859  0.0642  0.2033 -0.7387
 6156TIP3    H139959   3.083   0.669  12.937 -1.2122  0.4142 -0.1254
 6156TIP3    H239960   3.126   0.776  12.839  0.5493 -0.1069  0.0653
 6157TIP3   OH239961   4.558   6.030  14.211  0.6449  0.1787  0.5671
 6157TIP3    H139962   4.633   6.015  14.154 -0.7722 -0.7875 -1.0755
 6157TIP3    H239963   4.571   5.969  14.283  2.0027  0.8057  0.8788
 6158TIP3   OH239964   3.613   6.953  12.147  0.0452 -0.4268 -0.6661
 6158TIP3    H139965   3.666   6.959  12.068 -0.2885  1.0404 -0.7962
 6158TIP3    H239966   3.653   7.015  12.208 -1.4391  0.6167 -0.7322
 6159TIP3   OH239967   4.932   0.536  13.576 -0.7859  0.4250 -0.4087
 6159TIP3    H139968   4.962   0.450  13.607 -0.4638  0.9294  0.6966
 6159TIP3    H239969   4.894   0.577  13.653 -2.9048  0.4293 -1.4247
 6160TIP3   OH239970   6.573   5.201  12.472 -0.3688  0.6204 -0.1268
 6160TIP3    H139971   6.607   5.218  12.384  2.0188 -0.7719  0.4785
 6160TIP3    H239972   6.496   5.146  12.457  0.3336 -0.0633 -1.3398
 6161TIP3   OH239973   5.414   1.076  13.082 -0.1314 -0.0542 -0.1079
 6161TIP3    H139974   5.347   1.084  13.013 -1.1217  0.8011  0.9229
 6161TIP3    H239975   5.368   1.036  13.155 -0.0048  2.1561  1.2284
 6162TIP3   OH239976   4.360   6.626  12.379  0.1859  0.2398 -0.0529
 6162TIP3    H139977   4.283   6.589  12.423  1.9346 -0.2794  2.7194
 6162TIP3    H239978   4.362   6.717  12.407  0.4878  0.2926 -0.2476
 6163TIP3   OH239979   6.037   6.991  11.134  0.4773  0.4262  0.6797
 6163TIP3    H139980   6.096   6.919  11.158  0.7581  0.2843 -0.4198
 6163TIP3    H239981   6.006   7.025  11.218  1.2698 -0.2080  1.2402
 6164TIP3   OH239982   4.336   4.713  12.790 -0.2130  0.7100  0.4073
 6164TIP3    H139983   4.401   4.772  12.751 -0.0932  0.7710  0.7021
 6164TIP3    H239984   4.253   4.761  12.784 -0.3425  0.3756 -0.5370
 6165TIP3   OH239985   5.690   6.104  13.664  0.2308 -0.1356 -0.7508
 6165TIP3    H139986   5.620   6.148  13.712 -1.1722 -2.0944 -0.9609
 6165TIP3    H239987   5.705   6.161  13.588 -0.3296  0.8919 -0.1094
 6166TIP3   OH239988   5.217   3.265  12.026 -0.3576  0.1622  0.0202
 6166TIP3    H139989   5.173   3.307  12.100 -1.6847 -2.2032  0.6246
 6166TIP3    H239990   5.166   3.292  11.949 -0.7330  0.2714  0.3066
 6167TIP3   OH239991   1.780   6.655  14.610  0.1096 -0.4431 -0.8364
 6167TIP3    H139992   1.765   6.618  14.697 -0.7763 -0.1900 -0.8712
 6167TIP3    H239993   1.867   6.694  14.614 -1.0791  2.1369  0.8271
 6168TIP3   OH239994   4.585   3.486  14.329 -0.2978 -0.2732 -0.0438
 6168TIP3    H139995   4.569   3.395  14.305 -0.9070 -0.7247  2.0381
 6168TIP3    H239996   4.646   3.482  14.402 -0.2808  1.0000  0.0251
 6169TIP3   OH239997   3.923   1.327  11.482  0.4427 -0.0130  0.1463
 6169TIP3    H139998   3.910   1.268  11.557  1.4228 -0.2860  0.1087
 6169TIP3    H239999   3.858   1.396  11.495  0.4117 -0.2083  1.0962
 6170TIP3   OH240000   5.579   3.388  11.738 -0.2126 -0.0576  0.1236
 6170TIP3    H140001   5.559   3.331  11.813 -1.9560 -0.7177 -0.8194
 6170TIP3    H240002   5.529   3.468  11.756  0.7059  0.4471  0.4829
 6171TIP3   OH240003   0.176   4.034  13.231  0.6681 -0.9749 -0.6533
 6171TIP3    H140004   0.093   4.020  13.277 -0.2373 -0.7079 -2.1586
 6171TIP3    H240005   0.167   3.983  13.150 -0.0240  2.9168 -3.1546
 6172TIP3   OH240006   2.924   6.361  11.012 -0.4600 -0.1312 -0.1882
 6172TIP3    H140007   2.971   6.285  10.977 -0.7901 -0.0943 -0.7111
 6172TIP3    H240008   2.890   6.406  10.935 -0.3132  0.5211  0.1289
 6173TIP3   OH240009   4.669   1.486  11.406  0.0497  0.2204 -0.1118
 6173TIP3    H140010   4.724   1.492  11.484 -0.5576  0.8664  0.2659
 6173TIP3    H240011   4.600   1.551  11.419  0.1732  0.6323 -1.3775
 6174TIP3   OH240012   6.230   5.372  13.716 -0.1366  0.2363 -0.0015
 6174TIP3    H140013   6.242   5.319  13.795  0.7138 -1.7586 -1.4275
 6174TIP3    H240014   6.222   5.462  13.749  3.7379 -0.0834  2.1823
 6175TIP3   OH240015   6.902   5.728  13.201 -0.1376  0.0276 -0.7794
 6175TIP3    H140016   6.967   5.718  13.130 -1.2802 -1.5136 -1.6269
 6175TIP3    H240017   6.954   5.757  13.276  1.2236  0.9129 -2.0175
 6176TIP3   OH240018   5.316   0.235  12.194  0.0825 -0.0251  0.2827
 6176TIP3    H140019   5.274   0.264  12.275 -2.6418  1.1767 -1.4759
 6176TIP3    H240020   5.257   0.168  12.159  1.5003 -0.9112 -0.4404
 6177TIP3   OH240021   3.797   0.496  13.858  0.0847  0.6254 -0.2963
 6177TIP3    H140022   3.807   0.591  13.849 -0.8458  0.7948  0.4191
 6177TIP3    H240023   3.752   0.484  13.941  2.6700 -0.5890  0.9974
 6178TIP3   OH240024   6.641   0.329  11.268  0.0120  0.5564  0.0166
 6178TIP3    H140025   6.618   0.236  11.262 -2.2280  0.9301  2.0963
 6178TIP3    H240026   6.574   0.374  11.216 -0.1718  1.1684  0.7778
 6179TIP3   OH240027   6.399   4.996  13.411  0.3920 -0.1862  0.1989
 6179TIP3    H140028   6.374   5.051  13.337 -1.7418 -1.9646 -0.4791
 6179TIP3    H240029   6.491   5.017  13.428  0.3355  1.6709 -1.6818
 6180TIP3   OH240030   4.968   4.761  12.218 -0.2394 -0.3666 -0.2289
 6180TIP3    H140031   4.993   4.851  12.237  1.6258 -0.9549  0.1836
 6180TIP3    H240032   4.888   4.769  12.166 -0.7405  1.4856  0.7560
 6181TIP3   OH240033   6.870   5.883  12.714 -0.2893 -0.2225  0.2767
 6181TIP3    H140034   6.860   5.960  12.770  1.5030  1.3120 -1.4519
 6181TIP3    H240035   6.951   5.843  12.742 -0.5022 -0.6839  0.2371
 6182TIP3   OH240036   0.437   0.742  12.301 -0.4945  0.2455 -0.1373
 6182TIP3    H140037   0.468   0.751  12.211  1.0854 -0.4890  0.3046
 6182TIP3    H240038   0.516   0.717  12.350 -1.4783 -0.0089  1.3256
 6183TIP3   OH240039   5.741   0.224  14.090  0.0462 -0.1970  0.3726
 6183TIP3    H140040   5.781   0.240  14.004 -1.5348  2.8504  0.1065
 6183TIP3    H240041   5.674   0.159  14.073 -0.0017  0.0993 -0.6532
 6184TIP3   OH240042   4.734   6.957  12.671 -0.7512  0.6253  0.0728
 6184TIP3    H140043   4.755   7.004  12.591 -1.2333  1.0982  0.2226
 6184TIP3    H240044   4.666   6.894  12.644 -0.3195  0.2122 -0.0639
 6185TIP3   OH240045   5.847   5.276  13.609 -0.0935 -0.5293 -0.2729
 6185TIP3    H140046   5.885   5.270  13.696 -0.4854 -1.8247 -0.1858
 6185TIP3    H240047   5.785   5.349  13.615  0.2151 -0.3223  0.4053
 6186TIP3   OH240048   2.004   0.595  13.517 -0.2197 -0.0002 -0.6107
 6186TIP3    H140049   2.008   0.501  13.535 -0.5507 -0.3955 -2.4249
 6186TIP3    H240050   1.938   0.603  13.448 -0.3785  1.5946 -0.2902
 6187TIP3   OH240051   4.837   5.850  11.457  0.4946 -0.4925  0.1306
 6187TIP3    H140052   4.828   5.901  11.376  2.2528 -0.5636 -0.1235
 6187TIP3    H240053   4.747   5.840  11.488 -0.2826 -1.0115 -2.1425
 6188TIP3   OH240054   4.929   6.554   0.505  0.4355  0.5789 -0.0858
 6188TIP3    H140055   4.889   6.508   0.432  2.2626  0.7954 -1.2499
 6188TIP3    H240056   5.006   6.502   0.528 -0.7811 -0.1465  2.4874
 6189TIP3   OH240057   5.532   6.580  11.663 -0.2650 -0.4330  0.1675
 6189TIP3    H140058   5.553   6.629  11.743 -0.9647 -1.2360  0.8537
 6189TIP3    H240059   5.469   6.514  11.691  0.4180 -1.5243 -0.8186
 6190TIP3   OH240060   3.566   6.776  13.868 -0.0603 -0.2719  0.0512
 6190TIP3    H140061   3.548   6.796  13.960 -0.6578 -0.0229 -0.1144
 6190TIP3    H240062   3.654   6.811  13.853 -1.0459  2.2272 -0.2080
 6191TIP3   OH240063   5.241   0.131  10.878 -0.1437 -0.5490  0.3609
 6191TIP3    H140064   5.316   0.151  10.822 -1.2778 -1.3362 -1.5097
 6191TIP3    H240065   5.234   0.035  10.874 -1.5524 -0.4493  0.0485
 6192TIP3   OH240066   0.657   5.345  14.575 -0.1557  0.4229 -0.2791
 6192TIP3    H140067   0.708   5.311  14.501 -0.4313 -0.6280 -0.0013
 6192TIP3    H240068   0.616   5.267  14.613  0.5741  0.8432  1.4188
 6193TIP3   OH240069   4.997   1.122  10.328 -0.1124 -0.1048  0.5238
 6193TIP3    H140070   4.908   1.134  10.295  0.1392  0.3412 -0.0112
 6193TIP3    H240071   5.000   1.032  10.359 -0.5965 -0.2733  0.0790
 6194TIP3   OH240072   2.026   7.035  12.896  0.6952 -0.4097  0.3106
 6194TIP3    H140073   2.066   7.016  12.811  0.6395 -0.4165  0.2855
 6194TIP3    H240074   1.980   6.954  12.919  0.1284 -0.1688  0.0181
 6195TIP3   OH240075   1.764   0.878  12.954  0.6222  0.2796  0.5565
 6195TIP3    H140076   1.847   0.852  12.916  0.4238 -0.7913  0.8533
 6195TIP3    H240077   1.775   0.971  12.975  0.8029  0.8457 -1.9050
 6196TIP3   OH240078   4.594   6.516  13.472  0.2741  0.4211 -0.2566
 6196TIP3    H140079   4.508   6.553  13.449 -0.2424 -0.4244  0.2705
 6196TIP3    H240080   4.577   6.464  13.551  0.2028 -3.6722 -2.7741
 6197TIP3   OH240081   4.655   5.525  11.525 -0.2623 -0.0547  0.4296
 6197TIP3    H140082   4.677   5.570  11.607 -0.6711 -0.0323  0.5292
 6197TIP3    H240083   4.613   5.592  11.471 -0.2884 -0.1497  0.3304
 6198TIP3   OH240084   4.908   0.706  13.129  0.1487  0.8724  0.0658
 6198TIP3    H140085   4.890   0.748  13.212  0.2441 -1.3130  1.2365
 6198TIP3    H240086   4.972   0.637  13.150 -1.1168 -0.8299 -1.4642
 6199TIP3   OH240087   3.472   0.427  12.455 -0.0836 -0.2738  0.6316
 6199TIP3    H140088   3.565   0.415  12.474  0.2890  0.9491 -0.3271
 6199TIP3    H240089   3.429   0.422  12.540  0.7645 -1.5948  1.0001
 6200TIP3   OH240090   5.714   1.057  12.498  0.1930 -0.1511 -0.2863
 6200TIP3    H140091   5.720   0.962  12.488 -0.2621 -0.1370 -0.7352
 6200TIP3    H240092   5.623   1.078  12.476 -0.1420  0.2068  1.3383
 6201TIP3   OH240093   7.114   0.286  12.008 -0.1865  0.0493  0.2105
 6201TIP3    H140094   7.053   0.351  12.043  0.8226  0.7563  0.6899
 6201TIP3    H240095   7.059   0.224  11.960 -1.4457 -0.1257  1.8491
 6202TIP3   OH240096   5.512   6.710  13.217 -0.0197  0.1764  0.5607
 6202TIP3    H140097   5.440   6.657  13.182 -1.4518  0.3914  3.0191
 6202TIP3    H240098   5.589   6.654  13.209 -1.1294 -1.4968  1.2046
 6203TIP3   OH240099   6.744   6.971  13.210 -0.1096 -0.1279  0.2009
 6203TIP3    H140100   6.705   6.892  13.172  0.3014 -0.5200  0.5839
 6203TIP3    H240101   6.824   6.986  13.160  0.1110 -0.2876  0.5042
 6204TIP3   OH240102   5.708   5.481  12.291  0.0132  0.4768 -0.2466
 6204TIP3    H140103   5.630   5.533  12.311  0.6290  1.6518 -0.8692
 6204TIP3    H240104   5.746   5.462  12.377 -1.9311 -1.6641  0.1946
 6205TIP3   OH240105   3.422   2.911  15.186 -0.0951  0.1203  0.0753
 6205TIP3    H140106   3.481   2.962  15.131 -1.1384  0.8014 -0.4374
 6205TIP3    H240107   3.359   2.975  15.220  1.4492  0.0084  3.3781
 6206TIP3   OH240108   5.763   6.444  11.808 -0.1066  0.3263 -0.1935
 6206TIP3    H140109   5.768   6.402  11.721 -0.1886 -0.3784  0.1363
 6206TIP3    H240110   5.747   6.536  11.789  1.6010  0.4918 -0.9892
 6207TIP3   OH240111   5.178   5.401  13.319  0.3843  0.1211  0.5574
 6207TIP3    H140112   5.129   5.466  13.269  0.1679 -0.6578 -0.2525
 6207TIP3    H240113   5.268   5.412  13.290 -0.1894 -2.4932 -2.4418
 6208TIP3   OH240114   4.369   1.277  14.174  0.6599 -0.4007 -0.0918
 6208TIP3    H140115   4.319   1.315  14.102  1.5176  1.1982  0.1182
 6208TIP3    H240116   4.326   1.312  14.253  0.1612 -1.5737  0.1710
 6209TIP3   OH240117   1.967   0.375  13.133  0.2518  0.4031 -0.2769
 6209TIP3    H140118   1.898   0.328  13.087  0.2490 -1.3511  1.4392
 6209TIP3    H240119   2.045   0.320  13.123  0.7664  1.0890 -0.0563
 6210TIP3   OH240120   5.943   6.440  13.406  0.0648  0.5575  0.4295
 6210TIP3    H140121   5.956   6.534  13.424  1.0911  0.4685  0.2047
 6210TIP3    H240122   6.019   6.415  13.354 -0.4916 -0.2811  0.0119
 6211TIP3   OH240123   6.377   6.400  12.883 -0.7463 -0.2685  0.2533
 6211TIP3    H140124   6.422   6.408  12.799  1.4125 -0.8745  1.3261
 6211TIP3    H240125   6.291   6.363  12.861  0.0134 -0.9548 -1.6074
 6212TIP3   OH240126   5.723   6.709  11.879  0.6611  0.4582  0.4313
 6212TIP3    H140127   5.760   6.758  11.806  0.7849  1.7417  1.3434
 6212TIP3    H240128   5.771   6.739  11.956 -2.0383  1.9971  1.6100
 6213TIP3   OH240129   5.540   6.447  10.124  0.0993 -0.0552 -0.6286
 6213TIP3    H140130   5.615   6.431  10.067  0.1795 -0.1686 -0.4931
 6213TIP3    H240131   5.465   6.411  10.077  0.2876 -0.9083 -0.2951
 6214TIP3   OH240132   5.863   5.228  12.348 -0.3792  0.5901 -0.1467
 6214TIP3    H140133   5.838   5.314  12.316 -0.6935  0.1744 -1.0259
 6214TIP3    H240134   5.956   5.221  12.328 -0.4223  0.5998 -0.3438
 6215TIP3   OH240135   6.895   5.177  11.808 -0.1211 -0.3467 -0.2030
 6215TIP3    H140136   6.848   5.259  11.794  0.5161  0.0391 -0.1324
 6215TIP3    H240137   6.877   5.125  11.730 -1.3090 -0.5244  0.1817
 6216TIP3   OH240138   6.970   4.108  11.003  0.1714  0.5348 -0.0366
 6216TIP3    H140139   7.021   4.077  11.078 -0.1022  0.4122  0.1003
 6216TIP3    H240140   6.881   4.076  11.020  0.2092  0.1169 -0.6500
 6217TIP3   OH240141   5.544   6.100  12.526 -0.2999  0.1034  0.3058
 6217TIP3    H140142   5.576   6.028  12.579  0.0240 -0.9110 -1.2310
 6217TIP3    H240143   5.458   6.070  12.494 -0.5887  0.7867  0.4161
 6218TIP3   OH240144   6.741   7.005  15.188  0.1279 -0.4814  0.0980
 6218TIP3    H140145   6.679   7.075  15.168 -1.6968 -1.3375  2.5075
 6218TIP3    H240146   6.721   6.936  15.125 -0.1995 -0.0926 -0.2258
 6219TIP3   OH240147   4.262   5.817  11.383  0.2843  0.1136 -0.8909
 6219TIP3    H140148   4.259   5.745  11.319  1.7574 -2.3330  1.6756
 6219TIP3    H240149   4.200   5.881  11.349 -2.0382 -2.9064 -2.6665
 6220TIP3   OH240150   4.480   6.019  12.911 -0.4004 -0.0680  0.1421
 6220TIP3    H140151   4.463   5.937  12.958  0.0982 -1.2356 -1.6687
 6220TIP3    H240152   4.401   6.072  12.925 -0.7108 -0.8413  1.3514
 6221TIP3   OH240153   5.249   4.855  12.676 -0.9751  0.1910  0.1322
 6221TIP3    H140154   5.174   4.910  12.654 -0.5881  0.8005  0.3415
 6221TIP3    H240155   5.324   4.899  12.637 -0.6560 -0.1752  0.3198
 6222TIP3   OH240156   2.936   1.459  13.661  0.2157  0.2251 -0.1463
 6222TIP3    H140157   2.973   1.412  13.736  0.0505  0.7812  0.2845
 6222TIP3    H240158   3.012   1.494  13.615  0.4026 -1.2935 -1.0271
 6223TIP3   OH240159   5.826   7.157  12.804  0.0929 -0.0830 -0.3932
 6223TIP3    H140160   5.825   7.252  12.795  0.5866 -0.0412 -0.0127
 6223TIP3    H240161   5.740   7.129  12.772 -1.3356  0.7743  2.4886
 6224TIP3   OH240162   4.900   0.376  10.519  0.3534 -0.2854  0.1110
 6224TIP3    H140163   4.953   0.395  10.596  0.3992  1.1230 -0.2553
 6224TIP3    H240164   4.932   0.438  10.452 -0.5705 -0.6031 -0.6328
 6225TIP3   OH240165   4.532   1.337  13.814  0.0026  0.5178 -0.2508
 6225TIP3    H140166   4.549   1.429  13.832  2.6855  0.2626 -1.2916
 6225TIP3    H240167   4.593   1.314  13.744  0.6996 -2.5172  1.2538
 6226TIP3   OH240168   1.203   0.360  12.457  0.0956 -0.5819 -0.1184
 6226TIP3    H140169   1.201   0.340  12.363  2.4033  0.7935 -0.4911
 6226TIP3    H240170   1.226   0.276  12.499  0.0499 -0.9699 -0.8633
 6227TIP3   OH240171   4.413   1.455  14.863  0.4486 -0.3500 -0.2231
 6227TIP3    H140172   4.475   1.480  14.793  0.1533 -0.9399 -0.6953
 6227TIP3    H240173   4.364   1.536  14.880 -0.2237 -0.4749 -1.4670
 6228TIP3   OH240174   4.802   5.548  12.689  0.1239  0.0426  0.3001
 6228TIP3    H140175   4.709   5.543  12.708  0.4371 -3.2821  1.2827
 6228TIP3    H240176   4.839   5.597  12.762 -0.7020  0.4230  0.4678
 6229TIP3   OH240177   5.504   1.525  14.614  0.3256 -0.5534 -0.2546
 6229TIP3    H140178   5.559   1.600  14.637  0.0187  0.0651 -1.5108
 6229TIP3    H240179   5.450   1.556  14.541 -2.6735 -0.7093  1.8158
 6230TIP3   OH240180   6.421   5.765  12.521 -0.0742  0.0882  0.7016
 6230TIP3    H140181   6.415   5.669  12.524  0.3580  0.0521  0.4320
 6230TIP3    H240182   6.500   5.786  12.570 -0.0209  0.2919  0.5286
 6231TIP3   OH240183   5.113   6.390  13.310  0.3845  0.0352  0.1102
 6231TIP3    H140184   5.164   6.368  13.232  0.1927 -3.1859  0.8345
 6231TIP3    H240185   5.025   6.408  13.277  1.3492  3.2344 -0.8733
 6232TIP3   OH240186   4.112   7.252  11.713  0.5170  0.1853  0.0589
 6232TIP3    H140187   4.150   7.171  11.749  2.2781 -0.1485 -2.4384
 6232TIP3    H240188   4.188   7.305  11.687 -0.6414  0.4365 -3.0674
 6233TIP3   OH240189   5.583   6.410  13.874 -0.6450  0.3116 -0.1552
 6233TIP3    H140190   5.552   6.372  13.792 -1.3908 -0.0957  0.3123
 6233TIP3    H240191   5.677   6.391  13.875 -0.9595 -1.3180 -0.0408
 6234TIP3   OH240192   4.203   7.298  12.651  0.1831 -0.1247 -0.4569
 6234TIP3    H140193   4.206   7.353  12.729 -0.9800 -0.8759  0.1445
 6234TIP3    H240194   4.176   7.357  12.581  0.2276  0.3493 -0.0808
 6235TIP3   OH240195   1.572   6.522  12.390  0.0574 -0.4250 -0.1377
 6235TIP3    H140196   1.665   6.544  12.398  0.0753 -0.5392 -0.0322
 6235TIP3    H240197   1.546   6.561  12.307 -0.3361  1.4897  0.8575
 6236TIP3   OH240198   6.396   6.937  15.074  0.3389  0.3985 -0.0118
 6236TIP3    H140199   6.303   6.958  15.080  0.3939  1.6663 -2.7565
 6236TIP3    H240200   6.408   6.906  14.984  2.8395  1.7017 -0.1867
 6237TIP3   OH240201   5.985   6.723  10.936 -0.8755  0.1416  0.4078
 6237TIP3    H140202   5.974   6.628  10.926  0.6840  0.0643 -0.6423
 6237TIP3    H240203   6.060   6.733  10.994 -0.3492  0.7421 -0.3691
 6238TIP3   OH240204   3.697   5.623  11.488 -0.2283  0.5779  0.4838
 6238TIP3    H140205   3.767   5.662  11.436 -0.0722  0.9789  0.9949
 6238TIP3    H240206   3.743   5.581  11.561 -0.3848 -0.6172 -0.0898
 6239TIP3   OH240207   3.479   7.033  12.759  0.0592 -0.4112 -0.1970
 6239TIP3    H140208   3.410   6.984  12.804  0.1590  0.7443  1.2412
 6239TIP3    H240209   3.467   7.011  12.666 -0.6501 -2.1926  0.2936
 6240TIP3   OH240210   4.377   5.748  13.605  0.3547  0.5222  0.3704
 6240TIP3    H140211   4.311   5.816  13.591  0.9625  0.9383 -0.4578
 6240TIP3    H240212   4.439   5.759  13.534  0.3463 -1.0383  0.0985
 6241TIP3   OH240213   5.349   5.987  13.212 -0.0476 -0.1137  0.7081
 6241TIP3    H140214   5.383   6.021  13.129  0.7807 -0.4379  0.9093
 6241TIP3    H240215   5.392   6.041  13.279 -1.3886  0.7353  0.9059
 6242TIP3   OH240216   4.865   6.135  12.204 -0.2447 -0.4435  0.3643
 6242TIP3    H140217   4.885   6.115  12.113 -0.5673 -1.1681  0.4503
 6242TIP3    H240218   4.779   6.178  12.201  0.8721  1.8416  0.0817
 6243TIP3   OH240219   5.768   4.354  12.840  0.4444  0.0554 -0.0949
 6243TIP3    H140220   5.815   4.328  12.919  1.0287  0.9622 -0.1314
 6243TIP3    H240221   5.809   4.304  12.769  2.1409  1.6730 -0.2949
 6244TIP3   OH240222   2.032   5.468  12.307  0.4501 -0.6522  0.2933
 6244TIP3    H140223   2.090   5.514  12.246  1.4467 -2.1362  0.1183
 6244TIP3    H240224   2.074   5.479  12.393 -0.2444  0.2604  0.5328
 6245TIP3   OH240225   4.921   5.825  13.383  0.0016 -0.4870 -0.0112
 6245TIP3    H140226   4.975   5.853  13.457 -0.5479  0.1315  0.1621
 6245TIP3    H240227   4.854   5.770  13.422 -0.7009  0.4031  0.0487
 6246TIP3   OH240228   4.960   4.101  14.662 -0.2489 -0.1291 -0.0961
 6246TIP3    H140229   5.050   4.076  14.684 -1.3027 -1.7859  2.5191
 6246TIP3    H240230   4.955   4.194  14.683  1.1352  0.2165 -1.2299
 6247TIP3   OH240231   4.896   0.741  13.397 -0.3600  0.3346  0.0975
 6247TIP3    H140232   4.901   0.668  13.458 -1.2667 -0.4203 -0.7189
 6247TIP3    H240233   4.873   0.816  13.452 -3.0222 -0.6941  0.4643
 6248TIP3   OH240234   5.497   4.660  11.931 -0.4578  0.3901  0.5767
 6248TIP3    H140235   5.478   4.754  11.938 -1.2397  0.4024 -1.3126
 6248TIP3    H240236   5.546   4.652  11.849 -0.2241 -0.8169  0.8385
 6249TIP3   OH240237   4.877   6.860  11.761 -0.4614 -0.0230 -0.0089
 6249TIP3    H140238   4.895   6.942  11.715 -2.9556  0.9941  0.7029
 6249TIP3    H240239   4.858   6.887  11.851  0.8939 -1.6183  0.7789
 6250TIP3   OH240240   3.483   6.163  13.077  0.2970 -0.2413  0.9116
 6250TIP3    H140241   3.570   6.190  13.106  1.4026 -1.0343 -1.5056
 6250TIP3    H240242   3.454   6.236  13.021  0.0361 -0.6272  0.5450
 6251TIP3   OH240243   6.718   6.877  14.941 -0.0651 -0.1145 -0.1638
 6251TIP3    H140244   6.809   6.855  14.961 -0.1093  1.5245  1.9112
 6251TIP3    H240245   6.713   6.869  14.845  2.3163  0.0303 -0.3434
 6252TIP3   OH240246   4.345   0.318  12.634  0.1442  0.5214 -0.5380
 6252TIP3    H140247   4.407   0.368  12.686 -0.0918  0.1917  0.0653
 6252TIP3    H240248   4.265   0.371  12.633  0.4094  0.9086 -1.2472
 6253TIP3   OH240249   4.067   1.115  12.149  0.3052  0.1333 -0.3163
 6253TIP3    H140250   4.131   1.172  12.192 -0.0938 -0.2398  0.7886
 6253TIP3    H240251   3.991   1.116  12.207  1.7274 -4.6770  1.7999
 6254TIP3   OH240252   0.070   5.515  12.280 -0.0866 -0.6587  0.4363
 6254TIP3    H140253  -0.020   5.544  12.265  0.3057  0.0356 -0.6569
 6254TIP3    H240254   0.122   5.566  12.218  1.0816 -0.9236  1.1822
 6255TIP3   OH240255   5.406   0.580  15.873 -0.0998 -0.1357 -0.6060
 6255TIP3    H140256   5.483   0.598  15.928 -0.5034  0.5315 -0.2576
 6255TIP3    H240257   5.335   0.629  15.914 -0.7544 -0.8879 -0.8307
 6256TIP3   OH240258   3.952   0.457  11.123  0.0815 -0.0330 -0.6740
 6256TIP3    H140259   4.012   0.495  11.059 -0.9952  0.2386 -1.5389
 6256TIP3    H240260   3.968   0.362  11.117  0.8632  0.0788 -0.4383
 6257TIP3   OH240261   5.023   6.821  12.523 -0.0278 -0.1456 -0.0577
 6257TIP3    H140262   4.944   6.850  12.567 -1.0293  0.9229 -2.4744
 6257TIP3    H240263   4.999   6.736  12.484  0.1725 -0.0712 -0.3462
 6258TIP3   OH240264   5.304   6.983  13.117 -0.1366  0.3162  0.1345
 6258TIP3    H140265   5.350   6.904  13.087 -0.6900  0.0197  0.0728
 6258TIP3    H240266   5.372   7.034  13.161  0.2891 -0.0575 -0.0859
 6259TIP3   OH240267   7.332   3.667  11.384  0.6940 -0.0823  0.1828
 6259TIP3    H140268   7.312   3.574  11.384  1.8023 -0.3271 -0.2802
 6259TIP3    H240269   7.423   3.672  11.412  1.1771  0.7380 -1.4654
 6260TIP3   OH240270   7.165   0.257  14.378  0.0414  0.1370  0.0889
 6260TIP3    H140271   7.102   0.192  14.349  1.0695 -0.7411 -0.2185
 6260TIP3    H240272   7.181   0.312  14.301 -0.5903  0.5603  0.2595
 6261TIP3   OH240273   2.500   6.798  13.434  0.0494  0.2107  0.2947
 6261TIP3    H140274   2.419   6.834  13.397 -0.0469  1.2830  1.5208
 6261TIP3    H240275   2.476   6.772  13.523  0.2578 -2.4388 -0.3679
 6262TIP3   OH240276   4.414   0.860  13.876  0.4811  0.3960 -0.2479
 6262TIP3    H140277   4.463   0.856  13.958 -0.0664  0.8128  0.1099
 6262TIP3    H240278   4.382   0.951  13.872 -0.2853  0.1233 -0.4518
 6263TIP3   OH240279   4.845   6.479  13.268  0.1662  0.2764 -0.2513
 6263TIP3    H140280   4.782   6.408  13.281 -1.6829  1.8656 -0.1795
 6263TIP3    H240281   4.825   6.513  13.181  2.0164 -0.2283 -0.8810
 6264TIP3   OH240282   4.981   0.092  10.566  0.6039 -0.5455 -0.5391
 6264TIP3    H140283   4.971   0.187  10.574  1.2157 -0.3700 -1.7437
 6264TIP3    H240284   4.977   0.076  10.471 -0.2912 -1.8108 -0.3020
 6265TIP3   OH240285   3.441   6.445  11.524 -0.3548 -0.0679  0.3048
 6265TIP3    H140286   3.382   6.379  11.486 -0.2868 -0.1185  0.2871
 6265TIP3    H240287   3.520   6.441  11.470  0.0843 -0.7504  0.9785
 6266TIP3   OH240288   6.639   5.306  13.554  0.3792  0.0773  0.0974
 6266TIP3    H140289   6.688   5.349  13.484  3.4628 -0.7508  1.6361
 6266TIP3    H240290   6.637   5.214  13.528  0.7407 -0.0861  0.6393
 6267TIP3   OH240291   3.464   0.584  14.515  0.0651  0.4073 -0.3409
 6267TIP3    H140292   3.485   0.552  14.427 -0.5029 -0.4067 -0.1830
 6267TIP3    H240293   3.536   0.554  14.569 -0.3132 -0.3412 -0.2524
 6268TIP3   OH240294   3.461   0.422  15.791 -0.1630 -0.3215  0.1960
 6268TIP3    H140295   3.442   0.343  15.741 -0.4809  0.6928 -1.3430
 6268TIP3    H240296   3.556   0.432  15.783 -0.4070  0.7453 -1.6594
 6269TIP3   OH240297   6.358   6.469  14.858 -0.0147 -0.0631  0.1732
 6269TIP3    H140298   6.312   6.403  14.910 -2.1333  1.2842  0.0454
 6269TIP3    H240299   6.339   6.552  14.901  3.6241  0.3826  1.0214
 6270TIP3   OH240300   2.893   6.431  13.683 -0.7120 -0.3218 -0.3098
 6270TIP3    H140301   2.891   6.441  13.778 -0.6083  1.8891 -0.5017
 6270TIP3    H240302   2.944   6.506  13.652  0.3492 -1.7217 -2.0256
 6271TIP3   OH240303   4.572   5.300  15.384 -0.2587  0.4365  0.1156
 6271TIP3    H140304   4.476   5.294  15.392 -0.4299  1.5533 -0.9879
 6271TIP3    H240305   4.596   5.223  15.331 -0.7388  1.0670 -1.0379
 6272TIP3   OH240306   2.301   7.296  12.638  0.1367 -0.2357 -0.5164
 6272TIP3    H140307   2.282   7.339  12.721 -0.7072 -0.6576 -0.4834
 6272TIP3    H240308   2.365   7.352  12.595 -0.4039  0.6568 -0.1485
 6273TIP3   OH240309   2.480   0.260  13.378 -0.0279 -0.0677 -0.1829
 6273TIP3    H140310   2.450   0.329  13.319  2.1683  0.0857 -1.1791
 6273TIP3    H240311   2.425   0.270  13.456 -2.0067  0.6371 -1.6214
 6274TIP3   OH240312   6.218   5.644  11.424 -0.9974  0.4820  0.5353
 6274TIP3    H140313   6.292   5.693  11.459 -1.7697  1.7096  0.5091
 6274TIP3    H240314   6.245   5.618  11.336 -0.8271  1.4436  0.3020
 6275TIP3   OH240315   1.532   5.509  12.160 -0.6350  0.1190 -0.2662
 6275TIP3    H140316   1.562   5.462  12.082 -1.0445 -0.0955 -0.2938
 6275TIP3    H240317   1.611   5.519  12.213 -0.2996  0.5124 -0.8325
 6276TIP3   OH240318   2.147   1.195  13.195  0.0983 -0.0742 -0.2219
 6276TIP3    H140319   2.074   1.197  13.256 -0.2341  0.0314 -0.6228
 6276TIP3    H240320   2.173   1.286  13.185 -0.9701  0.0920 -1.5816
 6277TIP3   OH240321   3.213   1.450  14.939 -0.4249  0.2408  0.2680
 6277TIP3    H140322   3.306   1.467  14.919 -0.5615  0.9347  0.1983
 6277TIP3    H240323   3.215   1.375  14.998  0.1659  0.0516  0.0175
 6278TIP3   OH240324   2.672   1.803   0.435  0.4907  0.2482  0.4211
 6278TIP3    H140325   2.671   1.868   0.365 -0.4791 -0.0521  0.1550
 6278TIP3    H240326   2.744   1.831   0.492  2.2758 -0.3717 -1.4770
 6279TIP3   OH240327   3.354   4.324  14.866  0.2628 -0.0643 -0.1220
 6279TIP3    H140328   3.268   4.295  14.837  0.0660  0.5531 -0.1527
 6279TIP3    H240329   3.339   4.409  14.908  0.5948 -0.7669  1.4570
 6280TIP3   OH240330   5.565   7.242  13.024 -0.0016  0.0950  0.1858
 6280TIP3    H140331   5.635   7.186  13.058 -0.9534  0.0703  2.2022
 6280TIP3    H240332   5.541   7.202  12.940  0.7632 -1.3046  0.6151
 6281TIP3   OH240333   4.383   1.369  14.529 -0.2118 -0.2976 -0.1653
 6281TIP3    H140334   4.300   1.414  14.512  0.3038  0.2443 -1.3705
 6281TIP3    H240335   4.449   1.438  14.522  0.5769 -1.1807 -1.9245
 6282TIP3   OH240336   5.867   5.500  14.228  0.4694 -0.5287  0.0434
 6282TIP3    H140337   5.779   5.464  14.216  0.8318 -0.5185 -3.0276
 6282TIP3    H240338   5.901   5.509  14.140  1.8279  3.9002  0.9196
 6283TIP3   OH240339   2.474   6.338  11.673  0.1999  0.0201  0.5361
 6283TIP3    H140340   2.426   6.256  11.687 -0.0433  0.3178  1.4340
 6283TIP3    H240341   2.498   6.368  11.760  0.4572  0.8122  0.2005
 6284TIP3   OH240342   4.771   6.173  14.018  0.0116 -0.2198 -0.1520
 6284TIP3    H140343   4.834   6.117  14.063 -0.2406 -1.8369 -1.7464
 6284TIP3    H240344   4.734   6.228  14.087  0.8977 -1.4379  1.3216
 6285TIP3   OH240345   3.610   5.116  11.432 -0.3102  0.5441 -0.2823
 6285TIP3    H140346   3.567   5.031  11.425  0.2622  0.4153 -2.9364
 6285TIP3    H240347   3.660   5.111  11.513  1.0458 -2.3273 -1.2213
 6286TIP3   OH240348   2.959   5.790  12.546 -0.5243  0.5391  0.4424
 6286TIP3    H140349   3.042   5.767  12.587 -0.1071  0.8967 -0.1977
 6286TIP3    H240350   2.980   5.802  12.453 -1.0341  1.9657  0.5044
 6287TIP3   OH240351   3.508   4.452  12.734  1.0528  0.3365 -0.4030
 6287TIP3    H140352   3.452   4.429  12.660 -0.5113 -0.5881  1.0365
 6287TIP3    H240353   3.502   4.548  12.739  1.3254  0.4277 -1.5626
 6288TIP3   OH240354   4.367   5.336  14.504 -0.3958 -0.1533 -0.4443
 6288TIP3    H140355   4.408   5.260  14.544  1.4948  1.7451  1.3669
 6288TIP3    H240356   4.304   5.300  14.442  1.3120 -3.1668 -0.5119
 6289TIP3   OH240357   5.295   5.719  12.415 -0.2465  0.0421 -0.2818
 6289TIP3    H140358   5.319   5.698  12.505 -2.3659 -0.0907  0.2704
 6289TIP3    H240359   5.223   5.782  12.423 -0.4709  0.0204 -1.8820
 6290TIP3   OH240360   4.122   0.667  11.290  0.5168  0.0570 -0.2333
 6290TIP3    H140361   4.164   0.642  11.208  2.8465  1.5751  0.4181
 6290TIP3    H240362   4.123   0.588  11.343 -0.1267 -0.6810 -1.3135
 6291TIP3   OH240363   1.697   5.048  12.404 -0.4181  0.7154 -0.2042
 6291TIP3    H140364   1.697   5.078  12.495  0.3212 -1.8543  0.6787
 6291TIP3    H240365   1.627   4.983  12.400  1.0406 -0.8247 -0.9195
 6292TIP3   OH240366   5.924   5.409  10.719  0.3923  0.7292 -0.4249
 6292TIP3    H140367   6.018   5.424  10.711  0.0855  2.1849 -1.4179
 6292TIP3    H240368   5.887   5.495  10.736 -0.7681  0.1559 -0.0128
 6293TIP3   OH240369   3.606   0.189  11.579 -0.2066 -0.2484 -0.0273
 6293TIP3    H140370   3.669   0.148  11.638 -0.3313 -1.4820 -0.7468
 6293TIP3    H240371   3.568   0.261  11.631  0.1367 -0.9226  1.1745
 6294TIP3   OH240372   4.877   0.286  14.658  0.7538  0.6044 -0.0657
 6294TIP3    H140373   4.857   0.362  14.714  1.6876  0.0375  1.0660
 6294TIP3    H240374   4.968   0.300  14.632  0.9394 -0.1463  0.1742
 6295TIP3   OH240375   2.870   6.819  12.801 -0.0107 -0.1290  0.0208
 6295TIP3    H140376   2.931   6.881  12.841  0.4105 -0.4910 -0.0651
 6295TIP3    H240377   2.826   6.870  12.733 -0.8899  0.5487  1.0742
 6296TIP3   OH240378   5.521   1.985  11.626  0.2782  0.0667  0.0138
 6296TIP3    H140379   5.487   1.951  11.543  0.8666  1.0279 -0.6278
 6296TIP3    H240380   5.447   2.029  11.667 -0.0497 -0.5301  0.0620
 6297TIP3   OH240381   6.245   6.212  14.763  0.4294 -0.4520 -0.4221
 6297TIP3    H140382   6.199   6.229  14.845  1.4609 -0.6610  0.2059
 6297TIP3    H240383   6.246   6.117  14.754  1.5279 -0.4904  0.0327
 6298TIP3   OH240384   0.230   6.159  12.745  0.1351 -0.2119 -0.0390
 6298TIP3    H140385   0.207   6.099  12.674 -1.7087 -0.6409  0.8789
 6298TIP3    H240386   0.204   6.113  12.825  1.2237  0.6935  0.8485
 6299TIP3   OH240387   0.378   5.359  14.193  0.3939  0.2872  0.0155
 6299TIP3    H140388   0.325   5.315  14.126 -1.7599  0.5151  1.5369
 6299TIP3    H240389   0.468   5.346  14.164 -0.2940 -3.1222 -0.8365
 6300TIP3   OH240390   0.724   0.807  14.141 -0.2670 -0.5916 -0.1348
 6300TIP3    H140391   0.689   0.736  14.195 -0.0971 -0.4625  0.1466
 6300TIP3    H240392   0.783   0.854  14.199 -0.0929 -0.4425 -0.4323
 6301TIP3   OH240393   4.187   6.399  11.035  0.7694 -0.4292 -0.6412
 6301TIP3    H140394   4.204   6.482  11.079 -0.0437 -0.1072 -0.9381
 6301TIP3    H240395   4.127   6.421  10.964 -2.4756 -1.8964  1.5736
 6302TIP3   OH240396   5.792   6.524  15.888  0.5343  0.2076 -0.1520
 6302TIP3    H140397   5.728   6.593  15.909  1.7369  0.9784  1.1183
 6302TIP3    H240398   5.853   6.567  15.828  0.7791 -0.0175 -0.0620
 6303TIP3   OH240399   5.251   7.039  11.785  0.3699 -0.4011  0.3016
 6303TIP3    H140400   5.212   7.101  11.845  0.7292  1.7411 -1.5995
 6303TIP3    H240401   5.345   7.045  11.801  0.2732 -2.4347  1.9209
 6304TIP3   OH240402   1.679   3.859  10.547 -0.2833  0.2933  0.6279
 6304TIP3    H140403   1.655   3.797  10.478  0.1784 -1.4450  1.9904
 6304TIP3    H240404   1.752   3.909  10.510  1.3245 -2.0213  0.5556
 6305TIP3   OH240405   6.180   5.046  13.622 -0.4658  0.3154 -0.0053
 6305TIP3    H140406   6.213   5.060  13.711  0.6372 -2.4134  0.0427
 6305TIP3    H240407   6.258   5.036  13.568 -1.1524  0.1322 -0.9796
 6306TIP3   OH240408   0.382   5.693  13.546  0.7826  0.4711 -0.5342
 6306TIP3    H140409   0.345   5.701  13.634  0.8759  0.2852 -0.4769
 6306TIP3    H240410   0.456   5.632  13.557  1.2956  1.0811 -0.5893
 6307TIP3   OH240411   0.594   5.972  12.268  0.9925 -0.9585  0.6695
 6307TIP3    H140412   0.615   6.065  12.273 -0.3582 -0.6645  0.9156
 6307TIP3    H240413   0.564   5.949  12.356 -1.0052 -1.0485 -0.0175
 6308TIP3   OH240414   5.841   4.967  12.907  0.0445  1.1248 -0.3502
 6308TIP3    H140415   5.826   4.997  12.997 -0.0622  1.4634 -0.4808
 6308TIP3    H240416   5.761   4.992  12.860  0.1426  1.0366 -0.5628
 6309TIP3   OH240417   4.845   4.341  13.392  0.4073  0.1572  0.2458
 6309TIP3    H140418   4.861   4.304  13.305 -0.7800  1.2885 -0.4706
 6309TIP3    H240419   4.929   4.379  13.417  0.9768 -0.8835 -0.0553
 6310TIP3   OH240420   6.770   5.319  13.895 -0.1097 -0.2142 -0.4156
 6310TIP3    H140421   6.851   5.268  13.897 -0.0887 -0.1503  2.1020
 6310TIP3    H240422   6.799   5.410  13.896 -0.1789 -0.1735  3.4228
 6311TIP3   OH240423   0.792   6.024  12.790  0.5397 -0.0859  0.0924
 6311TIP3    H140424   0.859   6.089  12.767 -0.8083  0.8278 -1.2846
 6311TIP3    H240425   0.811   5.950  12.733  0.1375  0.3157 -0.5574
 6312TIP3   OH240426   0.563   5.527  13.072  0.0158 -0.8155 -0.1920
 6312TIP3    H140427   0.648   5.546  13.032 -0.0197  0.3326  0.2556
 6312TIP3    H240428   0.530   5.613  13.099 -0.4652 -1.4446  1.2684
 6313TIP3   OH240429   5.278   5.029  11.450 -0.0477 -0.1493 -0.1925
 6313TIP3    H140430   5.342   5.090  11.415  1.3536 -1.3400  0.2256
 6313TIP3    H240431   5.316   4.942  11.434 -1.7305 -0.8956 -0.2831
 6314TIP3   OH240432   4.098   7.230  10.782  0.0868 -0.0619 -0.1411
 6314TIP3    H140433   4.165   7.238  10.850 -0.1164 -2.5324  0.3911
 6314TIP3    H240434   4.108   7.141  10.748 -0.6861  0.6905 -2.4382
 6315TIP3   OH240435   0.218   4.195  14.610  0.1237  0.3687 -0.9369
 6315TIP3    H140436   0.260   4.265  14.660  2.2221 -1.4640 -0.0648
 6315TIP3    H240437   0.274   4.184  14.532 -0.5041  0.0474 -1.3473
 6316TIP3   OH240438   0.523   0.299  12.063  0.2890 -0.3923  0.0214
 6316TIP3    H140439   0.556   0.215  12.032 -1.7053 -0.8695 -0.9156
 6316TIP3    H240440   0.601   0.349  12.086  1.5222 -2.3115  0.1148
 6317TIP3   OH240441   1.470   6.379  11.797  0.2834  0.4868  0.0479
 6317TIP3    H140442   1.421   6.297  11.808 -1.3272  1.6218  1.7758
 6317TIP3    H240443   1.560   6.355  11.819 -0.3520 -0.6141  1.6065
 6318TIP3   OH240444   6.848   6.113  12.847 -0.6552  0.0555 -0.1116
 6318TIP3    H140445   6.801   6.143  12.925  0.6830  2.1967 -0.0955
 6318TIP3    H240446   6.940   6.132  12.866 -0.3868  1.4089 -2.5443
 6319TIP3   OH240447   0.156   4.231  12.201  0.2101  0.2027  0.3930
 6319TIP3    H140448   0.098   4.158  12.178 -0.2709  0.3421  1.1512
 6319TIP3    H240449   0.234   4.217  12.147  0.3170 -1.1416  0.8517
 6320TIP3   OH240450   7.090   7.152  10.364  0.1625  0.0894  0.4019
 6320TIP3    H140451   7.142   7.107  10.298 -0.5640 -0.8216  0.4546
 6320TIP3    H240452   7.108   7.245  10.349  1.3027 -0.1873  0.0049
 6321TIP3   OH240453   1.642   0.584  12.989  0.4513  0.4331  0.2856
 6321TIP3    H140454   1.636   0.679  12.999 -2.1724  0.2377  0.9326
 6321TIP3    H240455   1.640   0.551  13.078 -2.1024 -0.3510 -0.0188
 6322TIP3   OH240456   0.239   6.849  13.781 -0.2282  0.3520  0.2485
 6322TIP3    H140457   0.200   6.897  13.708 -1.1799 -0.4362  0.2288
 6322TIP3    H240458   0.292   6.781  13.738  0.3939  0.8029  0.2879
 6323TIP3   OH240459   0.727   5.350  10.262 -0.2432 -0.6607 -0.1740
 6323TIP3    H140460   0.679   5.424  10.223 -1.7453 -1.0182  0.9629
 6323TIP3    H240461   0.686   5.272  10.225 -1.1862 -0.9893  1.4990
 6324TIP3   OH240462   0.174   5.173  11.898  0.2555 -0.2129  0.8138
 6324TIP3    H140463   0.110   5.112  11.936  0.7248  0.1059  2.1554
 6324TIP3    H240464   0.189   5.140  11.810 -1.4111 -0.5680  0.6466
 6325TIP3   OH240465   6.647   5.663  14.757  0.6111  0.0221 -0.0825
 6325TIP3    H140466   6.665   5.596  14.823  0.6089 -0.7130 -0.8172
 6325TIP3    H240467   6.630   5.613  14.677  2.1896  0.9610 -1.0092
 6326TIP3   OH240468   6.939   4.149  15.371  0.4481 -0.0755  0.2273
 6326TIP3    H140469   6.939   4.057  15.399 -1.7507  0.0281  0.6905
 6326TIP3    H240470   6.863   4.187  15.416  1.7028  2.1200  0.5238
 6327TIP3   OH240471   6.582   6.176  11.567 -0.1517  0.4057  0.2930
 6327TIP3    H140472   6.582   6.158  11.472  2.7205 -1.2351  0.5328
 6327TIP3    H240473   6.663   6.135  11.598 -0.7373  1.5125  3.3680
 6328TIP3   OH240474   1.018   0.001  10.345 -1.1421 -0.0248  0.6018
 6328TIP3    H140475   0.986  -0.071  10.400 -0.7960  0.8054  1.8988
 6328TIP3    H240476   0.991  -0.024  10.256 -2.1763 -1.1136  1.1979
 6329TIP3   OH240477   0.813   4.925  13.198 -0.5785  0.2280  0.2515
 6329TIP3    H140478   0.896   4.901  13.157  0.6679  0.9410  2.2897
 6329TIP3    H240479   0.792   5.011  13.162 -1.2731 -0.6174 -1.4493
 6330TIP3   OH240480   6.555   6.704  15.111 -0.9460 -0.0959  0.1402
 6330TIP3    H140481   6.514   6.786  15.081 -0.7852  0.9859  2.6940
 6330TIP3    H240482   6.649   6.719  15.100 -1.0213 -1.0169 -1.9344
 6331TIP3   OH240483   5.585   5.617  14.501  0.5040 -0.0085 -0.5433
 6331TIP3    H140484   5.526   5.573  14.440  0.7136 -1.4342  0.2781
 6331TIP3    H240485   5.669   5.575  14.487  0.7378  0.2309  0.1615
 6332TIP3   OH240486   4.787   0.147  10.921  0.3017  0.4609 -0.4294
 6332TIP3    H140487   4.816   0.056  10.915  1.0313  0.5543  1.5176
 6332TIP3    H240488   4.720   0.155  10.853  1.5106 -1.0275 -1.8415
 6333TIP3   OH240489   7.045   7.332  13.385  0.1132  0.4059 -0.1738
 6333TIP3    H140490   6.980   7.403  13.384 -2.0796 -1.5092  1.4619
 6333TIP3    H240491   7.055   7.310  13.478 -0.2541 -2.3032 -0.7467
 6334TIP3   OH240492   4.387   5.316  10.803 -0.2543  0.1718  0.5142
 6334TIP3    H140493   4.388   5.359  10.717 -0.9250  0.8732  0.8561
 6334TIP3    H240494   4.301   5.335  10.839  0.3060  0.5707  1.6876
 6335TIP3   OH240495   2.267   0.034  11.639 -0.1548 -0.2382 -0.0190
 6335TIP3    H140496   2.299   0.092  11.569 -1.3305  0.1900 -0.2130
 6335TIP3    H240497   2.237  -0.044  11.592  0.8613 -0.7561  0.1886
 6336TIP3   OH240498   0.863   5.285  11.804 -0.2530  0.1885 -0.3175
 6336TIP3    H140499   0.924   5.264  11.733  0.9460 -0.7969  0.9751
 6336TIP3    H240500   0.825   5.369  11.778 -0.5027 -0.5852 -2.5568
 6337TIP3   OH240501   6.514   6.140  10.794 -0.3501  0.3818 -0.5892
 6337TIP3    H140502   6.592   6.176  10.753  0.3044 -0.9049 -0.5098
 6337TIP3    H240503   6.462   6.107  10.720 -0.4454  0.5140 -0.5818
 6338TIP3   OH240504   6.081   5.186  11.220  0.3981  0.1506 -0.4325
 6338TIP3    H140505   6.146   5.255  11.205  0.2531  0.2289 -0.7264
 6338TIP3    H240506   6.040   5.173  11.134 -0.3325  0.4715 -0.1440
 6339TIP3   OH240507   4.872   1.101  11.731 -0.0406  0.0076  0.2786
 6339TIP3    H140508   4.927   1.121  11.655  0.4455 -1.9887  0.0809
 6339TIP3    H240509   4.834   1.016  11.711  1.2532 -1.2302  2.9068
 6340TIP3   OH240510   0.336   0.791  11.324  0.2452 -0.0104  0.2574
 6340TIP3    H140511   0.389   0.746  11.259 -0.0602 -0.8028  0.5463
 6340TIP3    H240512   0.265   0.729  11.344  0.2569  0.2862  1.2287
 6341TIP3   OH240513   0.160   5.733  15.277 -0.1413  0.8603  0.6377
 6341TIP3    H140514   0.123   5.805  15.226  1.2303  1.5664  0.6390
 6341TIP3    H240515   0.111   5.733  15.359 -0.4316  1.5076  0.4626
 6342TIP3   OH240516   6.910   1.284  14.040  0.2417 -1.0169 -0.7256
 6342TIP3    H140517   6.863   1.366  14.053  1.7751 -0.3838  1.1222
 6342TIP3    H240518   6.844   1.222  14.009 -1.6666  0.0169  1.1922
 6343TIP3   OH240519   4.851   6.527  12.138 -0.1819  0.5500 -0.9845
 6343TIP3    H140520   4.880   6.491  12.222 -0.5060  1.4968 -0.4625
 6343TIP3    H240521   4.904   6.481  12.073  0.3937  0.1343 -0.2346
 6344TIP3   OH240522   4.529   0.288  13.115  0.2091 -0.0093 -0.5276
 6344TIP3    H140523   4.604   0.258  13.064  0.9048  1.0674 -0.1542
 6344TIP3    H240524   4.549   0.379  13.138 -0.9168  0.1003  0.1181
 6345TIP3   OH240525   6.930   4.025  13.375  0.1131  0.1348 -0.3713
 6345TIP3    H140526   6.997   4.093  13.381  0.8135 -0.6345  0.9271
 6345TIP3    H240527   6.858   4.065  13.326 -0.1001  2.3286  1.6632
 6346TIP3   OH240528   5.644   6.709  10.918  0.1281  0.3121 -0.2147
 6346TIP3    H140529   5.643   6.696  11.013 -0.5782  1.7802  0.0008
 6346TIP3    H240530   5.560   6.676  10.888  0.6226 -0.7739 -0.4333
 6347TIP3   OH240531   7.306   4.720  12.417  0.0391  0.1215 -0.3519
 6347TIP3    H140532   7.360   4.702  12.493 -0.3627  0.4277  0.0049
 6347TIP3    H240533   7.347   4.669  12.346  0.2279 -0.4068  0.1358
 6348TIP3   OH240534   6.235   5.454  12.596 -0.3547  0.1795 -0.0255
 6348TIP3    H140535   6.235   5.536  12.646 -1.4443 -0.0163  0.2978
 6348TIP3    H240536   6.328   5.435  12.584 -0.0817  1.7712 -0.6225
 6349TIP3   OH240537   5.482   5.015  12.560  0.1841  0.3874  0.1862
 6349TIP3    H140538   5.490   5.101  12.519  0.7648  0.5916  0.7189
 6349TIP3    H240539   5.499   4.953  12.490 -0.1578  0.7060 -0.1843
 6350TIP3   OH240540   6.080   5.450  12.344  0.2635  0.1409  0.0718
 6350TIP3    H140541   6.007   5.414  12.395  0.7577  0.7569  1.2472
 6350TIP3    H240542   6.151   5.458  12.407  1.3543 -0.4555 -1.0730
 6351TIP3   OH240543   5.279   5.175  15.805 -0.1118  0.1784  0.7151
 6351TIP3    H140544   5.292   5.233  15.730 -2.4502 -0.7407 -0.4602
 6351TIP3    H240545   5.209   5.217  15.855 -0.9050 -0.9181  0.5512
 6352TIP3   OH240546   5.376   6.320  14.678  0.0424  0.3021  0.5436
 6352TIP3    H140547   5.336   6.288  14.759 -2.3498 -0.5828 -0.9448
 6352TIP3    H240548   5.303   6.326  14.616  1.7223  1.6276 -1.3495
 6353TIP3   OH240549   5.198   0.603  14.198  0.3612  0.3025  0.0607
 6353TIP3    H140550   5.108   0.574  14.187  0.9625 -0.9616 -1.8125
 6353TIP3    H240551   5.192   0.699  14.199 -1.0672  0.2191  0.6736
 6354TIP3   OH240552   5.555   6.085  12.195 -0.2826  0.3532 -0.2397
 6354TIP3    H140553   5.630   6.100  12.138  0.3570 -0.6352  0.3426
 6354TIP3    H240554   5.570   6.144  12.270 -0.5791  0.8615 -0.5788
 6355TIP3   OH240555   0.422   6.862  12.196 -0.1638 -0.2201 -0.7649
 6355TIP3    H140556   0.355   6.865  12.265  1.0308  1.4270  0.3624
 6355TIP3    H240557   0.430   6.953  12.166  2.0556 -0.2676 -0.4008
 6356TIP3   OH240558   0.521   6.736  12.457  0.1743  0.1735  0.1718
 6356TIP3    H140559   0.484   6.648  12.468  4.5371 -1.7859  0.2186
 6356TIP3    H240560   0.516   6.751  12.362 -1.9070  0.5800  0.3050
 6357TIP3   OH240561   7.048   4.839  14.440 -0.0382  0.0520 -0.3646
 6357TIP3    H140562   6.995   4.918  14.446  1.3485  0.8352  2.4785
 6357TIP3    H240563   7.034   4.793  14.523  2.6082 -0.4101 -0.1156
 6358TIP3   OH240564   5.422   7.315  13.565 -0.2193 -0.4867 -0.1638
 6358TIP3    H140565   5.356   7.324  13.634 -0.3928 -0.9361 -0.2672
 6358TIP3    H240566   5.398   7.380  13.500  0.7507  0.9088  0.8243
 6359TIP3   OH240567   5.046   6.752  13.109  0.4093  0.0080  0.2252
 6359TIP3    H140568   5.095   6.789  13.036 -0.6402  1.7608  0.3963
 6359TIP3    H240569   4.987   6.689  13.068 -0.1902  0.9999 -0.4489
 6360TIP3   OH240570   7.306   5.599  11.615 -0.0456  0.0232 -0.3242
 6360TIP3    H140571   7.267   5.558  11.693 -0.6101 -0.7562 -1.0110
 6360TIP3    H240572   7.348   5.527  11.568 -0.5727  0.3111 -1.2543
 6361TIP3   OH240573   5.662   6.318  14.926 -0.0497 -0.2953 -0.0908
 6361TIP3    H140574   5.637   6.396  14.976  1.1025  0.2481 -0.3497
 6361TIP3    H240575   5.746   6.292  14.963  1.0789  0.4153 -2.0486
 6362TIP3   OH240576   4.162   6.491  11.729  0.3440  0.4799  0.1449
 6362TIP3    H140577   4.167   6.586  11.720  1.1137  0.3537 -0.8670
 6362TIP3    H240578   4.097   6.465  11.663  0.9420  0.2117 -0.3504
 6363TIP3   OH240579   6.456   5.537  15.052 -0.3157 -0.8246 -0.1947
 6363TIP3    H140580   6.542   5.550  15.012 -0.3505 -2.3859 -0.7917
 6363TIP3    H240581   6.475   5.518  15.144 -0.1333  0.7851  0.1098
 6364TIP3   OH240582   6.229   6.066  12.928  0.0631 -0.3217  0.1982
 6364TIP3    H140583   6.206   6.146  12.882 -1.6689  0.5003  2.3548
 6364TIP3    H240584   6.318   6.080  12.960 -0.3743  0.9000  0.8856
 6365TIP3   OH240585   6.924   5.261  13.596  0.1766 -0.0963  0.9176
 6365TIP3    H140586   6.964   5.221  13.673  0.2842 -3.5079 -0.8174
 6365TIP3    H240587   6.846   5.304  13.629  1.2568  0.2072  3.2115
 6366TIP3   OH240588   5.880   6.687  12.971  0.2524  0.0131  0.4057
 6366TIP3    H140589   5.950   6.742  12.936 -0.0000 -0.8450 -1.4913
 6366TIP3    H240590   5.918   6.600  12.978 -0.4328 -0.3327 -0.0812
 6367TIP3   OH240591   5.973   5.004  13.353 -0.2825 -0.1188  0.2541
 6367TIP3    H140592   5.965   4.964  13.440  0.0858 -0.6002  0.0701
 6367TIP3    H240593   6.060   5.045  13.354 -0.4945  0.3295  0.3007
 6368TIP3   OH240594   6.201   5.850  12.738  0.7490 -0.0250 -0.4014
 6368TIP3    H140595   6.174   5.937  12.766  0.7562  0.5406 -2.1089
 6368TIP3    H240596   6.293   5.860  12.714  1.2288 -0.9041  1.0404
 6369TIP3   OH240597   0.616   0.264  12.524 -0.4288  0.1019  0.8176
 6369TIP3    H140598   0.579   0.180  12.495 -0.2838 -0.7864  3.1469
 6369TIP3    H240599   0.540   0.321  12.535 -0.9450 -0.9725  3.1660
 6370TIP3   OH240600   5.667   0.220  14.455 -0.2014 -0.7671  0.4326
 6370TIP3    H140601   5.666   0.177  14.369 -1.7396 -0.4470  0.2674
 6370TIP3    H240602   5.595   0.283  14.450  0.6628  0.3095  1.4355
 6371TIP3   OH240603   0.909   6.167  11.382 -0.1210 -0.4894 -0.1510
 6371TIP3    H140604   0.872   6.136  11.300  2.4777 -0.1133 -1.5091
 6371TIP3    H240605   0.907   6.263  11.375 -0.6657 -0.4461  0.5755
 6372TIP3   OH240606   6.261   5.810  12.291 -1.1687 -1.0110 -0.3869
 6372TIP3    H140607   6.299   5.814  12.379  0.8808 -0.1892 -1.2687
 6372TIP3    H240608   6.212   5.892  12.283 -0.0838 -0.3686 -0.5483
 6373TIP3   OH240609   1.444   0.410  13.980  0.2960  0.2639  0.1956
 6373TIP3    H140610   1.416   0.502  13.977  0.3649  0.2388 -1.4696
 6373TIP3    H240611   1.493   0.397  13.899  1.9636 -0.7195  1.3221
 6374TIP3   OH240612   2.765   6.837  13.291 -0.4415  0.3956  0.2681
 6374TIP3    H140613   2.676   6.821  13.324 -0.2096 -0.1525  0.6521
 6374TIP3    H240614   2.753   6.879  13.206 -1.0671  0.4808  0.3987
 6375TIP3   OH240615   0.700   0.038  13.477  0.5086 -0.0127  0.0400
 6375TIP3    H140616   0.718  -0.055  13.491  2.2815 -0.1106 -2.4943
 6375TIP3    H240617   0.607   0.043  13.455 -0.1933 -0.8491  2.7022
 6376TIP3   OH240618   6.049   0.750  14.016  0.4466  0.1252 -0.2352
 6376TIP3    H140619   6.003   0.733  14.099 -1.6472  1.2164 -1.1195
 6376TIP3    H240620   6.091   0.835  14.029 -1.5784  1.2650 -0.9634
 6377TIP3   OH240621   1.091   7.202  13.392  0.4856  0.0510 -0.0493
 6377TIP3    H140622   1.052   7.164  13.470 -1.0166  1.0552 -0.2950
 6377TIP3    H240623   1.017   7.233  13.340  1.4834 -0.0981 -1.6175
 6378TIP3   OH240624   6.216   5.407  15.459 -0.3646  0.5938 -0.5431
 6378TIP3    H140625   6.256   5.323  15.436  0.1461  0.2969  1.3309
 6378TIP3    H240626   6.131   5.406  15.416  0.8502  0.4187 -3.0330
 6379TIP3   OH240627   4.906   7.200  14.302 -0.0482  0.1534  0.8233
 6379TIP3    H140628   4.957   7.265  14.350  0.0460  0.0698  0.8364
 6379TIP3    H240629   4.969   7.155  14.246 -0.4636  1.5123 -0.7699
 6380TIP3   OH240630   0.811   4.245  12.824  0.6799 -0.4261  0.4359
 6380TIP3    H140631   0.893   4.196  12.836  2.3242  2.2312  0.5420
 6380TIP3    H240632   0.784   4.267  12.913  1.9599  1.9963  0.2508
 6381TIP3   OH240633   6.033   4.603  12.187 -0.0939  0.1728 -0.2913
 6381TIP3    H140634   6.090   4.590  12.110  0.5297  0.5935  0.1012
 6381TIP3    H240635   6.092   4.632  12.256 -0.6161 -0.4749  0.4311
 6382TIP3   OH240636   5.335   7.149   0.082  0.2866  0.2458 -0.2335
 6382TIP3    H140637   5.351   7.055   0.096 -0.0735 -0.4292 -3.9961
 6382TIP3    H240638   5.396   7.192   0.142  0.8106 -2.3765  1.1919
 6383TIP3   OH240639   6.789   6.607  11.527 -0.3076 -0.3535 -0.2523
 6383TIP3    H140640   6.767   6.569  11.442  2.1090 -1.1174 -0.5529
 6383TIP3    H240641   6.865   6.663  11.510  1.2583 -1.8063  1.6862
 6384TIP3   OH240642   7.040   3.482  13.048  0.2934  0.6856  0.1122
 6384TIP3    H140643   7.019   3.540  12.975 -0.3429  1.3931  0.8295
 6384TIP3    H240644   6.996   3.400  13.027 -1.6504  1.5477  0.6723
 6385TIP3   OH240645   0.920   7.119  13.600  1.0026  0.1266  0.6082
 6385TIP3    H140646   0.834   7.079  13.589  0.0806  2.2244 -0.0602
 6385TIP3    H240647   0.914   7.167  13.683  0.7581  2.0881 -0.5061
 6386TIP3   OH240648   0.421   3.229  13.264  0.4071 -0.2020 -0.1051
 6386TIP3    H140649   0.353   3.181  13.311  1.2875 -2.5515 -1.1588
 6386TIP3    H240650   0.411   3.202  13.173  0.3525  2.3508 -0.8859
 6387TIP3   OH240651   5.927   2.784  12.804  0.1748  0.2250  0.3161
 6387TIP3    H140652   5.957   2.874  12.793  1.1117 -0.0754  0.3911
 6387TIP3    H240653   6.002   2.730  12.780  0.4095 -0.5275  2.6014
 6388TIP3   OH240654   1.910   5.185  13.461 -0.2243 -0.2806 -0.2858
 6388TIP3    H140655   1.958   5.129  13.522  1.1121  0.4470 -0.6672
 6388TIP3    H240656   1.913   5.272  13.501  1.5427  0.4060 -1.8799
 6389TIP3   OH240657   5.268   6.652  14.000 -0.0717 -0.1945  0.2266
 6389TIP3    H140658   5.254   6.561  14.027  0.6958 -0.0523  1.1383
 6389TIP3    H240659   5.181   6.692  14.008 -0.1750 -0.5548  1.0002
 6390TIP3   OH240660   5.405   6.682  11.443  0.0799  0.2002 -0.2937
 6390TIP3    H140661   5.392   6.776  11.452  0.4460  0.2653 -0.4527
 6390TIP3    H240662   5.463   6.659  11.516 -1.3476 -0.1844  0.7497
 6391TIP3   OH240663   0.515   6.784  10.581  0.3530  0.0909 -0.0860
 6391TIP3    H140664   0.500   6.690  10.567 -0.4256  0.2282 -0.1872
 6391TIP3    H240665   0.560   6.813  10.502 -0.1869 -0.0194 -0.4380
 6392TIP3   OH240666   4.058   0.153  14.405  0.3776 -0.2354 -0.5483
 6392TIP3    H140667   4.034   0.110  14.323  0.5330  0.8415 -1.1645
 6392TIP3    H240668   4.115   0.225  14.379 -0.3345  0.6991  0.4039
 6393TIP3   OH240669   7.013   5.209  12.088 -0.3776  0.2452 -0.4950
 6393TIP3    H140670   6.964   5.194  12.007 -1.3996 -0.8338  0.3086
 6393TIP3    H240671   6.988   5.136  12.145 -1.3596  2.1635  1.5927
 6394TIP3   OH240672   6.465   5.173  12.728 -0.0845  0.5159  0.0039
 6394TIP3    H140673   6.466   5.252  12.782  2.7273  0.2811  0.3870
 6394TIP3    H240674   6.512   5.197  12.649 -0.8110 -0.2625 -0.6749
 6395TIP3   OH240675   6.232   6.755  12.200 -0.2069  0.3728  0.1369
 6395TIP3    H140676   6.327   6.745  12.203 -0.1683  0.5164 -0.6451
 6395TIP3    H240677   6.210   6.791  12.286  0.5119  0.8729  0.1193
 6396TIP3   OH240678   5.658   4.311  13.200  0.2383  0.3670  0.0956
 6396TIP3    H140679   5.731   4.364  13.231  0.0571 -0.3450  1.8036
 6396TIP3    H240680   5.696   4.225  13.183  0.0431  0.3460 -0.2379
 6397TIP3   OH240681   5.830   5.854  14.610 -0.3680  0.1381 -0.2641
 6397TIP3    H140682   5.791   5.773  14.641 -1.7325  1.0191  0.3864
 6397TIP3    H240683   5.920   5.851  14.639  0.0973 -1.9631 -1.8359
 6398TIP3   OH240684   0.196   3.830  12.223  0.8130 -0.0421  0.3844
 6398TIP3    H140685   0.189   3.736  12.207 -1.1251  0.2380 -0.5105
 6398TIP3    H240686   0.155   3.844  12.308  1.0160  0.0247  0.4741
 6399TIP3   OH240687   5.679   2.234  12.625 -0.2160 -0.1255 -0.3605
 6399TIP3    H140688   5.752   2.289  12.654 -0.0228 -0.2547 -0.5920
 6399TIP3    H240689   5.613   2.295  12.593  0.4575 -0.0600 -1.6720
 6400TIP3   OH240690   5.413   6.110  10.199  0.0568  0.4636 -0.0029
 6400TIP3    H140691   5.452   6.063  10.125  0.6821  0.8324  0.0909
 6400TIP3    H240692   5.326   6.136  10.167 -0.0778 -0.2691 -0.2478
 6401TIP3   OH240693   7.271   0.745  12.688  0.1960 -0.2164  0.5596
 6401TIP3    H140694   7.241   0.767  12.776  0.7374 -1.3495  1.0401
 6401TIP3    H240695   7.328   0.818  12.663 -1.7904  1.2677  0.1896
 6402TIP3   OH240696   0.869   0.164  13.673  0.4029  0.0609 -0.0619
 6402TIP3    H140697   0.818   0.117  13.607 -0.8881  0.8884  0.3360
 6402TIP3    H240698   0.869   0.106  13.749  2.2623 -1.0907 -0.8999
 6403TIP3   OH240699   6.449   1.023  12.531 -0.2057  0.0752  0.7419
 6403TIP3    H140700   6.468   1.005  12.439  0.4312  0.7355  0.7416
 6403TIP3    H240701   6.532   1.007  12.576 -0.4894 -0.1534  1.1909
 6404TIP3   OH240702   5.853   4.109  11.744 -0.2818 -0.1067 -0.0945
 6404TIP3    H140703   5.805   4.057  11.680 -0.6687 -0.6003  0.5859
 6404TIP3    H240704   5.786   4.163  11.786  0.0279  0.4888 -0.3706
 6405TIP3   OH240705   5.274   6.745  12.396  0.1972 -0.2156  0.0318
 6405TIP3    H140706   5.202   6.759  12.458  1.6735  0.4294  1.6104
 6405TIP3    H240707   5.232   6.754  12.310 -1.1914  2.5618  0.9082
 6406TIP3   OH240708   0.831   5.905  13.044  0.6702 -0.1441 -0.2410
 6406TIP3    H140709   0.868   5.986  13.080  3.0090 -1.1072 -0.3771
 6406TIP3    H240710   0.813   5.926  12.952 -2.3860  1.3673  0.6463
 6407TIP3   OH240711   6.989   5.290  13.142  0.3685 -0.3781 -0.0381
 6407TIP3    H140712   7.038   5.346  13.203 -2.5093  1.8837  0.3074
 6407TIP3    H240713   6.991   5.339  13.060  0.5392 -1.3289 -0.6031
 6408TIP3   OH240714   5.687   0.187  12.256 -0.1331  0.1412  1.1080
 6408TIP3    H140715   5.749   0.151  12.319  0.6640  0.1037  0.3076
 6408TIP3    H240716   5.606   0.198  12.306  0.2460 -0.6840  1.9221
 6409TIP3   OH240717   6.595   6.953  15.859  0.1197  0.0283  0.8149
 6409TIP3    H140718   6.664   6.912  15.807  0.7382  1.9276  0.0756
 6409TIP3    H240719   6.556   6.881  15.908  3.7935 -0.8921  2.6061
 6410TIP3   OH240720   6.464   4.663  10.340 -0.0854 -0.0922 -0.7041
 6410TIP3    H140721   6.538   4.686  10.396  0.3551  1.6082 -1.9484
 6410TIP3    H240722   6.431   4.582  10.377  2.5505 -1.0257 -0.2570
 6411TIP3   OH240723   4.650   6.666  14.688  0.1394  0.8033 -0.0519
 6411TIP3    H140724   4.640   6.702  14.776 -0.7513  0.3161  0.0482
 6411TIP3    H240725   4.741   6.684  14.665  0.9339 -0.8225  1.7487
 6412TIP3   OH240726   6.235   1.309  10.590  0.2161  0.1287 -0.5647
 6412TIP3    H140727   6.309   1.309  10.529  0.9734  0.6555  0.3450
 6412TIP3    H240728   6.219   1.216  10.608  1.0880  0.0410 -0.2425
 6413TIP3   OH240729   1.106   0.473  14.070  0.0131 -0.3918 -0.4935
 6413TIP3    H140730   1.035   0.409  14.075 -0.0017 -0.5077 -1.9515
 6413TIP3    H240731   1.084   0.527  13.994  0.2969  1.0209  0.4212
 6414TIP3   OH240732   3.893   0.983  12.988  0.1970  0.0333  0.4355
 6414TIP3    H140733   3.862   0.898  13.022 -0.7195 -0.0185 -0.4863
 6414TIP3    H240734   3.895   0.971  12.893 -2.0384  1.7009  0.1304
 6415TIP3   OH240735   7.254   5.457  12.821 -0.3910 -0.1774 -0.1462
 6415TIP3    H140736   7.299   5.388  12.871 -0.8300 -0.6931 -0.4510
 6415TIP3    H240737   7.295   5.454  12.734  0.4362  0.7824  0.2104
 6416TIP3   OH240738   5.036   5.141  15.247 -0.3925  0.2086  0.3044
 6416TIP3    H140739   5.027   5.096  15.331 -0.9977 -0.9431 -0.3723
 6416TIP3    H240740   5.057   5.231  15.270 -2.1434  0.2646  1.7266
 6417TIP3   OH240741   6.646   4.549  11.449  0.3315  0.2014 -0.0878
 6417TIP3    H140742   6.712   4.617  11.433  0.7902 -0.4470 -1.0281
 6417TIP3    H240743   6.697   4.475  11.482  0.0658 -0.2519 -0.6849
 6418TIP3   OH240744   6.382   6.098  11.939 -0.1710 -0.0512  0.0034
 6418TIP3    H140745   6.394   6.132  12.028  0.5781  1.6711 -0.7306
 6418TIP3    H240746   6.289   6.077  11.934 -0.0177 -1.1484  1.5349
 6419TIP3   OH240747   6.827   6.177  12.567  0.7093  0.3292  0.0955
 6419TIP3    H140748   6.794   6.135  12.646 -0.4672 -1.1646 -1.1265
 6419TIP3    H240749   6.922   6.176  12.576  0.5736  0.4443  1.6113
 6420TIP3   OH240750   0.365   4.866  12.281  0.0993 -0.0316 -0.1026
 6420TIP3    H140751   0.408   4.796  12.329  0.9761 -0.4324 -1.4359
 6420TIP3    H240752   0.433   4.932  12.267  0.2696 -0.5746 -2.0454
 6421TIP3   OH240753   4.801   6.825  13.609 -0.5903 -0.7135  1.0649
 6421TIP3    H140754   4.722   6.844  13.659 -0.2151  1.2039  0.9588
 6421TIP3    H240755   4.869   6.812  13.676 -0.3228  0.7842  1.0994
 6422TIP3   OH240756   7.117   4.034  13.121 -0.1322  0.2187  0.2688
 6422TIP3    H140757   7.097   4.125  13.101  0.1230  0.1725 -0.1947
 6422TIP3    H240758   7.152   3.998  13.040  0.7565 -0.0051  0.7456
 6423TIP3   OH240759   6.847   0.202  13.289  0.1067 -0.3399  0.3911
 6423TIP3    H140760   6.759   0.232  13.268 -0.1664 -1.0250  0.5099
 6423TIP3    H240761   6.889   0.187  13.204  1.5814  4.0059  0.2322
 6424TIP3   OH240762   6.667   5.943  11.987 -0.2985  0.1671  0.2787
 6424TIP3    H140763   6.663   6.036  12.007 -0.9912  0.6718 -2.0655
 6424TIP3    H240764   6.759   5.919  12.001 -0.4710  0.7479  2.6425
 6425TIP3   OH240765   0.208   1.721  15.260 -0.2141 -0.4864  0.1288
 6425TIP3    H140766   0.142   1.749  15.324  2.1622 -2.3860  3.6100
 6425TIP3    H240767   0.278   1.786  15.267 -0.9171  0.5846 -2.3105
 6426TIP3   OH240768   6.765   0.033  15.019 -0.3523  0.8090 -0.6474
 6426TIP3    H140769   6.714   0.092  15.074 -0.7922 -0.4433  0.3181
 6426TIP3    H240770   6.704   0.004  14.951 -1.3957 -1.7835  1.3179
 6427TIP3   OH240771   5.272   0.006  13.996 -0.6493 -0.2753  0.4945
 6427TIP3    H140772   5.274   0.043  13.907 -0.5289  0.5082  0.8174
 6427TIP3    H240773   5.227   0.072  14.048 -3.6050 -2.1388  0.4093
 6428TIP3   OH240774   0.427   4.242  13.459 -0.1783 -0.1332  0.5571
 6428TIP3    H140775   0.360   4.304  13.489  1.0646  1.8364 -0.6444
 6428TIP3    H240776   0.483   4.228  13.535 -1.9015 -1.8116  1.5803
 6429TIP3   OH240777   4.638   6.241  12.870 -0.1346  0.2305 -0.2718
 6429TIP3    H140778   4.686   6.190  12.805  1.9718 -1.5519  2.5651
 6429TIP3    H240779   4.572   6.180  12.904  1.7733 -0.4462  2.4480
 6430TIP3   OH240780   6.210   5.191  14.191 -0.0537 -0.0323  0.1863
 6430TIP3    H140781   6.295   5.193  14.235  0.5792  0.1674 -1.0237
 6430TIP3    H240782   6.147   5.215  14.259  0.7472 -1.0617  1.3216
 6431TIP3   OH240783   4.373   5.778  12.991  0.2050  0.3545  0.2185
 6431TIP3    H140784   4.295   5.831  12.976 -0.0437 -0.0668 -0.0131
 6431TIP3    H240785   4.346   5.689  12.968  0.5613  0.0987  0.7742
 6432TIP3   OH240786   5.996   4.882  13.977 -0.6612 -0.1266 -0.2706
 6432TIP3    H140787   5.961   4.831  14.050 -0.1769  1.1369  0.8766
 6432TIP3    H240788   5.995   4.973  14.009  1.2501  0.2259 -1.1507
 6433TIP3   OH240789   6.702   6.864  12.147  0.5614  0.1257  0.0614
 6433TIP3    H140790   6.698   6.943  12.093 -0.8414  0.0131 -0.0180
 6433TIP3    H240791   6.733   6.895  12.232  1.0928  0.5833 -0.2948
 6434TIP3   OH240792   2.566   7.077  10.833 -0.0583 -0.5895 -0.1207
 6434TIP3    H140793   2.552   7.054  10.741 -0.1305 -2.1991  0.2768
 6434TIP3    H240794   2.504   7.022  10.881  0.7434 -0.5584  0.9609
 6435TIP3   OH240795   5.764   0.026  14.621 -0.6643  0.6133 -0.4161
 6435TIP3    H140796   5.731   0.105  14.578 -0.0772  0.8553 -0.4330
 6435TIP3    H240797   5.722   0.025  14.706  1.6575  2.6243  0.8192
 6436TIP3   OH240798   6.623   7.163  14.837 -0.0365 -0.2028  0.4614
 6436TIP3    H140799   6.608   7.096  14.904  1.4700 -1.9738 -0.9009
 6436TIP3    H240800   6.701   7.133  14.791 -0.9374  1.0631 -1.9756
 6437TIP3   OH240801   0.908   6.789  12.292  0.3662 -0.2289 -0.2284
 6437TIP3    H140802   0.884   6.752  12.377 -0.9529  1.1415  0.0259
 6437TIP3    H240803   0.835   6.767  12.235  0.1349  0.9148 -0.3808
 6438TIP3   OH240804   6.946   6.461  14.012  0.3337  0.3807 -0.5918
 6438TIP3    H140805   6.979   6.371  14.016 -1.0680 -0.1061  0.1084
 6438TIP3    H240806   7.018   6.510  13.972  0.3952 -1.3911 -2.7967
 6439TIP3   OH240807   5.842   6.930  14.166  0.2838  0.2008  0.0101
 6439TIP3    H140808   5.861   6.838  14.152 -0.4548 -0.2211  1.6899
 6439TIP3    H240809   5.751   6.940  14.137 -0.9625 -0.4878  3.5283
 6440TIP3   OH240810   0.242   6.001  13.805  0.5382  0.4937 -0.4446
 6440TIP3    H140811   0.274   6.079  13.759 -0.0511  0.5686 -0.7340
 6440TIP3    H240812   0.198   6.036  13.883  1.1249  0.3934 -0.0676
 6441TIP3   OH240813   1.801   5.855  13.126  0.1642  0.0054 -0.2565
 6441TIP3    H140814   1.801   5.762  13.106  1.6100 -0.1361  0.3464
 6441TIP3    H240815   1.708   5.877  13.138 -0.1788 -1.3546 -0.3284
 6442TIP3   OH240816   6.778   6.167  12.150 -0.0642  0.7456  0.2034
 6442TIP3    H140817   6.689   6.143  12.176  1.0816 -1.6343  2.1513
 6442TIP3    H240818   6.787   6.258  12.177 -1.7656  0.8900  0.3710
 6443TIP3   OH240819   0.873   6.417  11.267  0.2494  0.1286 -0.2756
 6443TIP3    H140820   0.846   6.484  11.330 -0.8704 -0.9159  0.3608
 6443TIP3    H240821   0.931   6.464  11.207  1.0450  1.2134  1.3117
 6444TIP3   OH240822   2.080   0.249  11.681 -0.1314 -0.0015  0.3002
 6444TIP3    H140823   2.150   0.184  11.675 -0.1243  0.1041 -0.8053
 6444TIP3    H240824   2.122   0.331  11.655 -0.8892 -0.1021 -1.2789
 6445TIP3   OH240825   0.349   6.413  13.138  0.3801  0.6414  0.1209
 6445TIP3    H140826   0.360   6.351  13.065 -0.8225  0.4609  0.0791
 6445TIP3    H240827   0.317   6.493  13.097 -1.5249  0.1455  0.5650
 6446TIP3   OH240828   6.954   2.683  13.883 -0.6577  0.5880 -0.1522
 6446TIP3    H140829   6.904   2.719  13.810 -0.2721  0.0535 -0.6925
 6446TIP3    H240830   7.044   2.679  13.851 -0.9121 -2.1909 -0.6614
 6447TIP3   OH240831   5.150   4.458  12.833 -0.8137 -0.0406  0.5838
 6447TIP3    H140832   5.176   4.416  12.915  1.3691 -0.2496 -0.1603
 6447TIP3    H240833   5.095   4.394  12.790 -0.4509 -0.6898  1.0724
 6448TIP3   OH240834   6.308   6.741  13.491 -0.4598 -0.3351 -0.1985
 6448TIP3    H140835   6.329   6.669  13.432  0.5700  0.2420 -0.5626
 6448TIP3    H240836   6.250   6.703  13.557 -1.1426 -1.1309 -1.2437
 6449TIP3   OH240837   4.696   0.423  14.418 -0.1197  0.1800 -0.5085
 6449TIP3    H140838   4.755   0.397  14.488  0.1656 -0.6852 -1.0617
 6449TIP3    H240839   4.696   0.519  14.420  1.0839  0.1788 -0.3323
 6450TIP3   OH240840   0.958   5.403  13.284 -0.0534 -0.3585 -0.1834
 6450TIP3    H140841   0.932   5.495  13.283 -0.1770 -0.3944 -0.3278
 6450TIP3    H240842   1.018   5.394  13.210 -1.3825 -0.7767 -1.2365
 6451TIP3   OH240843   5.966   6.093  13.973  0.4838 -0.1094  0.2694
 6451TIP3    H140844   6.040   6.049  13.933 -0.5278 -1.4442 -0.1729
 6451TIP3    H240845   5.948   6.044  14.053  0.6855  0.8019  0.8815
 6452TIP3   OH240846   7.337   0.206  14.587 -0.4903 -0.3043 -0.4147
 6452TIP3    H140847   7.339   0.284  14.643 -0.7245  0.4687 -1.4518
 6452TIP3    H240848   7.300   0.238  14.504  0.9036 -1.1566 -1.3880
 6453TIP3   OH240849   2.708   6.740  14.747 -0.2599 -0.3633  0.2950
 6453TIP3    H140850   2.757   6.822  14.755 -1.2029  0.1526  0.8451
 6453TIP3    H240851   2.634   6.751  14.805  0.9741 -2.6557  2.3849
 6454TIP3   OH240852   6.737   7.036  13.484 -0.2014 -0.6422  0.2795
 6454TIP3    H140853   6.687   6.957  13.503 -1.0036 -0.5202 -1.2873
 6454TIP3    H240854   6.741   7.041  13.389 -0.4057  1.3433  0.3465
 6455TIP3   OH240855   5.499   6.742  12.090 -0.0289 -0.1941 -0.2743
 6455TIP3    H140856   5.540   6.657  12.103  0.3128  0.1452  0.9554
 6455TIP3    H240857   5.560   6.790  12.035  0.6970 -0.0903  0.6041
 6456TIP3   OH240858   0.028   5.921  10.908 -0.2460  0.1872  0.3117
 6456TIP3    H140859   0.096   5.948  10.970  0.4145 -0.3139 -0.1718
 6456TIP3    H240860  -0.052   5.963  10.939  0.5865  2.0456  0.0050
 6457TIP3   OH240861   0.570   5.331  11.734  0.2606  0.1131  0.3476
 6457TIP3    H140862   0.648   5.360  11.688  0.0054 -1.4789 -1.1332
 6457TIP3    H240863   0.524   5.412  11.757  1.9119  1.0222  0.5172
 6458TIP3   OH240864   4.891   2.974  14.452 -1.1910 -0.0774 -0.0644
 6458TIP3    H140865   4.946   2.968  14.374  1.0684 -1.1302  1.5569
 6458TIP3    H240866   4.883   3.068  14.467 -1.0720  0.1191 -1.1635
 6459TIP3   OH240867   5.660   6.055  11.817  0.0749  0.1060  0.4304
 6459TIP3    H140868   5.594   5.991  11.790  0.7955 -0.2260 -0.5791
 6459TIP3    H240869   5.609   6.126  11.856 -0.9089  0.0578 -0.7378
 6460TIP3   OH240870   7.030   0.891  14.114  0.4297 -0.3405  0.0728
 6460TIP3    H140871   7.014   0.802  14.085  0.0392 -0.9036  1.9847
 6460TIP3    H240872   7.114   0.914  14.074 -0.5077 -0.7432 -2.2346
 6461TIP3   OH240873   6.611   5.731  12.251  0.4360  0.1560  0.0621
 6461TIP3    H140874   6.627   5.779  12.332  0.0358 -0.5319  0.5538
 6461TIP3    H240875   6.609   5.639  12.278 -1.1482  0.0213 -0.4858
 6462TIP3   OH240876   1.422   5.281  12.608  0.1201  0.3495 -0.2794
 6462TIP3    H140877   1.442   5.209  12.668  1.6302  0.7750 -0.2531
 6462TIP3    H240878   1.391   5.238  12.528 -0.6770 -0.2588  0.3516
 6463TIP3   OH240879   0.127   4.905  13.331 -0.4138 -0.0415  0.0436
 6463TIP3    H140880   0.106   4.894  13.423 -2.8010  0.7068 -0.3864
 6463TIP3    H240881   0.139   4.816  13.298  0.0754 -0.3273  0.9804
 6464TIP3   OH240882   1.092   7.258  12.712  0.7756  0.3181 -0.1496
 6464TIP3    H140883   1.059   7.296  12.631  1.8295  0.3919 -0.5457
 6464TIP3    H240884   1.151   7.324  12.748  1.0679 -0.1228  0.1836
 6465TIP3   OH240885   7.315   4.281  11.332  0.4268  0.1504 -0.1439
 6465TIP3    H140886   7.388   4.342  11.344 -0.4571  1.0797  0.6510
 6465TIP3    H240887   7.331   4.211  11.396 -0.0895  1.0659  1.0219
 6466TIP3   OH240888   7.056   5.271  13.852 -0.0128 -0.0882 -0.1928
 6466TIP3    H140889   7.133   5.215  13.857 -0.5127 -0.9142 -1.4368
 6466TIP3    H240890   7.091   5.360  13.843  0.7873 -0.3148  0.6565
 6467TIP3   OH240891   5.622   1.940  12.787 -0.5708 -0.0020  0.5820
 6467TIP3    H140892   5.626   1.997  12.710 -2.4011  1.0918  1.2867
 6467TIP3    H240893   5.530   1.935  12.810 -0.6400 -4.2962 -0.1897
 6468TIP3   OH240894   5.835   0.370  13.042  0.4665  0.2148 -0.1508
 6468TIP3    H140895   5.784   0.298  13.005 -0.2154  0.7780 -0.3082
 6468TIP3    H240896   5.926   0.341  13.034  0.2736 -0.0701 -1.4108
 6469TIP3   OH240897   6.404   0.802  13.123 -0.1832 -0.3102  0.1430
 6469TIP3    H140898   6.437   0.872  13.180 -0.3003 -2.8857  3.5331
 6469TIP3    H240899   6.450   0.814  13.040  1.6831  2.2334  1.4815
 6470TIP3   OH240900   0.349   0.570  14.195  0.1045  0.1441 -0.2915
 6470TIP3    H140901   0.382   0.499  14.251  1.6808  0.9533 -0.1678
 6470TIP3    H240902   0.329   0.641  14.255  1.0336  0.7305 -0.6669
 6471TIP3   OH240903   7.054   6.413   0.749  0.1074 -0.5661 -0.1863
 6471TIP3    H140904   6.988   6.466   0.705  0.2177 -0.8595 -0.7112
 6471TIP3    H240905   7.137   6.454   0.726  0.1374 -0.4413  0.1361
 6472TIP3   OH240906   0.395   2.418  13.994 -0.2003 -0.1108  0.4080
 6472TIP3    H140907   0.422   2.459  14.076 -2.4601  0.7778  0.7322
 6472TIP3    H240908   0.329   2.354  14.020 -0.3346 -0.4046 -0.6383
 6473TIP3   OH240909   2.134   0.914  14.803 -0.2826 -0.3083 -0.1320
 6473TIP3    H140910   2.094   0.936  14.719 -0.2088 -0.2783 -0.1592
 6473TIP3    H240911   2.122   0.819  14.810  2.7731 -0.9054 -1.8037
 6474TIP3   OH240912   3.088   2.161  14.814 -0.1583  0.5621  0.3133
 6474TIP3    H140913   3.074   2.195  14.902 -0.5406 -0.7195  0.7530
 6474TIP3    H240914   3.001   2.165  14.772  0.2145  2.1008 -0.3508
 6475TIP3   OH240915   1.809   1.437  13.331  0.0073 -0.4955  0.0444
 6475TIP3    H140916   1.802   1.426  13.426  2.4498  0.6448  0.3925
 6475TIP3    H240917   1.778   1.354  13.295 -2.6317 -0.3131  1.7450
 6476TIP3   OH240918   0.248   0.567  12.869  0.2364  0.5216  0.7692
 6476TIP3    H140919   0.291   0.520  12.941  1.1102 -0.1366 -0.1652
 6476TIP3    H240920   0.225   0.498  12.807  0.5878  1.2275 -0.1413
 6477TIP3   OH240921   1.220   0.060   1.366  0.3464 -0.6424 -0.4495
 6477TIP3    H140922   1.157   0.092   1.431 -0.7027  2.0964 -2.6738
 6477TIP3    H240923   1.305   0.087   1.400 -0.3310  2.4120 -1.0091
 6478TIP3   OH240924   0.873   0.814  15.170 -0.5409  0.1179  0.2811
 6478TIP3    H140925   0.794   0.805  15.118 -1.4180  1.6439  1.2999
 6478TIP3    H240926   0.854   0.766  15.251  0.3438 -1.1769 -0.2457
 6479TIP3   OH240927   2.401   0.230  15.077 -0.3710 -0.3356 -0.2296
 6479TIP3    H140928   2.343   0.185  15.139 -1.0635 -0.0196 -0.6460
 6479TIP3    H240929   2.412   0.168  15.005  0.0635 -0.5174 -0.0123
 6480TIP3   OH240930   1.998   0.729   0.987  0.2157  0.1057 -0.1314
 6480TIP3    H140931   1.921   0.742   1.042 -0.4466 -0.0513 -1.0178
 6480TIP3    H240932   2.017   0.817   0.952  0.1000  0.0428 -0.3552
 6481TIP3   OH240933   1.642   0.801  15.994  0.1942 -0.4377 -0.0960
 6481TIP3    H140934   1.614   0.758  15.913  0.3653 -1.6977  0.4984
 6481TIP3    H240935   1.578   0.871  16.008 -1.8933 -2.4321  0.5397
 6482TIP3   OH240936   1.161   3.258   1.067  0.2935  0.2499 -0.3673
 6482TIP3    H140937   1.230   3.318   1.095 -0.5924  0.9680  0.3426
 6482TIP3    H240938   1.096   3.263   1.137  0.4120 -1.8967 -0.0871
 6483TIP3   OH240939   0.998   1.585  11.895 -0.1306 -0.3916 -0.5526
 6483TIP3    H140940   0.939   1.523  11.854  0.8175 -1.5252 -0.2422
 6483TIP3    H240941   1.068   1.598  11.831 -0.1655  0.1180 -0.4918
 6484TIP3   OH240942   4.537   0.268  15.500  0.1007 -0.7493 -0.1116
 6484TIP3    H140943   4.490   0.298  15.578 -0.8075 -0.6336 -0.6915
 6484TIP3    H240944   4.533   0.172  15.505 -0.0949 -0.7407 -0.0988
 6485TIP3   OH240945   3.925   5.310  15.391  0.8378  0.2798  0.8078
 6485TIP3    H140946   3.833   5.326  15.370  1.2134  3.2265  1.1024
 6485TIP3    H240947   3.925   5.225  15.435 -1.6815 -0.0022  0.3511
 6486TIP3   OH240948   1.551   0.064  15.360  0.0892 -0.6859  0.1191
 6486TIP3    H140949   1.614   0.121  15.315 -0.1773 -0.1857  0.3771
 6486TIP3    H240950   1.576  -0.025  15.333  1.2695 -0.5375  0.6520
 6487TIP3   OH240951   2.153   0.401  15.342 -0.4083 -0.5450  0.0381
 6487TIP3    H140952   2.189   0.394  15.431 -0.4281 -1.7276 -0.0337
 6487TIP3    H240953   2.067   0.359  15.348 -0.1904 -1.1074 -0.6550
 6488TIP3   OH240954   3.637   1.025   1.626  0.5087 -0.4114  0.6926
 6488TIP3    H140955   3.634   1.064   1.538 -0.1663 -0.3966  0.7147
 6488TIP3    H240956   3.652   1.099   1.685 -1.1085 -0.1145  0.7643
 6489TIP3   OH240957   0.436   6.211  12.947 -0.7291 -0.2500 -0.1525
 6489TIP3    H140958   0.408   6.191  12.857 -1.1690  0.0993 -0.0899
 6489TIP3    H240959   0.511   6.270  12.936  0.1710 -1.4031 -0.3277
 6490TIP3   OH240960   6.466   6.955  14.373  0.7360 -0.6597  0.0169
 6490TIP3    H140961   6.516   7.019  14.321  1.7994 -1.8186 -0.4007
 6490TIP3    H240962   6.404   7.009  14.423  2.3948  0.8130  0.5585
 6491TIP3   OH240963   6.466   0.504  13.432 -0.1110  0.2637  0.1819
 6491TIP3    H140964   6.495   0.534  13.346 -0.4149  0.3722  0.1157
 6491TIP3    H240965   6.543   0.515  13.488 -0.0129  0.5197  0.0009
 6492TIP3   OH240966   6.487   1.930  12.064 -0.0599 -0.2995 -0.2079
 6492TIP3    H140967   6.465   1.839  12.044 -1.4241 -0.2083  0.8080
 6492TIP3    H240968   6.432   1.952  12.139 -0.8469  1.8168 -1.3428
 6493TIP3   OH240969   1.150   1.620  15.334  0.2308 -0.0202  0.4700
 6493TIP3    H140970   1.068   1.577  15.357  1.3795 -2.5775 -0.0785
 6493TIP3    H240971   1.212   1.588  15.399  1.1880  0.5642 -0.1459
 6494TIP3   OH240972   6.488   7.236  13.694 -0.0370  0.0298 -0.4765
 6494TIP3    H140973   6.543   7.265  13.621  1.5559  1.6321  1.2912
 6494TIP3    H240974   6.452   7.317  13.731  0.7505 -0.5569  1.7016
 6495TIP3   OH240975   7.183   6.936  13.575  0.2095  0.2835  0.2593
 6495TIP3    H140976   7.209   6.849  13.606  2.7686  1.2475  0.9948
 6495TIP3    H240977   7.140   6.976  13.651 -1.3942 -0.4690 -0.2240
 6496TIP3   OH240978   1.617   2.764  12.488 -0.0923 -0.0469  0.2583
 6496TIP3    H140979   1.614   2.747  12.394 -2.5802  0.6536  0.1838
 6496TIP3    H240980   1.657   2.686  12.525  1.5493 -0.0498 -1.4202
 6497TIP3   OH240981   6.148   2.544  15.807 -0.0743 -0.5743  0.7405
 6497TIP3    H140982   6.076   2.567  15.749  0.9897 -2.4077 -1.3865
 6497TIP3    H240983   6.107   2.522  15.890 -1.7620  0.4328  0.1912
 6498TIP3   OH240984   2.028   1.648   1.156  0.1351 -0.6108  0.7066
 6498TIP3    H140985   1.965   1.584   1.188  2.6637 -3.6544 -0.1573
 6498TIP3    H240986   2.111   1.624   1.197  1.3906  1.4675 -0.4922
 6499TIP3   OH240987   1.128   6.254  15.044 -0.6317 -0.0116 -0.3612
 6499TIP3    H140988   1.171   6.206  15.115 -1.5567 -0.4727 -0.0988
 6499TIP3    H240989   1.184   6.330  15.029 -0.0103 -0.3235  0.3313
 6500TIP3   OH240990   3.750   0.444  15.854  0.0978  0.1869  0.2146
 6500TIP3    H140991   3.798   0.368  15.825  2.5090  2.1956 -1.2366
 6500TIP3    H240992   3.804   0.481  15.925 -0.4675  1.1675  0.1453
 6501TIP3   OH240993   3.972   2.726  14.726 -0.0180 -0.3042  0.6236
 6501TIP3    H140994   4.027   2.655  14.759  0.1915 -0.3316  0.2233
 6501TIP3    H240995   3.896   2.682  14.687  1.0619 -0.4204 -1.4030
 6502TIP3   OH240996   0.302   6.857  15.039 -0.5078  0.4150 -0.0496
 6502TIP3    H140997   0.333   6.872  14.950  0.6972  0.2216  0.3338
 6502TIP3    H240998   0.224   6.802  15.028  0.7804 -1.3016 -0.8748
 6503TIP3   OH240999   0.972   5.778  15.913 -0.5910  0.6076  0.0054
 6503TIP3    H141000   1.049   5.765  15.857 -1.0331  2.1389 -0.9592
 6503TIP3    H241001   1.008   5.785  16.001 -0.0467 -4.0508  0.2889
 6504TIP3   OH241002   7.160   2.467   0.523  0.6318  0.3756  0.3738
 6504TIP3    H141003   7.221   2.420   0.466  0.4225 -0.1245  0.5544
 6504TIP3    H241004   7.182   2.436   0.611  0.6941  0.8499  0.5287
 6505TIP3   OH241005   0.285   0.765  13.912 -0.3844 -0.6210 -0.7597
 6505TIP3    H141006   0.229   0.706  13.962 -0.0577  0.8035  1.3491
 6505TIP3    H241007   0.348   0.707  13.869 -1.1003 -1.9381 -0.0700
 6506TIP3   OH241008   0.889   0.931  14.319 -0.1628 -0.0693 -0.2655
 6506TIP3    H141009   0.931   0.899  14.399 -0.8888 -0.1131  0.1026
 6506TIP3    H241010   0.830   1.000  14.349  0.0703  0.3941 -0.8497
 6507TIP3   OH241011   1.089   0.637   0.546 -0.2551  0.0577 -0.0534
 6507TIP3    H141012   1.099   0.564   0.484  2.3294  0.4708 -0.1875
 6507TIP3    H241013   1.044   0.705   0.497 -1.0979 -0.7880 -0.4739
 6508TIP3   OH241014   1.356   1.410   0.119 -0.5225 -0.2084  0.3474
 6508TIP3    H141015   1.271   1.383   0.155 -0.1266 -0.4132  1.1385
 6508TIP3    H241016   1.413   1.416   0.195  0.5914 -1.6142 -0.3521
 6509TIP3   OH241017   2.288   0.889  14.401  0.5079 -0.4669  0.4605
 6509TIP3    H141018   2.275   0.957  14.467 -2.6651 -1.1818  0.6607
 6509TIP3    H241019   2.361   0.836  14.434  0.9301  0.9661  1.8522
 6510TIP3   OH241020   0.599   2.204  12.672 -0.5528 -0.0329 -0.7084
 6510TIP3    H141021   0.554   2.164  12.597 -0.3572 -0.1440 -0.7669
 6510TIP3    H241022   0.649   2.132  12.710 -0.8259 -0.0282 -0.3382
 6511TIP3   OH241023   2.135   2.130   0.664  0.1293 -0.4913 -0.0983
 6511TIP3    H141024   2.046   2.125   0.697 -0.2748  0.0771 -1.0808
 6511TIP3    H241025   2.147   2.050   0.612  0.9569 -1.6647  1.8551
 6512TIP3   OH241026   0.283   7.201  13.668  0.0481  0.1895  0.0712
 6512TIP3    H141027   0.201   7.153  13.663  0.1513 -0.0895  0.9582
 6512TIP3    H241028   0.289   7.228  13.760 -0.0078  1.8823 -0.3985
 6513TIP3   OH241029   6.789   0.198  13.720  0.7096  0.0544  0.5836
 6513TIP3    H141030   6.827   0.256  13.652 -0.3889 -0.1378 -0.2092
 6513TIP3    H241031   6.723   0.253  13.763 -1.9361 -1.2212 -1.6544
 6514TIP3   OH241032   1.394   2.339  13.284 -0.2505  0.2975  1.3633
 6514TIP3    H141033   1.489   2.338  13.285 -0.1855  0.9482 -1.0994
 6514TIP3    H241034   1.369   2.250  13.257 -0.3486  0.1106  2.0608
 6515TIP3   OH241035   1.567   6.969  15.400 -0.1021  0.6881 -0.0085
 6515TIP3    H141036   1.486   7.020  15.400 -0.7283 -0.3016  0.2823
 6515TIP3    H241037   1.538   6.878  15.408  0.9099  0.1328 -2.3951
 6516TIP3   OH241038   6.330   0.997  15.806 -0.4869  0.1220  0.2022
 6516TIP3    H141039   6.315   1.007  15.900  0.6179  0.9718  0.2963
 6516TIP3    H241040   6.392   0.925  15.799 -0.8392 -0.1734  0.1004
 6517TIP3   OH241041   0.354   2.671  15.155  0.9146 -0.6939  0.1772
 6517TIP3    H141042   0.366   2.748  15.101 -1.8517 -1.2419 -1.2802
 6517TIP3    H241043   0.379   2.699  15.243  0.6548  1.6386 -0.4649
 6518TIP3   OH241044   1.091   1.199   0.437 -0.1351  0.1015  1.4689
 6518TIP3    H141045   1.157   1.161   0.379 -2.4526  1.0185 -1.9195
 6518TIP3    H241046   1.136   1.208   0.522  3.3904 -1.2089 -0.1493
 6519TIP3   OH241047   2.247   1.599   1.277  0.1236  0.0522  0.1505
 6519TIP3    H141048   2.301   1.524   1.251  2.1132  0.9300  1.5892
 6519TIP3    H241049   2.271   1.616   1.368 -1.8881  1.1083  0.5134
 6520TIP3   OH241050   1.126   1.919  15.346 -0.7655  0.3715 -0.1515
 6520TIP3    H141051   1.033   1.940  15.356 -1.1205 -1.9826  2.1966
 6520TIP3    H241052   1.128   1.823  15.339  1.2848  0.5913 -3.1269
 6521TIP3   OH241053   2.683   1.474   0.545  0.6553  0.0174  0.2944
 6521TIP3    H141054   2.616   1.503   0.608  0.9815  0.1965  0.5572
 6521TIP3    H241055   2.632   1.442   0.470  0.2947  1.2712 -0.0046
 6522TIP3   OH241056   3.165   3.126  13.944  0.0311 -0.6127 -0.1105
 6522TIP3    H141057   3.225   3.171  14.002 -1.8920 -0.1392  1.5805
 6522TIP3    H241058   3.154   3.185  13.869 -0.0237  0.2827  0.5995
 6523TIP3   OH241059   1.865   0.815  14.474 -0.4302  0.0932 -0.5320
 6523TIP3    H141060   1.886   0.724  14.451 -0.3065  0.3132 -1.3006
 6523TIP3    H241061   1.773   0.812  14.501 -0.0541 -0.4844  0.6943
 6524TIP3   OH241062   0.553   0.093   1.143  0.6520  0.0214  0.2803
 6524TIP3    H141063   0.529   0.001   1.149  0.8471 -0.1556 -1.2882
 6524TIP3    H241064   0.635   0.100   1.191 -1.6850  0.3334  4.4212
 6525TIP3   OH241065   0.622   2.359  14.552 -0.4718 -0.5050 -0.0052
 6525TIP3    H141066   0.551   2.303  14.521  0.0992 -0.8789 -0.6621
 6525TIP3    H241067   0.672   2.303  14.612 -0.4176 -0.4171  0.0333
 6526TIP3   OH241068   1.370   6.324   1.832 -0.1939 -0.1610  0.2184
 6526TIP3    H141069   1.438   6.384   1.865 -0.0638 -0.5762  0.7009
 6526TIP3    H241070   1.300   6.382   1.803  0.6622  0.3086 -0.9464
 6527TIP3   OH241071   7.196   0.450  15.659 -0.0301  0.1995 -0.0778
 6527TIP3    H141072   7.278   0.402  15.672  1.5842  2.5202 -1.2915
 6527TIP3    H241073   7.176   0.487  15.746 -1.1594 -2.3776  0.8059
 6528TIP3   OH241074   0.701   6.776   0.502 -0.1480 -0.0861  0.7040
 6528TIP3    H141075   0.748   6.757   0.583  2.2412  0.3194 -0.5456
 6528TIP3    H241076   0.672   6.866   0.511 -1.5479 -0.6196  1.8582
 6529TIP3   OH241077   7.211   0.051  12.801 -0.0813  0.1026 -0.3114
 6529TIP3    H141078   7.291   0.037  12.749 -0.5912  0.9851 -1.3662
 6529TIP3    H241079   7.153  -0.020  12.774  0.5349 -0.8706  0.8688
 6530TIP3   OH241080   1.325   1.408  14.759 -0.2908 -0.2358  0.0759
 6530TIP3    H141081   1.232   1.423  14.778 -0.6771 -1.4489 -0.8717
 6530TIP3    H241082   1.339   1.446  14.673 -0.0216 -0.5218 -0.0079
 6531TIP3   OH241083   5.264   1.013  14.276  0.4632  0.3979  0.7163
 6531TIP3    H141084   5.302   1.014  14.363  1.9208 -1.9652  0.1417
 6531TIP3    H241085   5.308   1.084  14.229  0.0285  1.3493  1.7022
 6532TIP3   OH241086   4.996   7.264   0.360  0.5104  0.3785  0.2756
 6532TIP3    H141087   5.030   7.310   0.284 -0.5797 -0.2713 -0.6210
 6532TIP3    H241088   5.033   7.310   0.435 -0.5658  2.7188 -0.5921
 6533TIP3   OH241089   1.955   7.167   2.614  0.2691 -0.4406  0.3554
 6533TIP3    H141090   1.935   7.165   2.520  1.2699  1.9845  0.0512
 6533TIP3    H241091   1.871   7.184   2.656 -0.2423 -1.8867 -0.0639
 6534TIP3   OH241092   2.035   0.766   0.614 -0.4254  0.1906 -0.2381
 6534TIP3    H141093   2.031   0.679   0.575  2.1434 -0.6755  1.2762
 6534TIP3    H241094   1.960   0.813   0.577 -1.0593 -2.2145 -2.1284
 6535TIP3   OH241095   0.627   7.176  15.329 -0.5905 -0.0395 -0.1136
 6535TIP3    H141096   0.715   7.142  15.342  0.0660  0.0098 -3.9604
 6535TIP3    H241097   0.589   7.121  15.261 -1.6075  3.1462 -2.2430
 6536TIP3   OH241098   1.690   3.309  13.650 -0.1739  0.3368  0.0656
 6536TIP3    H141099   1.649   3.395  13.656 -0.2408  0.3155 -0.0833
 6536TIP3    H241100   1.694   3.291  13.556 -0.0250  0.2421  0.0911
 6537TIP3   OH241101   0.247   0.799   0.184  0.3798  0.6481  0.0323
 6537TIP3    H141102   0.315   0.832   0.125  0.2776  0.2122 -0.3377
 6537TIP3    H241103   0.212   0.722   0.139  1.7919 -0.9917  1.6274
 6538TIP3   OH241104   6.701   2.206  14.534  0.0472  0.3706 -0.0120
 6538TIP3    H141105   6.715   2.144  14.462 -0.7731  1.2242 -0.9240
 6538TIP3    H241106   6.784   2.253  14.542  0.2643  0.0114 -0.1423
 6539TIP3   OH241107   1.131   1.057  14.201  0.3834 -0.2617  0.5232
 6539TIP3    H141108   1.104   1.140  14.240  2.1546 -0.0212  1.3196
 6539TIP3    H241109   1.087   0.990  14.253  0.4688  0.1451  1.1277
 6540TIP3   OH241110   0.525   1.131  12.633  0.4866 -0.4563  0.1042
 6540TIP3    H141111   0.548   1.174  12.716  0.9991 -1.9036  0.7340
 6540TIP3    H241112   0.434   1.105  12.644 -0.0617  1.1259 -0.5750
 6541TIP3   OH241113   7.202   7.201  15.165 -0.2204 -0.3911  0.4331
 6541TIP3    H141114   7.221   7.261  15.237 -1.3299  0.2347  0.2245
 6541TIP3    H241115   7.106   7.202  15.157 -0.2064 -1.6192 -0.0620
 6542TIP3   OH241116   1.480   1.335  15.411  0.1839  0.1324  0.0971
 6542TIP3    H141117   1.536   1.410  15.429 -0.2611  0.5197 -0.1248
 6542TIP3    H241118   1.441   1.314  15.496  1.8164 -1.0971  0.5804
 6543TIP3   OH241119   7.298   6.748  11.304  0.0786 -0.0909  0.4512
 6543TIP3    H141120   7.372   6.802  11.274 -0.6029  0.1305 -0.9051
 6543TIP3    H241121   7.338   6.678  11.355  1.3488 -0.6443 -1.2453
 6544TIP3   OH241122   7.176   1.868  15.219 -0.0922 -0.0202  0.1062
 6544TIP3    H141123   7.238   1.865  15.146  1.9048  0.5817  1.7192
 6544TIP3    H241124   7.099   1.821  15.187  1.2031 -0.8370 -1.9353
 6545TIP3   OH241125   1.675   1.273  14.538  0.2913 -0.3113 -0.6140
 6545TIP3    H141126   1.704   1.206  14.600  0.7068  0.8123  0.4287
 6545TIP3    H241127   1.611   1.229  14.482  0.2102 -1.4450  0.3648
 6546TIP3   OH241128   1.595   1.715  14.744  0.0941  0.0904 -0.4994
 6546TIP3    H141129   1.667   1.657  14.720 -0.3930 -0.9682  0.6100
 6546TIP3    H241130   1.593   1.713  14.839 -1.4104  0.1281 -0.5330
 6547TIP3   OH241131   0.745   6.598  15.587 -0.6463 -0.2083 -0.2663
 6547TIP3    H141132   0.717   6.689  15.577  0.5775  0.5229  2.3897
 6547TIP3    H241133   0.837   6.599  15.562 -0.3819 -0.5103  0.7008
 6548TIP3   OH241134   6.313   0.336   0.245 -0.2968 -0.4388 -0.1088
 6548TIP3    H141135   6.268   0.357   0.163 -1.0529  0.0145  0.4191
 6548TIP3    H241136   6.406   0.335   0.222 -0.4170  0.9882 -0.6741
 6549TIP3   OH241137   1.022   0.908  13.366  0.4792 -0.4252 -0.0537
 6549TIP3    H141138   1.001   0.823  13.405  0.1650 -0.5558 -0.5121
 6549TIP3    H241139   1.068   0.955  13.436 -0.1686 -0.6216  0.5057
 6550TIP3   OH241140   7.256   6.452   1.226 -0.6823  1.0543 -0.4824
 6550TIP3    H141141   7.281   6.403   1.148 -1.2779 -0.8445  0.5041
 6550TIP3    H241142   7.336   6.497   1.253 -0.0369  0.3230 -1.1756
 6551TIP3   OH241143   0.175   0.752  11.691 -0.1607 -0.9151 -0.3071
 6551TIP3    H141144   0.248   0.730  11.633  1.7028  2.6236  0.5486
 6551TIP3    H241145   0.179   0.686  11.760  1.9468 -1.0239 -0.5049
 6552TIP3   OH241146   6.687   0.751  14.882  0.1851  0.1013 -0.0041
 6552TIP3    H141147   6.633   0.714  14.812 -1.7455  4.0558 -0.7792
 6552TIP3    H241148   6.624   0.779  14.948  1.6320  0.7289  1.1321
 6553TIP3   OH241149   1.856   2.915  12.667 -0.4818  0.6631  0.3250
 6553TIP3    H141150   1.782   2.854  12.673  0.4944 -0.6820 -1.0456
 6553TIP3    H241151   1.818   2.995  12.630 -1.0862 -0.3299 -1.2375
 6554TIP3   OH241152   5.921   0.004  14.998  0.1458 -0.0621  0.6569
 6554TIP3    H141153   5.967   0.052  14.930  2.5171 -2.4571  0.4692
 6554TIP3    H241154   5.988  -0.016  15.063 -1.4438 -0.4275  2.2370
 6555TIP3   OH241155   6.220   0.738  15.255  0.3648  0.2564  0.0241
 6555TIP3    H141156   6.245   0.647  15.270 -0.5745  0.1194  0.8213
 6555TIP3    H241157   6.174   0.737  15.172  2.8173  0.4871 -1.3943
 6556TIP3   OH241158   1.946   2.164  10.058  0.2729  0.3015 -0.2703
 6556TIP3    H141159   1.857   2.130  10.051  1.1194 -1.7151 -1.9334
 6556TIP3    H241160   2.000   2.087  10.078  1.4438  1.7941  2.6588
 6557TIP3   OH241161   1.188   1.367  13.327  0.1666 -0.0820  0.0003
 6557TIP3    H141162   1.146   1.453  13.335  2.4805  1.1499 -0.8013
 6557TIP3    H241163   1.281   1.384  13.341  0.6927 -2.4171 -0.4809
 6558TIP3   OH241164   2.589   2.689   0.705 -0.3116 -0.4497 -0.1571
 6558TIP3    H141165   2.527   2.741   0.757 -0.7443  0.0593 -1.1695
 6558TIP3    H241166   2.545   2.605   0.694 -0.9617  0.0175 -1.1393
 6559TIP3   OH241167   1.725   2.788  15.408  0.0721  0.4143  0.2062
 6559TIP3    H141168   1.673   2.821  15.482 -0.2402  0.9778 -0.2620
 6559TIP3    H241169   1.678   2.710  15.379 -0.0226  0.4147  0.3549
 6560TIP3   OH241170   0.752   2.538  14.393 -0.3609  0.4651 -0.4949
 6560TIP3    H141171   0.807   2.476  14.345 -3.2528 -0.5211 -2.6451
 6560TIP3    H241172   0.706   2.485  14.457 -0.8542  0.8326 -0.5440
 6561TIP3   OH241173   3.722   6.162   0.436 -0.1384 -0.4141 -0.2394
 6561TIP3    H141174   3.712   6.256   0.454  0.3112 -0.4740  0.3186
 6561TIP3    H241175   3.718   6.120   0.522 -2.0327 -1.0655 -0.6152
 6562TIP3   OH241176   7.338   7.229  15.778  0.0822  0.7378 -0.2813
 6562TIP3    H141177   7.361   7.259  15.865  2.2816 -0.7882 -0.3001
 6562TIP3    H241178   7.313   7.137  15.790  0.7137  0.4246 -1.2787
 6563TIP3   OH241179   5.859   0.842  15.641  0.0946 -0.3351  0.0154
 6563TIP3    H141180   5.843   0.786  15.565 -0.2825 -1.1461  0.6901
 6563TIP3    H241181   5.836   0.930  15.610  0.2435 -0.6093 -0.9040
 6564TIP3   OH241182   0.676   0.375   1.903  0.0510  0.6444  0.3274
 6564TIP3    H141183   0.695   0.455   1.853  0.6715  0.0513 -0.4055
 6564TIP3    H241184   0.667   0.307   1.836 -2.8683  0.5286  0.7523
 6565TIP3   OH241185   4.525   1.271  13.121  0.0217  0.4503  0.6696
 6565TIP3    H141186   4.613   1.233  13.124 -0.7125 -1.5986 -2.0406
 6565TIP3    H241187   4.494   1.267  13.211  2.4191  0.5556  1.5374
 6566TIP3   OH241188   0.732   6.433  14.651  0.0386  0.5591 -0.1886
 6566TIP3    H141189   0.717   6.341  14.627  0.6968  0.8166 -1.6494
 6566TIP3    H241190   0.727   6.433  14.746 -0.8103 -0.8446 -0.2035
 6567TIP3   OH241191   2.393   2.603   0.269 -0.8803 -0.2580 -0.6303
 6567TIP3    H141192   2.372   2.510   0.271  1.2142 -0.7893 -2.1643
 6567TIP3    H241193   2.464   2.614   0.333 -2.1504  0.5916  0.6795
 6568TIP3   OH241194   1.598   0.649  15.767 -0.7991  0.1854  0.1426
 6568TIP3    H141195   1.599   0.604  15.683  0.2825  1.0925 -0.3555
 6568TIP3    H241196   1.507   0.648  15.795 -1.0805 -0.5761 -0.7951
 6569TIP3   OH241197   1.120   0.125  12.002  0.1360 -0.2233  0.0329
 6569TIP3    H141198   1.049   0.098  11.944 -0.4423  0.3345  0.4652
 6569TIP3    H241199   1.183   0.054  11.999 -0.4572 -0.7322 -0.3480
 6570TIP3   OH241200   0.063   7.283   0.760  0.6292 -0.4043 -0.4680
 6570TIP3    H141201   0.111   7.366   0.751  0.8635 -0.6781 -1.8967
 6570TIP3    H241202   0.019   7.272   0.675 -1.7619 -0.2979  0.7164
 6571TIP3   OH241203   1.915   2.489  14.804  0.6240  0.2501 -0.2595
 6571TIP3    H141204   1.855   2.514  14.734  2.5163  0.0727 -1.9966
 6571TIP3    H241205   1.883   2.405  14.834  1.1715 -0.8578 -2.6228
 6572TIP3   OH241206   0.000   6.285   0.398  0.0514  0.0094  0.2611
 6572TIP3    H141207  -0.010   6.377   0.421  0.7514  0.3645 -0.8056
 6572TIP3    H241208   0.063   6.285   0.325  1.9163 -1.5040  1.8235
 6573TIP3   OH241209   3.299   1.671  14.699 -0.3075 -0.0702  0.0127
 6573TIP3    H141210   3.239   1.626  14.759 -0.4623 -0.8274 -0.6940
 6573TIP3    H241211   3.243   1.696  14.625  0.3113 -1.0997 -0.8165
 6574TIP3   OH241212   4.674   1.913   0.240 -0.3241  0.2359 -0.3002
 6574TIP3    H141213   4.709   1.851   0.304 -0.2807 -1.2952 -1.7749
 6574TIP3    H241214   4.579   1.900   0.244 -0.3487  0.4068 -0.3019
 6575TIP3   OH241215   2.277   0.806   1.239  0.1789  0.0051  0.3081
 6575TIP3    H141216   2.219   0.733   1.263  1.3034 -0.8019  0.5965
 6575TIP3    H241217   2.244   0.880   1.289 -1.0951 -0.2524 -0.1309
 6576TIP3   OH241218   1.937   3.040   1.202  0.2459  0.7236  0.4205
 6576TIP3    H141219   1.974   3.003   1.122  1.1181  0.9145  0.7258
 6576TIP3    H241220   2.013   3.059   1.257 -0.3094  1.1569  1.0510
 6577TIP3   OH241221   2.398   3.579  13.321 -0.2046 -0.3052  0.2733
 6577TIP3    H141222   2.432   3.635  13.251  0.4313  1.6174  2.0705
 6577TIP3    H241223   2.308   3.610  13.334 -0.1910 -0.3921  0.5733
 6578TIP3   OH241224   0.011   0.335  12.131 -0.2423  0.0233 -0.4243
 6578TIP3    H141225  -0.067   0.304  12.086 -0.3470 -3.1313  1.7892
 6578TIP3    H241226  -0.020   0.366  12.216  0.5551  1.4941 -0.6491
 6579TIP3   OH241227   7.330   7.214  12.363 -0.1293 -0.1076 -0.1060
 6579TIP3    H141228   7.273   7.218  12.286 -2.3202 -0.7426  1.4455
 6579TIP3    H241229   7.409   7.262  12.337 -2.0380  2.2779 -1.7277
 6580TIP3   OH241230   1.813   6.813  15.989  0.5146 -0.2056 -0.0462
 6580TIP3    H141231   1.885   6.806  15.927  0.7267  1.5286 -0.0412
 6580TIP3    H241232   1.734   6.795  15.937  0.7468  0.5549 -0.6857
 6581TIP3   OH241233   2.184   5.944  14.687 -0.9389 -0.0442  0.6452
 6581TIP3    H141234   2.259   5.917  14.739 -0.3125 -0.4463 -0.4589
 6581TIP3    H241235   2.218   6.012  14.629 -0.7954 -2.0044 -1.6569
 6582TIP3   OH241236   0.782   1.590   1.569  0.6923  0.0067 -0.2744
 6582TIP3    H141237   0.777   1.686   1.567  1.0585  0.1009  2.1700
 6582TIP3    H241238   0.695   1.563   1.600  0.8753 -0.4030 -0.1207
 6583TIP3   OH241239   1.611   0.747  14.906  0.2637 -0.6784 -0.1326
 6583TIP3    H141240   1.608   0.686  14.832 -0.6502 -0.3401 -0.3773
 6583TIP3    H241241   1.643   0.693  14.979 -0.9847 -1.5896 -0.2306
 6584TIP3   OH241242   0.526   1.483  14.715 -0.3704 -0.2216  0.1059
 6584TIP3    H141243   0.482   1.399  14.725  0.7148 -0.6012  1.9996
 6584TIP3    H241244   0.608   1.464  14.671 -1.9170  0.4557 -3.2094
 6585TIP3   OH241245   2.387   1.758   0.152  0.2164 -0.7239  0.5589
 6585TIP3    H141246   2.465   1.807   0.127 -0.3819  0.2240  0.5441
 6585TIP3    H241247   2.326   1.824   0.184 -0.2181 -1.5667  1.4970
 6586TIP3   OH241248   2.755   4.375  12.359  0.1206  0.5846  0.2436
 6586TIP3    H141249   2.683   4.365  12.422  0.4379  0.1781  0.5434
 6586TIP3    H241250   2.821   4.312  12.388 -0.3325 -0.6360 -1.3527
 6587TIP3   OH241251   0.880   6.798  14.833  0.7212 -0.8143 -0.2557
 6587TIP3    H141252   0.883   6.705  14.857  0.9067 -0.0517  2.7894
 6587TIP3    H241253   0.972   6.826  14.835  0.4940 -0.1304  0.6024
 6588TIP3   OH241254   1.363   1.602  15.496 -0.1503 -0.1450 -0.3668
 6588TIP3    H141255   1.458   1.601  15.482  0.2870  2.8417  1.7936
 6588TIP3    H241256   1.352   1.576  15.587 -1.4866 -1.1455 -0.8064
 6589TIP3   OH241257   1.810   0.012  14.874 -0.0738 -0.7393  0.4243
 6589TIP3    H141258   1.857  -0.042  14.937  0.9442 -0.2801  0.0748
 6589TIP3    H241259   1.739  -0.044  14.842 -1.3151 -0.5832  2.8139
 6590TIP3   OH241260   1.890   1.375  14.872 -0.4720 -0.1532  0.4081
 6590TIP3    H141261   1.944   1.308  14.830 -0.5266  0.6339 -0.9364
 6590TIP3    H241262   1.950   1.448  14.888 -0.9419  0.4056 -0.3406
 6591TIP3   OH241263   0.833   3.803  12.046 -0.0390  0.2972  0.1407
 6591TIP3    H141264   0.853   3.843  12.131  0.1793  1.6787 -0.5488
 6591TIP3    H241265   0.772   3.864  12.005  1.0878  0.4238 -1.3584
 6592TIP3   OH241266   6.061   0.191  14.492 -0.1247 -0.3359 -0.0986
 6592TIP3    H141267   6.005   0.220  14.420 -1.2543 -0.2496  0.7975
 6592TIP3    H241268   6.061   0.095  14.486 -2.1264 -0.4564  1.1591
 6593TIP3   OH241269   2.209   7.141  14.831  1.0639  0.0392 -0.4656
 6593TIP3    H141270   2.133   7.167  14.883  0.1129  0.7084 -2.1475
 6593TIP3    H241271   2.220   7.048  14.851 -1.1698 -0.4528 -1.3410
 6594TIP3   OH241272   0.019   2.150  12.966  0.3912  0.6534  0.4392
 6594TIP3    H141273  -0.010   2.201  12.890  1.7151  1.7453  0.6387
 6594TIP3    H241274  -0.034   2.070  12.963  0.7088  0.4751 -1.8887
 6595TIP3   OH241275   2.454   1.560  14.276  0.1184  0.2433  0.2037
 6595TIP3    H141276   2.398   1.491  14.312 -0.5823 -0.3849 -2.0134
 6595TIP3    H241277   2.524   1.513  14.230 -0.3477  0.9931 -1.3019
 6596TIP3   OH241278   1.868   1.503   2.321 -0.0085 -0.4482 -0.3005
 6596TIP3    H141279   1.821   1.581   2.292 -1.8679 -0.7452  1.8132
 6596TIP3    H241280   1.959   1.532   2.331 -0.4626  1.1262 -0.6509
 6597TIP3   OH241281   0.965   0.507  14.830 -0.3041 -0.1408 -0.0567
 6597TIP3    H141282   0.879   0.465  14.835  0.1892 -1.2060 -0.4720
 6597TIP3    H241283   0.993   0.514  14.922 -0.5778 -0.3425  0.0449
 6598TIP3   OH241284   1.218   7.134   2.903 -0.4150  0.2383  0.1106
 6598TIP3    H141285   1.211   7.229   2.914  1.7585  0.4884 -0.3334
 6598TIP3    H241286   1.312   7.118   2.892 -0.8997 -1.7601 -1.6078
 6599TIP3   OH241287   0.770   1.748  14.078  0.2570  0.0262  0.2853
 6599TIP3    H141288   0.697   1.734  14.018  0.9051  0.4720 -0.6229
 6599TIP3    H241289   0.832   1.677  14.056  0.1121 -0.3320  1.0260
 6600TIP3   OH241290   5.964   1.025  13.326  0.1437  0.0290 -0.2311
 6600TIP3    H141291   6.031   0.973  13.371  0.6228  2.0962  1.5431
 6600TIP3    H241292   5.883   0.976  13.340  0.7252 -0.7061  0.6637
 6601TIP3   OH241293   7.225   0.490  11.528 -0.1039 -0.1746 -0.1777
 6601TIP3    H141294   7.316   0.468  11.508  0.6841  2.1097  0.7751
 6601TIP3    H241295   7.183   0.406  11.542  1.1028 -1.4872 -3.7687
 6602TIP3   OH241296   5.635   2.402  14.699 -0.0949 -0.3427 -0.2542
 6602TIP3    H141297   5.636   2.395  14.794 -1.3305  2.3057 -0.0202
 6602TIP3    H241298   5.700   2.469  14.678  0.3000 -1.0277 -1.3153
 6603TIP3   OH241299   3.496   5.692  14.852  0.4965  0.4157 -0.6588
 6603TIP3    H141300   3.447   5.769  14.880 -1.1707 -0.8146 -0.0481
 6603TIP3    H241301   3.430   5.637  14.808  1.6640 -0.6253 -1.1293
 6604TIP3   OH241302   6.351   7.002  15.570 -0.1827  0.2534 -0.4633
 6604TIP3    H141303   6.298   6.964  15.500 -1.3115 -1.3483  1.2026
 6604TIP3    H241304   6.410   6.931  15.596 -1.1554  0.1540  1.5413
 6605TIP3   OH241305   5.917   6.987  15.028  0.2063  0.0767  0.1602
 6605TIP3    H141306   5.858   7.012  15.100 -0.9513  0.0139 -0.7633
 6605TIP3    H241307   5.868   7.007  14.949  2.8762  3.5757 -0.7091
 6606TIP3   OH241308   0.390   1.217  14.701 -0.4440  0.4556  0.2817
 6606TIP3    H141309   0.426   1.200  14.789 -0.3182 -0.4293  0.0616
 6606TIP3    H241310   0.299   1.187  14.706 -0.0349 -0.9185 -0.3001
 6607TIP3   OH241311   5.141   7.160   1.864  0.1121  0.2214  0.0662
 6607TIP3    H141312   5.200   7.221   1.908 -0.6276  0.6972  0.4052
 6607TIP3    H241313   5.110   7.208   1.787 -0.2286  0.1634  0.1658
 6608TIP3   OH241314   5.226   2.424  13.103  0.7752 -0.4825 -0.2098
 6608TIP3    H141315   5.209   2.416  13.197 -0.9850 -2.1247 -0.6352
 6608TIP3    H241316   5.290   2.494  13.096  0.3730  0.1616  2.1597
 6609TIP3   OH241317   4.368   1.948   1.345 -0.0252 -0.2222 -0.3831
 6609TIP3    H141318   4.350   1.996   1.426  0.7383 -0.8282  0.1488
 6609TIP3    H241319   4.384   2.016   1.280 -0.7201  0.2676 -0.0465
 6610TIP3   OH241320   1.053   1.473  14.782 -0.1831  0.0782  0.3388
 6610TIP3    H141321   1.076   1.565  14.797 -0.7845 -0.0129  1.9156
 6610TIP3    H241322   0.967   1.463  14.823 -1.7469 -0.3344 -2.9005
 6611TIP3   OH241323   0.641   6.962   2.421  0.7266  0.2792  0.2929
 6611TIP3    H141324   0.735   6.950   2.410  0.2466 -1.3223 -2.4596
 6611TIP3    H241325   0.608   6.873   2.437 -0.3933  0.7830  0.8158
 6612TIP3   OH241326   0.124   0.581  15.218  0.0243  0.0689 -0.0894
 6612TIP3    H141327   0.031   0.580  15.195 -0.1525  1.4309  0.4883
 6612TIP3    H241328   0.169   0.601  15.136 -0.2791  0.4796 -0.1577
 6613TIP3   OH241329   1.137   0.652   0.102 -0.4346 -0.1884 -0.0143
 6613TIP3    H141330   1.042   0.664   0.109 -0.4512  0.4022 -1.0960
 6613TIP3    H241331   1.167   0.730   0.055  0.4856 -0.7045 -0.2819
 6614TIP3   OH241332   0.328   2.808  14.437 -0.2642 -0.0164 -0.2688
 6614TIP3    H141333   0.310   2.726  14.483  2.0281 -0.3165  0.1432
 6614TIP3    H241334   0.263   2.812  14.367 -2.7095 -0.4102  1.9049
 6615TIP3   OH241335   3.734   1.792   0.499  0.0644 -0.0312  0.0321
 6615TIP3    H141336   3.798   1.746   0.554  1.4412  0.4735 -1.1183
 6615TIP3    H241337   3.694   1.856   0.557 -0.0595 -0.9867  1.0075
 6616TIP3   OH241338   6.792   0.865  15.683  0.3538  0.2416  0.2609
 6616TIP3    H141339   6.786   0.780  15.638  1.2420  0.5495 -0.4595
 6616TIP3    H241340   6.820   0.843  15.772 -2.9782 -0.5044  1.1808
 6617TIP3   OH241341   1.016   7.055  15.896 -0.2333  0.2709  0.5994
 6617TIP3    H141342   1.104   7.087  15.875 -1.1724  1.5512 -1.5470
 6617TIP3    H241343   1.001   7.085  15.985  0.7335  1.7970  0.2712
 6618TIP3   OH241344   2.497   0.135   0.485  0.5316  0.8046  0.0353
 6618TIP3    H141345   2.436   0.062   0.493  0.3420  0.9023 -0.5183
 6618TIP3    H241346   2.494   0.178   0.571 -1.8288  2.0927 -0.6336
 6619TIP3   OH241347   0.454   0.558  15.508 -0.7558 -0.4465  0.1049
 6619TIP3    H141348   0.402   0.582  15.585 -1.0441  1.4363 -0.6552
 6619TIP3    H241349   0.532   0.613  15.513 -0.4344 -0.8380 -0.5595
 6620TIP3   OH241350   6.423   6.679  15.630 -0.3603  0.1568  0.0570
 6620TIP3    H141351   6.428   6.584  15.638 -1.3959  0.2398  2.0511
 6620TIP3    H241352   6.338   6.702  15.667  0.4298  1.9900  0.7997
 6621TIP3   OH241353   1.212   7.223  15.105  0.4979  0.4722  0.3148
 6621TIP3    H141354   1.256   7.308  15.101 -0.3929  0.8891 -1.6607
 6621TIP3    H241355   1.119   7.244  15.102  0.2618 -0.5497 -0.0151
 6622TIP3   OH241356   5.785   6.378  14.297 -0.2473  0.4072  0.4999
 6622TIP3    H141357   5.696   6.371  14.329  0.5516 -0.7438  2.5294
 6622TIP3    H241358   5.838   6.391  14.376  1.5245 -0.3019 -0.5464
 6623TIP3   OH241359   0.370   6.880   1.403  0.2746  0.4477 -0.2744
 6623TIP3    H141360   0.457   6.856   1.434 -0.4890 -1.3085  0.5481
 6623TIP3    H241361   0.353   6.965   1.444  1.3614  0.5196  0.0287
 6624TIP3   OH241362   1.551   2.026  14.956 -0.5317  0.2875 -0.3136
 6624TIP3    H141363   1.643   2.004  14.942  0.1576  1.4137  2.1466
 6624TIP3    H241364   1.541   2.114  14.919 -0.1091  0.9600  1.1312
 6625TIP3   OH241365   0.332   3.500  13.016  0.4029 -0.4968  0.0226
 6625TIP3    H141366   0.404   3.476  13.075  1.1720  1.4577 -0.0653
 6625TIP3    H241367   0.318   3.593  13.033 -1.7391 -0.7269 -0.3904
 6626TIP3   OH241368   5.655   2.245  15.032 -0.2942  0.5379 -0.4608
 6626TIP3    H141369   5.593   2.187  15.075 -1.4153  1.9922 -0.0790
 6626TIP3    H241370   5.731   2.189  15.014 -1.8963 -1.4023 -1.4490
 6627TIP3   OH241371   6.732   2.672  15.714  0.0637 -0.1170 -0.2373
 6627TIP3    H141372   6.778   2.609  15.659  0.7198 -0.2656  0.4617
 6627TIP3    H241373   6.709   2.622  15.793  1.5721  0.8018  0.8013
 6628TIP3   OH241374   0.746   1.365  14.580  0.1355  0.8643 -0.5663
 6628TIP3    H141375   0.729   1.291  14.522 -0.1077  0.1772  0.3590
 6628TIP3    H241376   0.839   1.359  14.601 -0.1772  0.0073  0.5996
 6629TIP3   OH241377   2.283   0.974   0.558 -0.0568 -0.2279 -0.6548
 6629TIP3    H141378   2.202   0.923   0.565 -0.9967  1.3291  0.1375
 6629TIP3    H241379   2.259   1.060   0.593  2.2759 -0.1433  0.8067
 6630TIP3   OH241380   0.271   5.546   2.106 -0.7833  0.0552  0.0362
 6630TIP3    H141381   0.228   5.474   2.059 -0.3578  0.4165 -0.9194
 6630TIP3    H241382   0.227   5.625   2.075  1.3614  0.5607 -1.9435
 6631TIP3   OH241383   4.185   0.688  14.629  0.3528  0.4052  0.7220
 6631TIP3    H141384   4.222   0.600  14.629  1.1546  0.7187  2.9204
 6631TIP3    H241385   4.209   0.724  14.544  0.5353 -1.2833  0.0382
 6632TIP3   OH241386   2.568   0.155   1.151  0.5872  0.2104 -0.1058
 6632TIP3    H141387   2.477   0.128   1.157  1.1307 -1.4386  1.1570
 6632TIP3    H241388   2.599   0.116   1.069  0.7584 -1.1651  0.5973
 6633TIP3   OH241389   3.154   2.855  14.977  0.1331 -0.4022 -0.6280
 6633TIP3    H141390   3.090   2.819  14.914  2.4725 -0.7361 -2.9157
 6633TIP3    H241391   3.228   2.794  14.973  0.7141  0.0997  1.7972
 6634TIP3   OH241392   2.397   1.784  12.949 -0.0598  0.0789 -0.7101
 6634TIP3    H141393   2.390   1.809  13.042 -0.6354 -1.2080 -0.3953
 6634TIP3    H241394   2.415   1.866  12.904  1.0987  0.5982  0.6446
 6635TIP3   OH241395   0.046   6.533  15.481 -0.1454  0.2192  0.0958
 6635TIP3    H141396   0.055   6.472  15.408 -0.7429  0.5294 -0.2391
 6635TIP3    H241397  -0.013   6.601  15.449  1.9211  1.9417 -0.1313
 6636TIP3   OH241398   1.638   1.092  15.632  0.4706 -0.4003 -0.4406
 6636TIP3    H141399   1.728   1.107  15.663  0.8906  0.5812 -2.1182
 6636TIP3    H241400   1.620   1.164  15.573 -0.7629 -1.5999 -1.5681
 6637TIP3   OH241401   2.387   1.225   1.414  0.3114  0.4457 -0.0948
 6637TIP3    H141402   2.476   1.232   1.448  0.6067 -2.4943 -0.1350
 6637TIP3    H241403   2.398   1.204   1.321 -0.4221 -0.0131 -0.0836
 6638TIP3   OH241404   2.020   1.068  15.114  0.1426  0.3198  0.2127
 6638TIP3    H141405   1.969   1.051  15.034 -1.4004 -1.8221  1.5767
 6638TIP3    H241406   2.105   1.027  15.098 -0.3342 -0.5400 -0.1573
 6639TIP3   OH241407   1.209   7.085   0.947  0.3857 -0.1425 -0.0622
 6639TIP3    H141408   1.151   7.161   0.941  1.6437  0.9486  1.3488
 6639TIP3    H241409   1.199   7.055   1.037 -1.3396 -2.6798 -1.0367
 6640TIP3   OH241410   3.720   7.244   0.045 -0.1190 -0.5024  0.7873
 6640TIP3    H141411   3.730   7.182  -0.028  1.7932  1.8143 -0.9985
 6640TIP3    H241412   3.634   7.284   0.031  0.3157  0.0594 -0.3242
 6641TIP3   OH241413   3.725   0.421  12.571  0.0271 -0.1767 -0.0014
 6641TIP3    H141414   3.819   0.402  12.564 -0.1178 -0.4275 -1.3689
 6641TIP3    H241415   3.716   0.464  12.656  1.4837  0.4730 -0.1539
 6642TIP3   OH241416   2.723   0.903   0.676  0.3191  0.0834 -0.1180
 6642TIP3    H141417   2.777   0.887   0.754 -0.5478 -0.6694  0.3340
 6642TIP3    H241418   2.633   0.888   0.705 -0.0270 -0.0107 -1.2154
 6643TIP3   OH241419   1.219   4.730  15.834  0.1879 -0.3802 -0.2898
 6643TIP3    H141420   1.206   4.720  15.928 -1.0246 -1.2303 -0.5423
 6643TIP3    H241421   1.277   4.658  15.810 -0.8801 -1.1930 -0.4745
 6644TIP3   OH241422   1.269   6.764  15.356 -0.4402  0.3026  0.3338
 6644TIP3    H141423   1.218   6.738  15.432 -1.0380  0.5751  0.0263
 6644TIP3    H241424   1.359   6.740  15.378 -0.8669 -1.2843  0.3761
 6645TIP3   OH241425   7.146   0.538  14.437 -0.2808  0.2542 -0.2003
 6645TIP3    H141426   7.085   0.591  14.489 -0.3204  0.2662 -0.2593
 6645TIP3    H241427   7.124   0.448  14.460  0.9393  0.2897  1.2428
 6646TIP3   OH241428   5.998   1.482  15.390  0.1327 -0.6185 -0.3860
 6646TIP3    H141429   6.021   1.575  15.389 -0.5852 -0.3988  1.5003
 6646TIP3    H241430   5.928   1.476  15.455 -1.4940 -2.0993 -2.2276
 6647TIP3   OH241431   2.198   0.334  15.608  0.3405 -0.0547 -0.0466
 6647TIP3    H141432   2.260   0.359  15.677  1.3805 -1.6396 -0.3759
 6647TIP3    H241433   2.119   0.307  15.656  1.4171 -2.1481  0.5880
 6648TIP3   OH241434   6.007   0.424  15.032 -0.1413  0.1674 -0.0532
 6648TIP3    H141435   6.009   0.330  15.015  1.2982 -0.2131  1.9891
 6648TIP3    H241436   5.921   0.440  15.070 -0.3893 -0.3148 -0.3996
 6649TIP3   OH241437   0.110   1.885  15.453  0.0099  0.1617  0.0822
 6649TIP3    H141438   0.126   1.977  15.430 -2.1861  0.0958 -1.9026
 6649TIP3    H241439   0.019   1.884  15.482  0.0455 -1.4148  0.1378
 6650TIP3   OH241440   0.924   5.191   0.347  0.1621  0.3115  0.4178
 6650TIP3    H141441   0.874   5.167   0.269 -1.1630  0.7788  1.1208
 6650TIP3    H241442   0.909   5.285   0.358  1.6231  0.5768  0.3438
 6651TIP3   OH241443   1.025   6.811  13.603 -0.3718 -0.0053  0.6606
 6651TIP3    H141444   0.935   6.819  13.633 -0.2675 -1.2635  1.3251
 6651TIP3    H241445   1.035   6.719  13.578  0.6938  0.1479  0.4795
 6652TIP3   OH241446   6.779   7.047  15.507 -0.3808 -0.3291  1.0622
 6652TIP3    H141447   6.738   7.078  15.427 -0.8123  0.3294  1.5229
 6652TIP3    H241448   6.783   7.125  15.563  1.3877 -0.4107  1.0773
 6653TIP3   OH241449   1.393   0.919  14.810  0.1334 -0.3967 -0.8885
 6653TIP3    H141450   1.481   0.881  14.816 -0.5469 -1.6759  1.7665
 6653TIP3    H241451   1.346   0.882  14.885 -1.4081  3.5162  0.1958
 6654TIP3   OH241452   6.387   6.139  14.141  0.0381 -0.1192  0.1946
 6654TIP3    H141453   6.479   6.113  14.149  0.0174  0.1017  1.2928
 6654TIP3    H241454   6.375   6.204  14.210 -0.2153  1.9582 -1.7775
 6655TIP3   OH241455   3.726   0.036  15.718  0.1948  0.1183  0.0854
 6655TIP3    H141456   3.687  -0.047  15.744  1.5703 -0.4300  0.4165
 6655TIP3    H241457   3.695   0.050  15.629 -1.6884  0.2625  0.7534
 6656TIP3   OH241458   0.018   1.030   1.058 -0.0999 -0.5872  0.6136
 6656TIP3    H141459  -0.069   1.068   1.071  0.1018 -0.0445  0.4019
 6656TIP3    H241460   0.073   1.073   1.125 -0.1361 -1.4000  1.1661
 6657TIP3   OH241461   5.325   2.572  14.441  0.3718  0.7197  0.0367
 6657TIP3    H141462   5.384   2.642  14.410 -0.4622  0.6685 -1.7025
 6657TIP3    H241463   5.294   2.604  14.526  3.4591  0.4120  1.3761
 6658TIP3   OH241464   1.527   4.002   0.261 -0.0133 -0.0954 -0.4506
 6658TIP3    H141465   1.555   3.914   0.234 -1.3272 -1.1390  1.4913
 6658TIP3    H241466   1.519   4.051   0.179  4.0273 -0.7351 -1.3547
 6659TIP3   OH241467   3.079   6.132  15.303 -0.6567  0.6551  0.6510
 6659TIP3    H141468   3.027   6.210  15.319  0.6501  1.6458  0.1810
 6659TIP3    H241469   3.165   6.151  15.341 -0.3760 -0.6146  0.6940
 6660TIP3   OH241470   0.823   2.455  15.530 -0.1328  0.3676 -0.1156
 6660TIP3    H141471   0.755   2.388  15.525  1.8769 -1.7527 -0.1369
 6660TIP3    H241472   0.905   2.405  15.541  1.1003  2.9106  3.0962
 6661TIP3   OH241473   6.889   0.897  13.749 -0.4841  0.3258 -0.6999
 6661TIP3    H141474   6.977   0.935  13.749 -0.1367 -0.4529 -1.5489
 6661TIP3    H241475   6.885   0.845  13.668 -1.0911 -1.0609  0.1890
 6662TIP3   OH241476   4.796   2.859  12.516 -0.0987 -0.3107 -0.1036
 6662TIP3    H141477   4.758   2.804  12.584 -1.5403  2.1212  1.1393
 6662TIP3    H241478   4.886   2.873  12.545 -0.2649 -0.5264  0.5295
 6663TIP3   OH241479   5.056   2.738  15.959  0.0684  0.7016 -0.2856
 6663TIP3    H141480   5.078   2.831  15.967  1.8398  0.4325 -1.8973
 6663TIP3    H241481   4.982   2.726  16.019  1.0535  2.7302  1.3806
 6664TIP3   OH241482   3.454   1.213  12.604 -0.1353 -0.3312  0.2381
 6664TIP3    H141483   3.398   1.139  12.630 -0.6194  0.2918  0.9839
 6664TIP3    H241484   3.394   1.275  12.563  0.0535  0.2362  0.8213
 6665TIP3   OH241485   1.069   1.147  15.030 -0.0733 -0.3337 -0.0979
 6665TIP3    H141486   1.120   1.137  14.949  1.3385 -0.2018  0.7594
 6665TIP3    H241487   1.135   1.162  15.098 -1.2918  0.2601  0.9697
 6666TIP3   OH241488   0.918   0.777  14.796 -0.4893 -0.3865  0.1105
 6666TIP3    H141489   0.933   0.683  14.791  0.7868 -0.0555 -3.8079
 6666TIP3    H241490   0.828   0.789  14.765 -0.0615 -0.2008 -1.0937
 6667TIP3   OH241491   1.484   1.007  15.863 -0.3240 -0.1313 -0.1268
 6667TIP3    H141492   1.437   0.936  15.819  1.8611 -3.4264  2.5765
 6667TIP3    H241493   1.541   1.043  15.795 -1.2560 -1.1329 -1.4796
 6668TIP3   OH241494   1.905   0.120  14.637  0.0417  0.4247  0.1314
 6668TIP3    H141495   1.987   0.166  14.656  0.0628 -0.1229  1.3893
 6668TIP3    H241496   1.886   0.071  14.717  0.3061 -2.1867 -1.3739
 6669TIP3   OH241497   1.166   0.233  15.366 -0.3347 -0.0426  0.1772
 6669TIP3    H141498   1.078   0.270  15.375  0.8250  2.8288  0.3269
 6669TIP3    H241499   1.212   0.295  15.310  1.6881 -1.3738  0.3150
 6670TIP3   OH241500   2.664   1.976  14.814  0.2552 -0.0664  0.6617
 6670TIP3    H141501   2.708   1.998  14.732  0.1202  0.3518  0.6996
 6670TIP3    H241502   2.713   1.901  14.849 -0.8223 -1.4464 -0.7307
 6671TIP3   OH241503   7.316   0.666  10.533  0.1236  0.2428  0.2323
 6671TIP3    H141504   7.372   0.646  10.458 -1.7006  1.7217 -1.5506
 6671TIP3    H241505   7.319   0.587  10.587  1.9512 -0.6013 -1.0612
 6672TIP3   OH241506   0.073   6.471  13.722 -1.1673  0.1680  0.2790
 6672TIP3    H141507  -0.004   6.520  13.694 -0.5562  0.2460 -1.3390
 6672TIP3    H241508   0.136   6.538  13.748  0.0992  0.3653 -3.0628
 6673TIP3   OH241509   1.470   0.157  13.100 -0.6098 -0.6250  0.2720
 6673TIP3    H141510   1.390   0.195  13.137 -0.2527 -1.3497  1.8588
 6673TIP3    H241511   1.468   0.065  13.130  0.6033 -0.7492 -0.0110
 6674TIP3   OH241512   0.153   7.306  12.917  0.2488  0.0564  0.3540
 6674TIP3    H141513   0.088   7.253  12.962 -1.5664  0.7724 -1.3568
 6674TIP3    H241514   0.136   7.291  12.824  2.3346  0.4946 -0.1213
 6675TIP3   OH241515   2.034   6.600  14.285  0.0357 -0.0619 -0.6004
 6675TIP3    H141516   2.012   6.693  14.277 -0.0133  0.0883  1.1657
 6675TIP3    H241517   1.996   6.559  14.207 -0.5444  1.2755 -1.0255
 6676TIP3   OH241518   1.512   1.758  14.418 -0.1854 -0.0318 -0.2591
 6676TIP3    H141519   1.506   1.720  14.330 -0.0825  1.4947 -0.9449
 6676TIP3    H241520   1.525   1.851  14.403 -0.1001  0.2405  1.3899
 6677TIP3   OH241521   1.798   0.411  13.538 -0.0411  0.0421  0.2740
 6677TIP3    H141522   1.792   0.440  13.629 -0.5099 -1.4865  0.7562
 6677TIP3    H241523   1.707   0.399  13.511  0.1271 -0.5448 -0.0394
 6678TIP3   OH241524   6.017   1.523  13.434  0.0034 -0.0606  0.1949
 6678TIP3    H141525   6.085   1.577  13.394 -1.6076  0.8876 -1.3088
 6678TIP3    H241526   6.053   1.434  13.432  2.7605  0.8990  2.8846
 6679TIP3   OH241527   3.060   3.684  11.585  0.0853 -0.2874  0.5232
 6679TIP3    H141528   3.060   3.724  11.497 -1.5586 -0.2855  0.5119
 6679TIP3    H241529   3.008   3.744  11.638  0.5991 -0.5880  1.3777
 6680TIP3   OH241530   2.397   3.559  12.595  0.0599 -0.1733 -0.1557
 6680TIP3    H141531   2.320   3.568  12.651  0.5165  2.1126  0.1924
 6680TIP3    H241532   2.366   3.581  12.507 -0.1768 -1.5692 -0.4283
 6681TIP3   OH241533   7.019   1.052   0.721  0.3129 -0.1675 -0.0798
 6681TIP3    H141534   7.013   1.016   0.809  0.4601 -0.6657 -0.2718
 6681TIP3    H241535   7.030   1.146   0.734 -1.8883  0.0370  0.3807
 6682TIP3   OH241536   6.627   4.966   0.177  0.0358  0.3225  0.2142
 6682TIP3    H141537   6.601   5.051   0.141  0.1030  0.3427  0.2149
 6682TIP3    H241538   6.705   4.942   0.127 -0.4836 -0.1450 -0.3856
 6683TIP3   OH241539   6.211   2.234  13.250 -0.1516  0.6062  0.9946
 6683TIP3    H141540   6.235   2.222  13.342 -0.5559  0.9085  1.1467
 6683TIP3    H241541   6.194   2.146  13.217  1.0679  0.4046  0.9058
 6684TIP3   OH241542   0.574   5.645   0.191 -0.0596  0.7411  0.2967
 6684TIP3    H141543   0.518   5.581   0.148  0.8520 -0.9150  1.5543
 6684TIP3    H241544   0.658   5.638   0.145  0.6882 -0.4985  1.8278
 6685TIP3   OH241545   0.470   1.106  14.279 -0.1416  0.6811 -0.2526
 6685TIP3    H141546   0.500   1.123  14.189 -0.6791  0.0721 -0.5490
 6685TIP3    H241547   0.417   1.026  14.272 -0.0115  0.5137  0.6419
 6686TIP3   OH241548   1.437   1.406  15.004  0.5553 -0.4749 -0.1250
 6686TIP3    H141549   1.432   1.499  15.023  0.9679 -0.7559  1.4047
 6686TIP3    H241550   1.388   1.396  14.922 -0.0743  0.9755  0.0546
 6687TIP3   OH241551   3.613   4.927  14.846  0.3854 -0.1322 -0.1896
 6687TIP3    H141552   3.628   4.948  14.938  0.2492 -0.2057 -0.1508
 6687TIP3    H241553   3.532   4.877  14.845  0.0121  0.4706 -0.4223
 6688TIP3   OH241554   2.851   0.012   1.217  0.0525 -0.1659 -0.2869
 6688TIP3    H141555   2.765  -0.007   1.179 -1.1472  1.3744  1.5804
 6688TIP3    H241556   2.890   0.076   1.158 -0.9104  0.5970 -0.1035
 6689TIP3   OH241557   4.131   1.359  15.266 -0.0524  0.4852 -0.2531
 6689TIP3    H141558   4.143   1.296  15.337 -0.2009 -0.9444 -1.4893
 6689TIP3    H241559   4.039   1.348  15.240  0.2373  0.4158 -1.2359
 6690TIP3   OH241560   3.879   1.202  13.431  0.1828 -0.1541 -0.2977
 6690TIP3    H141561   3.784   1.218  13.430 -0.0421 -1.4937 -1.1823
 6690TIP3    H241562   3.917   1.283  13.396 -0.9574 -1.4589 -4.9694
 6691TIP3   OH241563   1.262   0.792  13.634  0.1953 -0.0968 -0.3933
 6691TIP3    H141564   1.240   0.716  13.579 -1.1083  0.2430 -0.3557
 6691TIP3    H241565   1.178   0.824  13.665  0.7581  1.2921 -0.2923
 6692TIP3   OH241566   0.678   6.772  14.643  0.0174 -0.7252 -0.4089
 6692TIP3    H141567   0.694   6.851  14.591 -0.6382  1.1245  2.0402
 6692TIP3    H241568   0.759   6.760  14.693 -0.2370 -1.0119 -0.0591
 6693TIP3   OH241569   3.826   0.004  15.149 -0.2060 -0.2502  0.4109
 6693TIP3    H141570   3.905  -0.046  15.170  0.1178 -0.3721 -1.0214
 6693TIP3    H241571   3.829   0.014  15.054 -1.4507  0.5327  0.4435
 6694TIP3   OH241572   2.036   2.025  13.917  0.0998 -0.1889  0.3206
 6694TIP3    H141573   1.989   2.044  13.836  0.0357 -1.4851  0.0422
 6694TIP3    H241574   1.993   1.948  13.952  1.6266 -1.0392  0.3686
 6695TIP3   OH241575   5.688   0.057  13.299  0.2591 -0.5056 -0.0138
 6695TIP3    H141576   5.742   0.044  13.378  0.1460  0.5079  0.2358
 6695TIP3    H241577   5.689  -0.028  13.256  1.7510 -0.6106  0.1919
 6696TIP3   OH241578   3.764   1.195   0.023  0.1166 -0.2850  0.2054
 6696TIP3    H141579   3.852   1.232   0.015  0.3567 -0.4846  1.7580
 6696TIP3    H241580   3.718   1.256   0.081  0.7266 -2.7113  3.3670
 6697TIP3   OH241581   1.802   1.296  13.609  0.0331  0.6733  0.1034
 6697TIP3    H141582   1.779   1.384  13.640 -1.9853 -0.1935  1.1782
 6697TIP3    H241583   1.859   1.261  13.678 -0.7114  0.4611  0.6273
 6698TIP3   OH241584   3.884   0.830  12.097 -0.2830  0.1848  0.3652
 6698TIP3    H141585   3.893   0.783  12.180 -0.6148  0.3599  0.5003
 6698TIP3    H241586   3.791   0.855  12.094 -0.3834 -0.2439 -0.2836
 6699TIP3   OH241587   1.911   6.225  15.088  0.0891  0.2858 -0.0278
 6699TIP3    H141588   1.853   6.213  15.013 -1.0624 -0.5656  0.9840
 6699TIP3    H241589   1.853   6.225  15.164  1.3963 -0.3602  0.9930
 6700TIP3   OH241590   0.801   1.313  14.221  0.4129  0.4244  0.4658
 6700TIP3    H141591   0.778   1.280  14.308  1.6909 -1.0057  0.2825
 6700TIP3    H241592   0.896   1.305  14.217  0.4712  1.5196 -0.6580
 6701TIP3   OH241593   4.668   1.620   2.377 -0.0682  0.3909  0.2807
 6701TIP3    H141594   4.657   1.699   2.324  0.7420  0.4172  0.1533
 6701TIP3    H241595   4.682   1.550   2.314  1.0795  0.4525  0.4644
 6702TIP3   OH241596   2.777   0.814  15.234 -0.8056  0.2616 -0.1509
 6702TIP3    H141597   2.692   0.829  15.275 -1.1001 -0.0274 -0.6460
 6702TIP3    H241598   2.762   0.744  15.171  0.0250 -0.4687  0.4501
 6703TIP3   OH241599   4.050   1.720  14.899  0.5778 -0.1592 -0.3380
 6703TIP3    H141600   4.010   1.807  14.900  1.0062  0.0398 -0.1540
 6703TIP3    H241601   3.980   1.661  14.869  0.8522  0.5154 -2.3685
 6704TIP3   OH241602   2.267   2.032  14.552  0.1384 -0.2226 -0.3285
 6704TIP3    H141603   2.244   2.004  14.463  0.3491 -3.4562  0.5693
 6704TIP3    H241604   2.359   2.058  14.545  1.0585 -3.3192 -0.5122
 6705TIP3   OH241605   3.883   0.552  14.649 -0.2930  0.5117 -0.3622
 6705TIP3    H141606   3.971   0.574  14.678  0.0968 -0.1458 -1.0271
 6705TIP3    H241607   3.894   0.521  14.559 -1.0337 -0.8090 -0.0148
 6706TIP3   OH241608   1.262   0.827   1.085  0.2269 -0.2847 -0.7863
 6706TIP3    H141609   1.256   0.920   1.063  1.2265 -0.1882 -0.6799
 6706TIP3    H241610   1.260   0.825   1.181 -3.0377 -0.6240 -0.8149
 6707TIP3   OH241611   1.093   2.354  13.830  0.4375  0.2149  0.0244
 6707TIP3    H141612   1.157   2.352  13.759 -0.7035  0.2533 -1.0214
 6707TIP3    H241613   1.109   2.438  13.874  0.2853  0.7784 -0.9876
 6708TIP3   OH241614   3.275   3.684  14.169 -0.2916  0.0145  0.1483
 6708TIP3    H141615   3.252   3.719  14.255  0.8517  0.8498  0.1261
 6708TIP3    H241616   3.322   3.603  14.188 -2.1883 -1.1118  0.2226
 6709TIP3   OH241617   3.837   2.284   0.565 -0.4967 -0.4454  0.2418
 6709TIP3    H141618   3.819   2.283   0.470 -0.3566 -2.0120  0.2192
 6709TIP3    H241619   3.891   2.207   0.580  1.6725  1.2155  1.2150
 6710TIP3   OH241620   4.652   2.168  15.715  0.2175 -0.2101 -0.0409
 6710TIP3    H141621   4.632   2.084  15.675  0.1264 -1.0939  1.8231
 6710TIP3    H241622   4.665   2.149  15.808  2.0192  1.5389  0.1221
 6711TIP3   OH241623   1.915   2.166  15.354  0.3752 -0.1540  0.3582
 6711TIP3    H141624   2.009   2.184  15.358  0.1016  2.0226 -1.9084
 6711TIP3    H241625   1.886   2.174  15.445  1.8245  2.7041  0.6475
 6712TIP3   OH241626   3.802   2.290  14.541 -0.1738  0.1858  0.1605
 6712TIP3    H141627   3.788   2.317  14.451  0.0084  0.2375  0.1478
 6712TIP3    H241628   3.716   2.260  14.571 -0.7109  2.1004  0.6280
 6713TIP3   OH241629   3.379   2.050  15.084  0.3482  0.1435 -0.1291
 6713TIP3    H141630   3.430   1.973  15.058  0.1861 -0.0673  0.1721
 6713TIP3    H241631   3.289   2.019  15.087  0.2831  0.3454 -0.0044
 6714TIP3   OH241632   4.779   3.797  15.336 -0.0775  0.2539  0.7683
 6714TIP3    H141633   4.778   3.853  15.413 -1.1235  0.5180  0.5749
 6714TIP3    H241634   4.854   3.738  15.349  0.4909  1.1119  1.3817
 6715TIP3   OH241635   5.780   4.764  13.472  0.3807 -0.0658 -0.0174
 6715TIP3    H141636   5.808   4.676  13.497  0.2481  0.0184  0.4326
 6715TIP3    H241637   5.796   4.817  13.550 -2.8307 -0.4065  0.9218
 6716TIP3   OH241638   1.616   6.863  12.869 -0.0646 -0.3179  0.2240
 6716TIP3    H141639   1.622   6.958  12.855  1.2632 -0.3866  0.2901
 6716TIP3    H241640   1.540   6.836  12.817 -0.3881  0.7650  0.1209
 6717TIP3   OH241641   4.835   1.232  14.613 -0.0933  0.3017  0.4569
 6717TIP3    H141642   4.751   1.195  14.641 -0.1752  0.8749  0.9856
 6717TIP3    H241643   4.836   1.219  14.518 -0.9889  0.7009  0.3844
 6718TIP3   OH241644   3.793   2.603  13.740  0.5488 -0.4978  0.1897
 6718TIP3    H141645   3.712   2.555  13.758  0.4542  0.0778  1.3112
 6718TIP3    H241646   3.859   2.534  13.731  0.2381 -0.8977  0.8863
 6719TIP3   OH241647   4.593   5.254   0.112  0.2926 -0.1682  0.9630
 6719TIP3    H141648   4.636   5.339   0.104  0.9271 -0.5140  0.7108
 6719TIP3    H241649   4.665   5.192   0.125  0.0791 -1.1070 -2.1020
 6720TIP3   OH241650   2.914   0.700  14.595  0.0526 -0.3770  0.4804
 6720TIP3    H141651   2.918   0.612  14.557  0.3961 -0.3998  0.5708
 6720TIP3    H241652   3.002   0.735  14.585  0.1573 -0.3991  1.2909
 6721TIP3   OH241653   1.395   2.047  13.864  0.3897 -0.3418  1.0195
 6721TIP3    H141654   1.319   2.065  13.919  0.9712 -1.2566  2.1300
 6721TIP3    H241655   1.446   2.128  13.867 -1.3661  0.9180 -1.1378
 6722TIP3   OH241656   1.002   6.474  15.537  0.1486  0.0011 -0.1082
 6722TIP3    H141657   0.991   6.381  15.514  0.1137  0.1225 -0.5947
 6722TIP3    H241658   1.059   6.472  15.614 -2.7115 -0.5772  2.0639
 6723TIP3   OH241659   4.419   3.839  14.171 -0.3427  0.2167  0.1170
 6723TIP3    H141660   4.371   3.772  14.220  3.9508 -0.0931  4.2297
 6723TIP3    H241661   4.472   3.789  14.109 -2.0628  0.3151 -1.4845
 6724TIP3   OH241662   3.241   0.584  14.957 -0.9865  0.0665  0.0548
 6724TIP3    H141663   3.168   0.641  14.934 -1.0669 -0.1173 -0.1421
 6724TIP3    H241664   3.319   0.639  14.946 -1.0353  0.0272 -0.4851
 6725TIP3   OH241665   2.415   2.069  13.417 -0.4507  0.4229  0.8655
 6725TIP3    H141666   2.503   2.089  13.383 -0.5532 -0.1468  0.2483
 6725TIP3    H241667   2.424   1.983  13.458 -1.0797 -0.3769 -0.6229
 6726TIP3   OH241668   1.492   0.863  15.532 -0.0333 -0.0830  0.0413
 6726TIP3    H141669   1.547   0.913  15.592 -1.9308  0.8986  1.0114
 6726TIP3    H241670   1.522   0.772  15.541  0.6292  0.2676  1.4267
 6727TIP3   OH241671   2.852   1.992  12.486  0.4443  0.1391 -0.6200
 6727TIP3    H141672   2.802   2.031  12.557  1.0972 -0.0790 -0.0292
 6727TIP3    H241673   2.938   2.033  12.492  1.2499 -1.5974  0.2288
 6728TIP3   OH241674   2.645   3.276   2.008 -0.1201 -0.7146  0.7446
 6728TIP3    H141675   2.625   3.368   2.027 -0.6416 -0.7627  0.4353
 6728TIP3    H241676   2.595   3.257   1.929  1.9106 -0.5654 -0.5933
 6729TIP3   OH241677   4.520   1.852  15.030  0.4929  0.1961 -0.4135
 6729TIP3    H141678   4.596   1.835  15.085  0.0915  1.8208  0.6773
 6729TIP3    H241679   4.554   1.846  14.940  1.6971 -0.0359  0.0452
 6730TIP3   OH241680   2.572   3.015  14.294  0.2725 -0.1658  0.4031
 6730TIP3    H141681   2.526   2.943  14.336  0.3629 -0.0345  0.7301
 6730TIP3    H241682   2.582   2.988  14.203 -0.9863  0.0620  0.1877
 6731TIP3   OH241683   3.705   4.194  14.083  0.4828  0.3384 -0.4219
 6731TIP3    H141684   3.640   4.234  14.140 -1.4807 -0.6320 -1.9254
 6731TIP3    H241685   3.661   4.119  14.044  2.4474 -0.2372 -1.6247
 6732TIP3   OH241686   4.190   1.424   0.211 -0.2501  0.1131  0.4163
 6732TIP3    H141687   4.161   1.496   0.155  1.6448  0.0107 -0.7103
 6732TIP3    H241688   4.178   1.346   0.157  2.1114  0.0684 -0.0542
 6733TIP3   OH241689   6.175   0.484  14.355  0.1610 -0.8036  0.3167
 6733TIP3    H141690   6.114   0.415  14.328 -0.2474 -0.9525  1.5951
 6733TIP3    H241691   6.217   0.512  14.273 -2.2353 -0.0967 -0.7118
 6734TIP3   OH241692   3.361   1.139  13.224  0.2995  0.4107 -0.3249
 6734TIP3    H141693   3.303   1.117  13.298  0.7741  0.7065  0.1374
 6734TIP3    H241694   3.314   1.107  13.147  1.5320 -3.4494  0.4165
 6735TIP3   OH241695   2.249   0.909  15.168 -0.3910  0.5705  0.3789
 6735TIP3    H141696   2.291   0.926  15.252  0.0964 -1.1668  0.5028
 6735TIP3    H241697   2.202   0.826  15.180 -2.5438  1.6390 -0.2587
 6736TIP3   OH241698   5.186   2.555  14.943  0.0163  0.2211 -0.0888
 6736TIP3    H141699   5.273   2.525  14.970  0.2806 -0.7385 -1.9158
 6736TIP3    H241700   5.143   2.477  14.907 -1.6344  0.6744  0.8583
 6737TIP3   OH241701   0.211   1.037  15.531 -0.2005  0.0854 -0.2913
 6737TIP3    H141702   0.196   1.032  15.437 -0.2859  3.9054 -0.5535
 6737TIP3    H241703   0.126   1.019  15.571 -0.4945 -0.1147 -1.0077
 6738TIP3   OH241704   2.679   2.420  14.326 -0.1999 -0.1291  0.8390
 6738TIP3    H141705   2.653   2.475  14.399 -1.0961  0.6822 -0.0741
 6738TIP3    H241706   2.747   2.363  14.361  0.4547  1.2958  1.8887
 6739TIP3   OH241707   2.968   1.249  12.593  0.4506 -0.3547 -0.7118
 6739TIP3    H141708   2.989   1.334  12.555 -0.8208  0.3238  0.0741
 6739TIP3    H241709   2.896   1.215  12.539  1.0061 -0.9740 -1.0733
 6740TIP3   OH241710   2.396   0.822  14.159  0.0771 -0.0840 -0.0524
 6740TIP3    H141711   2.330   0.753  14.150  1.1245 -1.4855  2.4822
 6740TIP3    H241712   2.376   0.864  14.242  1.3330  0.6164 -0.0843
 6741TIP3   OH241713   2.613   2.579   0.043 -0.0860 -0.1097 -0.3704
 6741TIP3    H141714   2.556   2.598   0.118 -0.3461 -1.1072 -0.3129
 6741TIP3    H241715   2.691   2.541   0.082  1.6309  3.3094 -0.2356
 6742TIP3   OH241716   2.712   6.906  15.506 -0.2491  0.6580 -0.5097
 6742TIP3    H141717   2.780   6.839  15.509 -1.8795 -0.9920  1.1281
 6742TIP3    H241718   2.675   6.899  15.418  0.0112 -0.2090 -0.5576
 6743TIP3   OH241719   2.838   6.532  15.765 -0.5539  0.4619 -0.4000
 6743TIP3    H141720   2.888   6.595  15.713 -1.3429  0.3790 -1.2961
 6743TIP3    H241721   2.866   6.446  15.732  1.0775  0.3048  1.3439
 6744TIP3   OH241722   3.283   0.001   0.228 -0.2913  0.2115  0.2523
 6744TIP3    H141723   3.346  -0.023   0.296  1.1117 -0.6075 -1.3280
 6744TIP3    H241724   3.335   0.020   0.151 -1.8775  1.1896 -0.6154
 6745TIP3   OH241725   1.466   0.466  14.791  0.0955 -0.1490 -0.3230
 6745TIP3    H141726   1.498   0.376  14.792 -0.5570 -0.4349 -2.8844
 6745TIP3    H241727   1.533   0.515  14.745 -0.6945  0.2041 -1.1182
 6746TIP3   OH241728   1.359   0.170  15.569  0.6326 -0.0815  0.7810
 6746TIP3    H141729   1.306   0.235  15.520 -1.3293 -2.7768 -0.8178
 6746TIP3    H241730   1.435   0.155  15.513  0.7534  0.3076  0.8333
 6747TIP3   OH241731   2.002   0.010   0.600 -1.0367 -0.6992  0.1736
 6747TIP3    H141732   2.049  -0.073   0.606 -0.1511 -0.3656 -1.7039
 6747TIP3    H241733   1.997   0.028   0.506 -0.9291  1.5064  0.5626
 6748TIP3   OH241734   3.261   6.560  15.803  0.3186 -0.0710  0.6303
 6748TIP3    H141735   3.210   6.490  15.762 -2.3748  0.9096  2.2388
 6748TIP3    H241736   3.348   6.522  15.815 -0.2959 -2.1428 -1.1255
 6749TIP3   OH241737   2.571   1.602  13.343 -0.7651  0.4704  0.4474
 6749TIP3    H141738   2.570   1.609  13.438  1.5721 -0.2978  0.5634
 6749TIP3    H241739   2.553   1.510  13.325  0.0504  0.3572  0.1986
 6750TIP3   OH241740   3.542   6.261  15.387 -0.0732  0.2191  0.1960
 6750TIP3    H141741   3.589   6.227  15.311  0.1639  1.8922 -0.4252
 6750TIP3    H241742   3.602   6.248  15.461 -0.1826 -1.1239  0.0681
 6751TIP3   OH241743   1.581   0.583  15.510 -0.5803 -0.0993  0.1198
 6751TIP3    H141744   1.504   0.560  15.458 -1.4779  0.7424  1.0321
 6751TIP3    H241745   1.643   0.513  15.494 -1.6586 -0.9527 -0.4070
 6752TIP3   OH241746   0.124   7.338  15.540 -0.2474 -0.0105 -0.0260
 6752TIP3    H141747   0.192   7.275  15.514  1.6898  1.6949  0.7889
 6752TIP3    H241748   0.084   7.299  15.617  1.1653 -0.1239  0.6729
 6753TIP3   OH241749   6.596   0.946  15.070 -0.5040  0.2894  0.0120
 6753TIP3    H141750   6.548   0.958  15.152  0.6545 -1.6648  1.0242
 6753TIP3    H241751   6.602   1.034  15.033 -0.4666  1.3413  2.3814
 6754TIP3   OH241752   1.487   0.417  13.522 -0.0348 -0.3615  0.2568
 6754TIP3    H141753   1.501   0.477  13.595 -1.2021  0.9900 -0.6235
 6754TIP3    H241754   1.415   0.361  13.551  0.5529 -0.8650  0.7693
 6755TIP3   OH241755   2.614   6.220  15.308  0.2997 -0.2686  0.2738
 6755TIP3    H141756   2.617   6.126  15.322 -0.0338  0.0777  3.0266
 6755TIP3    H241757   2.529   6.236  15.268 -0.2123 -1.0125  1.0431
 6756TIP3   OH241758   3.362   1.062  15.918  0.1186  0.3445 -0.3902
 6756TIP3    H141759   3.434   1.004  15.893  1.6343  1.9804  0.0983
 6756TIP3    H241760   3.366   1.134  15.855 -1.0202  0.4974 -0.2946
 6757TIP3   OH241761   1.357   0.482   0.119 -0.5179  0.3395 -0.0925
 6757TIP3    H141762   1.288   0.428   0.159 -0.4256 -0.1367 -0.5868
 6757TIP3    H241763   1.309   0.556   0.081 -0.7946 -0.2052 -0.7990
 6758TIP3   OH241764   0.874   7.232  13.196  0.0404 -0.3624 -0.3950
 6758TIP3    H141765   0.793   7.214  13.243 -1.1208  0.4921 -2.0091
 6758TIP3    H241766   0.891   7.153  13.145  0.9707 -1.0525  0.9400
 6759TIP3   OH241767   0.883   6.318   1.130 -0.7887  0.3262  0.3392
 6759TIP3    H141768   0.964   6.364   1.108 -1.1909  0.6630 -0.4482
 6759TIP3    H241769   0.913   6.234   1.167 -0.0901  0.3731 -0.1107
 6760TIP3   OH241770   4.276   1.648  15.004  0.7828  0.0035 -0.0391
 6760TIP3    H141771   4.307   1.729  15.044  0.6493  1.1088 -2.1101
 6760TIP3    H241772   4.200   1.675  14.952 -0.7482 -1.8720  1.1913
 6761TIP3   OH241773   1.604   6.275  13.229 -0.0155 -0.5335  0.2148
 6761TIP3    H141774   1.554   6.196  13.208 -1.4970 -0.0599  1.8974
 6761TIP3    H241775   1.539   6.337  13.260  1.0736  1.5029 -1.4278
 6762TIP3   OH241776   3.548   4.740   0.230  0.6031  0.3656  0.2896
 6762TIP3    H141777   3.610   4.804   0.196  0.6171 -0.2221 -0.8027
 6762TIP3    H241778   3.602   4.675   0.275  0.6296  0.8279  0.9317
 6763TIP3   OH241779   2.389   2.902  15.061 -0.4785  0.3746 -0.0099
 6763TIP3    H141780   2.388   2.819  15.012 -1.7263 -0.2886  1.0978
 6763TIP3    H241781   2.322   2.956  15.018  0.1885  0.7388 -0.6006
 6764TIP3   OH241782   1.175   2.131  13.988  0.1169  0.5210 -0.1327
 6764TIP3    H141783   1.081   2.135  14.006  0.1881  1.2886  0.1047
 6764TIP3    H241784   1.192   2.210  13.937  1.0910  1.7080  1.9913
 6765TIP3   OH241785   3.286   6.287  13.933 -0.7530  0.1620  0.2200
 6765TIP3    H141786   3.312   6.366  13.980  0.3174  0.3209 -0.6190
 6765TIP3    H241787   3.257   6.318  13.848  1.0154 -0.4526 -0.6339
 6766TIP3   OH241788   3.713   0.930  15.267 -0.1452 -0.1955  0.7467
 6766TIP3    H141789   3.746   1.012  15.303  1.4879  0.3076 -1.7171
 6766TIP3    H241790   3.790   0.889  15.227 -1.6351 -1.1309 -1.2943
 6767TIP3   OH241791   4.077   4.005  15.266 -0.4966 -0.0339  0.0466
 6767TIP3    H141792   4.145   3.952  15.225 -1.1092 -0.0156 -1.0209
 6767TIP3    H241793   4.111   4.027  15.352  0.7075 -0.3018 -0.3603
 6768TIP3   OH241794   3.961   1.428  13.278 -0.0418  0.4813  0.0606
 6768TIP3    H141795   3.975   1.519  13.306 -1.1633  0.1399  1.8326
 6768TIP3    H241796   3.873   1.428  13.241 -0.6094 -0.1572  1.3739
 6769TIP3   OH241797   1.998   1.538  15.128  0.1820 -0.3728 -0.5252
 6769TIP3    H141798   2.045   1.584  15.198 -1.0945  0.8071 -0.4094
 6769TIP3    H241799   2.011   1.445  15.147  0.1897 -0.0616  1.0660
 6770TIP3   OH241800   2.568   3.707  14.306  0.4193  0.0797 -0.0366
 6770TIP3    H141801   2.575   3.717  14.401 -3.3858 -0.9762  0.4214
 6770TIP3    H241802   2.599   3.790  14.271 -0.1703  1.3076  2.2338
 6771TIP3   OH241803   2.924   0.993  15.107 -0.2605 -0.3396 -0.0827
 6771TIP3    H141804   2.863   0.926  15.137  2.2041 -2.1318  1.1413
 6771TIP3    H241805   2.981   1.008  15.182  0.5928  1.5198 -1.0757
 6772TIP3   OH241806   3.624   0.316  13.208 -0.4034 -0.1043 -0.3429
 6772TIP3    H141807   3.695   0.304  13.271 -0.5467 -1.3407 -0.4107
 6772TIP3    H241808   3.594   0.227  13.188 -1.7606  0.3891 -0.5511
 6773TIP3   OH241809   0.410   2.574  12.862  0.3995 -0.3737  0.0614
 6773TIP3    H141810   0.340   2.516  12.831  1.5572 -0.2962 -2.8895
 6773TIP3    H241811   0.453   2.525  12.931 -1.4186 -1.1891  0.6359
 6774TIP3   OH241812   6.690   0.071   0.034 -0.2799  0.1344 -0.2173
 6774TIP3    H141813   6.695  -0.017  -0.003 -0.7564 -1.0528  2.4057
 6774TIP3    H241814   6.768   0.116   0.002  1.0695 -1.9458  0.1151
 6775TIP3   OH241815   2.142   1.300  15.221 -0.1420  0.4492  0.0951
 6775TIP3    H141816   2.124   1.289  15.314  1.3217 -1.3527  0.1978
 6775TIP3    H241817   2.107   1.221  15.181  1.5951 -0.0094 -0.5350
 6776TIP3   OH241818   4.086   1.207   1.319 -0.0897 -0.5892  0.4612
 6776TIP3    H141819   4.127   1.265   1.254 -0.6245 -1.5014 -0.7224
 6776TIP3    H241820   4.159   1.174   1.371  0.4712 -0.6190 -0.3272
 6777TIP3   OH241821   2.160   7.013  13.140  0.5171  0.0842  0.2385
 6777TIP3    H141822   2.120   7.031  13.055  0.6181 -0.5123  0.0621
 6777TIP3    H241823   2.087   6.992  13.197  0.5400 -0.5333  0.0374
 6778TIP3   OH241824   4.665   2.937  13.006 -0.1933  0.1114 -0.2849
 6778TIP3    H141825   4.662   2.869  13.074  2.8336 -0.4710 -0.6591
 6778TIP3    H241826   4.672   3.019  13.054  0.9777 -0.2320  0.1500
 6779TIP3   OH241827   3.952   4.305  14.029  0.4378  0.2153  0.1591
 6779TIP3    H141828   3.945   4.343  13.941  2.1022 -3.4079 -1.6738
 6779TIP3    H241829   3.863   4.278  14.051 -0.1336  1.9009 -0.0578
 6780TIP3   OH241830   3.118   3.147   0.931 -0.2259 -0.0952  0.4522
 6780TIP3    H141831   3.100   3.230   0.887  0.7556 -0.6297 -0.9732
 6780TIP3    H241832   3.210   3.153   0.956  0.2979 -1.3775 -1.0706
 6781TIP3   OH241833   1.952   0.207   1.436  0.5889 -0.5235  0.0228
 6781TIP3    H141834   1.962   0.253   1.352 -0.5071  0.2110  0.2836
 6781TIP3    H241835   1.970   0.274   1.502  0.1761 -0.7768  0.3925
 6782TIP3   OH241836   3.325   3.605  13.358  0.0404 -0.3939  0.4269
 6782TIP3    H141837   3.408   3.601  13.310  0.0099 -0.1214  0.3532
 6782TIP3    H241838   3.269   3.661  13.305  0.6937  1.6587  1.8282
 6783TIP3   OH241839   1.653   3.979  15.698 -0.5952 -0.0278 -0.0637
 6783TIP3    H141840   1.583   3.921  15.729 -0.1623 -1.7296 -2.1120
 6783TIP3    H241841   1.716   3.981  15.771 -0.5591 -2.2809  0.0248
 6784TIP3   OH241842   2.630   2.786  15.314 -0.0180  0.5069 -0.1249
 6784TIP3    H141843   2.638   2.880  15.331 -0.7058  0.5632 -0.0912
 6784TIP3    H241844   2.572   2.753  15.383  0.9177 -0.1073  0.3840
 6785TIP3   OH241845   2.534   2.823  14.083 -0.5296 -0.1629  0.0696
 6785TIP3    H141846   2.460   2.816  14.144 -0.6945 -0.5846 -0.1796
 6785TIP3    H241847   2.493   2.827  13.997 -0.3533  1.5251  0.0355
 6786TIP3   OH241848   2.390   7.266  15.605 -0.7558 -0.0336 -0.1789
 6786TIP3    H141849   2.325   7.274  15.535 -1.8211 -2.1626  0.5346
 6786TIP3    H241850   2.377   7.344  15.659 -3.1958 -0.7602  0.3337
 6787TIP3   OH241851   5.933   3.367  12.875 -0.1003 -0.1506  0.1479
 6787TIP3    H141852   5.990   3.431  12.831 -1.7962  2.1996  1.2582
 6787TIP3    H241853   5.846   3.387  12.842 -0.6104 -2.2060  0.2238
 6788TIP3   OH241854   5.119   5.650  15.585 -0.2795  0.0173 -0.7974
 6788TIP3    H141855   5.034   5.687  15.564 -1.7052 -2.3175  0.5747
 6788TIP3    H241856   5.183   5.710  15.545 -2.4863  2.8412 -0.2178
 6789TIP3   OH241857   4.725   7.142  13.965 -0.3565  0.0758 -0.5057
 6789TIP3    H141858   4.725   7.219  14.022  0.6036 -1.8690  2.2200
 6789TIP3    H241859   4.815   7.136  13.933  0.2418 -1.3618  1.3739
 6790TIP3   OH241860   2.224   0.250   0.090  0.0103  0.3570 -0.0940
 6790TIP3    H141861   2.315   0.268   0.113  0.3351 -1.0226 -0.2382
 6790TIP3    H241862   2.186   0.336   0.072  1.4128  0.8986 -0.5201
 6791TIP3   OH241863   1.030   2.377  15.013 -0.4065  0.3534 -0.1439
 6791TIP3    H141864   1.024   2.472  15.015  2.0760  0.5126  1.3464
 6791TIP3    H241865   1.075   2.353  15.094 -3.2054 -2.2981  0.7460
 6792TIP3   OH241866   1.420   6.836  13.563  0.3771 -0.3465  0.4105
 6792TIP3    H141867   1.495   6.814  13.619 -0.5083 -2.5329  0.7568
 6792TIP3    H241868   1.343   6.815  13.617 -0.4860 -0.1156 -0.7234
 6793TIP3   OH241869   1.783   2.537  12.582  0.3547  0.5675  0.3017
 6793TIP3    H141870   1.717   2.489  12.632 -0.6065  1.9533  0.3781
 6793TIP3    H241871   1.864   2.525  12.632  0.4359 -2.0024 -0.3358
 6794TIP3   OH241872   4.273   3.324  15.187 -0.4528 -0.5886  0.1914
 6794TIP3    H141873   4.233   3.254  15.239 -0.9941  0.6276  1.4427
 6794TIP3    H241874   4.208   3.394  15.187  0.7455  0.5416  0.2993
 6795TIP3   OH241875   2.151   6.619  14.526  0.5661  0.8733 -0.0150
 6795TIP3    H141876   2.102   6.686  14.573  0.5172  0.7520  0.1092
 6795TIP3    H241877   2.117   6.622  14.437  0.2798  0.7337  0.0920
 6796TIP3   OH241878   2.916   0.399  13.818 -0.1622  0.0349 -0.1975
 6796TIP3    H141879   2.838   0.383  13.765 -0.1112  0.8590 -0.5198
 6796TIP3    H241880   2.885   0.454  13.890 -0.1736 -0.8448  0.4818
 6797TIP3   OH241881   2.325   7.119   1.002  0.1149 -0.1688  0.5068
 6797TIP3    H141882   2.294   7.132   1.091 -0.8923  0.5205  0.0630
 6797TIP3    H241883   2.364   7.031   1.003  0.9185  0.1818  1.8275
 6798TIP3   OH241884   2.624   0.867  13.994 -0.4858  0.2940  0.5630
 6798TIP3    H141885   2.666   0.912  14.068 -0.3157 -0.8497  1.1693
 6798TIP3    H241886   2.536   0.848  14.024 -0.8142  0.9110  0.0139
 6799TIP3   OH241887   0.785   7.307  12.866 -0.3473  0.3161  0.4103
 6799TIP3    H141888   0.800   7.391  12.823  0.0520 -0.2530 -0.5843
 6799TIP3    H241889   0.869   7.284  12.904 -0.0007 -0.4368 -0.7806
 6800TIP3   OH241890   0.997   2.007  12.890  0.1255 -0.2837 -0.1824
 6800TIP3    H141891   1.032   2.092  12.917  1.7868 -1.6597  2.2507
 6800TIP3    H241892   1.054   1.980  12.818  0.0720  0.3478 -0.4595
 6801TIP3   OH241893   4.507   1.102  13.988 -0.1195  0.4779 -0.1146
 6801TIP3    H141894   4.464   1.131  14.069 -1.0484  0.2039 -0.5096
 6801TIP3    H241895   4.534   1.183  13.945 -1.1999  0.7005 -0.3887
 6802TIP3   OH241896   4.040   3.743  13.151 -0.1299 -0.1793 -0.1907
 6802TIP3    H141897   4.019   3.673  13.213 -2.9165  0.9350  0.2101
 6802TIP3    H241898   4.135   3.737  13.138 -0.0732 -2.8691  1.1977
 6803TIP3   OH241899   3.600   5.403  14.454  0.0922  0.0546  0.1296
 6803TIP3    H141900   3.622   5.492  14.484  0.3054 -0.5431  1.8254
 6803TIP3    H241901   3.533   5.374  14.516 -1.3767 -0.2552 -1.5821
 6804TIP3   OH241902   3.986   6.927  14.323 -0.0274 -0.2269  0.2703
 6804TIP3    H141903   3.935   6.862  14.275  0.8357 -0.9116  0.2813
 6804TIP3    H241904   4.050   6.959  14.259  1.6172 -1.6799  1.1485
 6805TIP3   OH241905   2.660   0.374   0.088  0.5791  0.0124  0.8391
 6805TIP3    H141906   2.591   0.440   0.086  0.1819 -0.3341  2.2488
 6805TIP3    H241907   2.613   0.291   0.074  1.0902  0.0312 -1.0627
 6806TIP3   OH241908   0.976   2.098  12.537  0.0264 -0.0811  0.1852
 6806TIP3    H141909   1.030   2.033  12.583 -0.8930 -1.3170 -0.4654
 6806TIP3    H241910   0.902   2.113  12.595  1.7887  2.8012  1.8178
 6807TIP3   OH241911   4.528   7.171  14.744 -0.3097  0.1065 -0.1981
 6807TIP3    H141912   4.530   7.141  14.835 -0.9607 -2.5865 -1.0181
 6807TIP3    H241913   4.613   7.214  14.731  0.0753 -0.1190  1.4684
 6808TIP3   OH241914   4.277   0.925   1.555 -0.4403  0.4728  0.0959
 6808TIP3    H141915   4.294   1.001   1.499 -0.1841  0.6673  0.4408
 6808TIP3    H241916   4.224   0.867   1.500 -0.6890  0.9251 -0.1467
 6809TIP3   OH241917   7.005   4.244  14.258  0.1718  0.5607  0.2346
 6809TIP3    H141918   7.002   4.205  14.170 -1.2322  0.3711  0.3683
 6809TIP3    H241919   7.077   4.198  14.302 -1.3974 -1.8446  0.3647
 6810TIP3   OH241920   4.476   0.230  14.613  0.5533 -0.0716 -0.3876
 6810TIP3    H141921   4.433   0.144  14.613  0.9294 -0.2610  1.0786
 6810TIP3    H241922   4.569   0.210  14.626  0.6102  0.5680  0.2030
 6811TIP3   OH241923   2.477   0.108  13.812 -0.0045  0.0079  0.2329
 6811TIP3    H141924   2.508   0.018  13.822 -0.1154  0.1765  2.1745
 6811TIP3    H241925   2.423   0.124  13.889 -0.6496  1.4826 -0.5036
 6812TIP3   OH241926   0.886   2.603  15.085  0.1404  0.2348 -0.5729
 6812TIP3    H141927   0.840   2.526  15.118 -0.2953 -0.3825 -2.5687
 6812TIP3    H241928   0.887   2.663  15.159 -1.6680 -0.7339  0.2804
 6813TIP3   OH241929   2.159   2.239  12.666 -0.1440 -0.1577 -0.2946
 6813TIP3    H141930   2.239   2.212  12.621 -1.0141 -1.0077 -1.3518
 6813TIP3    H241931   2.090   2.229  12.601 -1.1045  0.7044  0.5631
 6814TIP3   OH241932   2.624   1.581  15.885  0.2696  0.5951  0.1114
 6814TIP3    H141933   2.597   1.656  15.833 -0.3193 -0.8901 -1.7891
 6814TIP3    H241934   2.554   1.516  15.871  0.0943  0.1719  2.7719
 6815TIP3   OH241935   2.139   2.882  13.110 -0.2081  0.3829 -0.5372
 6815TIP3    H141936   2.154   2.831  13.031 -0.1402 -0.6113  0.1078
 6815TIP3    H241937   2.226   2.917  13.133  0.3776 -1.9153  0.8442
 6816TIP3   OH241938   6.744   1.054   0.592  0.1055 -0.2639 -0.2477
 6816TIP3    H141939   6.661   1.066   0.639  0.6320 -1.5006  1.0274
 6816TIP3    H241940   6.811   1.083   0.655  0.7081 -0.0279 -0.9821
 6817TIP3   OH241941   0.210   0.830  15.066  0.7867 -0.4915 -0.6606
 6817TIP3    H141942   0.272   0.834  15.139  0.2834  0.5292 -0.2894
 6817TIP3    H241943   0.226   0.744  15.026 -0.9486 -2.3439  2.4404
 6818TIP3   OH241944   3.125   1.465  13.480  0.2974  0.2131  0.1334
 6818TIP3    H141945   3.194   1.509  13.431 -1.1979  0.1797 -2.0839
 6818TIP3    H241946   3.131   1.373  13.454 -1.6351  0.4969 -1.4052
 6819TIP3   OH241947   1.848   1.735  12.648 -0.2012 -0.1871 -0.0301
 6819TIP3    H141948   1.877   1.645  12.629 -0.0562  0.2004 -1.7047
 6819TIP3    H241949   1.811   1.730  12.736 -0.2718 -1.9137 -0.1427
 6820TIP3   OH241950   2.099   1.187   0.740 -0.0711 -0.3341  0.8675
 6820TIP3    H141951   2.116   1.240   0.818  0.2834 -0.2506  0.7343
 6820TIP3    H241952   2.055   1.109   0.772 -0.5276  0.0065  1.0775
 6821TIP3   OH241953   0.093   6.162   0.887  0.2797  0.8632 -0.4910
 6821TIP3    H141954   0.141   6.096   0.938 -0.0686  0.8385 -0.1943
 6821TIP3    H241955   0.101   6.131   0.797 -0.6389 -0.0739 -0.2587
 6822TIP3   OH241956   2.371   1.063  14.655 -0.1124 -0.1104 -0.6848
 6822TIP3    H141957   2.342   1.037  14.742  0.2165  0.0445 -0.5256
 6822TIP3    H241958   2.405   0.983  14.616  0.2750 -0.0596 -0.4528
 6823TIP3   OH241959   0.239   6.783   0.161 -0.8793 -0.1973  0.4165
 6823TIP3    H141960   0.282   6.867   0.172  0.3584 -0.8132  0.3766
 6823TIP3    H241961   0.150   6.804   0.133 -0.9025  1.1173  1.4453
 6824TIP3   OH241962   4.224   2.240  13.698 -0.1388  0.3111  0.4545
 6824TIP3    H141963   4.301   2.205  13.744  0.8111  2.8188  0.8439
 6824TIP3    H241964   4.200   2.318  13.748 -1.9314  0.4793 -0.6522
 6825TIP3   OH241965   3.870   1.262  15.050  0.3435 -0.4431  0.1119
 6825TIP3    H141966   3.954   1.309  15.045  0.6256 -0.8423  0.9958
 6825TIP3    H241967   3.888   1.176  15.012 -0.2339  0.2258 -1.7213
 6826TIP3   OH241968   1.862   1.555  11.829 -0.4516 -0.2510  0.4424
 6826TIP3    H141969   1.780   1.563  11.877 -1.4721 -0.0305 -1.3046
 6826TIP3    H241970   1.843   1.493  11.759  0.8835 -0.2356  0.0510
 6827TIP3   OH241971   4.022   0.699  15.368  0.1693 -0.1905 -0.0502
 6827TIP3    H141972   3.981   0.767  15.314 -1.3733 -0.5636  0.6265
 6827TIP3    H241973   4.115   0.703  15.344  0.4363  3.3074  1.1541
 6828TIP3   OH241974   2.531   6.189  15.750  0.3287  0.7475  0.0298
 6828TIP3    H141975   2.575   6.144  15.678 -0.7972  1.3112 -1.0368
 6828TIP3    H241976   2.591   6.258  15.776  1.4046 -0.4039  0.6545
 6829TIP3   OH241977   6.879   0.047   0.298 -0.6079 -0.0367  0.1310
 6829TIP3    H141978   6.803   0.017   0.249 -1.7795 -0.3514  2.0920
 6829TIP3    H241979   6.864   0.018   0.387  0.9103  1.5345  0.9473
 6830TIP3   OH241980   4.237   0.886  14.424  0.1497 -0.0154  0.0493
 6830TIP3    H141981   4.152   0.917  14.394 -0.1311 -1.0590 -0.2555
 6830TIP3    H241982   4.298   0.955  14.400 -0.9006  1.6728  2.0854
 6831TIP3   OH241983   5.163   1.369  14.775  0.0395 -0.1423 -0.2675
 6831TIP3    H141984   5.139   1.453  14.735 -1.9006 -0.8791 -0.7394
 6831TIP3    H241985   5.219   1.392  14.849  1.7769  1.3944 -1.9990
 6832TIP3   OH241986   3.202   7.183   0.848  0.3460 -0.0182  0.0934
 6832TIP3    H141987   3.238   7.096   0.866  0.1908 -0.5921 -2.1291
 6832TIP3    H241988   3.199   7.226   0.933  1.9029 -1.6299  1.0105
 6833TIP3   OH241989   4.106   6.216   0.675  1.1049 -0.1272  0.2847
 6833TIP3    H141990   4.121   6.122   0.686  0.4051 -0.2052  0.6025
 6833TIP3    H241991   4.063   6.223   0.590  1.5246 -0.0582  0.0805
 6834TIP3   OH241992   1.313   7.297  14.082 -0.1698 -0.3400  0.1116
 6834TIP3    H141993   1.343   7.378  14.122  0.4524 -0.7345  0.4570
 6834TIP3    H241994   1.336   7.306  13.989  1.2712 -0.7417  0.4165
 6835TIP3   OH241995   2.495   0.608  12.818 -0.9345  0.4516  0.1067
 6835TIP3    H141996   2.514   0.684  12.762 -0.7121  0.8492  0.7230
 6835TIP3    H241997   2.442   0.643  12.889 -1.1030 -0.0338  0.2203
 6836TIP3   OH241998   2.922   0.292   1.298  0.3283 -0.0852 -0.4352
 6836TIP3    H141999   2.950   0.288   1.389  1.5078 -0.6859 -0.8092
 6836TIP3    H242000   2.982   0.233   1.252 -2.2762 -2.3145 -1.1174
 6837TIP3   OH242001   2.059   6.495   4.004  0.2573  0.2462  0.1017
 6837TIP3    H142002   2.013   6.563   4.053  1.1678  1.1968 -0.3353
 6837TIP3    H242003   2.016   6.494   3.918  0.3963  0.4378  0.0295
 6838TIP3   OH242004   3.988   6.902   0.815 -0.7390  0.5186 -0.0778
 6838TIP3    H142005   4.034   6.879   0.734  1.5883  1.6488  0.8754
 6838TIP3    H242006   3.987   6.998   0.816 -3.2332  0.5218 -0.1055
 6839TIP3   OH242007   2.400   5.893   0.793  0.1485 -0.2953 -0.8917
 6839TIP3    H142008   2.487   5.918   0.761  0.3253 -0.0230 -0.1993
 6839TIP3    H242009   2.373   5.964   0.850 -0.5320 -0.3861 -1.0898
 6840TIP3   OH242010   4.082   5.568  12.431 -0.6216  0.2637  0.2645
 6840TIP3    H142011   4.153   5.627  12.406  0.7601 -1.2181  0.5991
 6840TIP3    H242012   4.003   5.611  12.401  0.5843  0.9750 -1.9592
 6841TIP3   OH242013   0.336   6.618  14.581  0.0829 -0.1694 -0.4012
 6841TIP3    H142014   0.396   6.685  14.612  0.4032 -0.0542 -1.2639
 6841TIP3    H242015   0.253   6.663  14.567  0.0098 -0.1698  0.0344
 6842TIP3   OH242016   1.497   0.710   0.838 -0.4144  0.2180 -0.0116
 6842TIP3    H142017   1.530   0.800   0.836  1.1373 -0.3445 -0.6745
 6842TIP3    H242018   1.467   0.693   0.749  1.9466 -0.8452 -0.6488
 6843TIP3   OH242019   1.965   2.263  15.640 -0.5287 -0.1628 -0.0719
 6843TIP3    H142020   2.036   2.252  15.704 -0.5001  0.0367 -0.0678
 6843TIP3    H242021   1.888   2.226  15.683 -0.6864  0.6951  0.4054
 6844TIP3   OH242022   3.328   2.789  13.551 -0.1745  0.3219 -0.3996
 6844TIP3    H142023   3.236   2.763  13.553 -0.5747  1.6314 -0.9193
 6844TIP3    H242024   3.335   2.858  13.618  0.6204 -0.3758  0.2434
 6845TIP3   OH242025   3.820   4.560  14.295  0.5665  0.3726 -0.3772
 6845TIP3    H142026   3.780   4.526  14.375 -0.0931  0.4905 -0.6575
 6845TIP3    H242027   3.896   4.503  14.281  0.8295  0.5039  0.4623
 6846TIP3   OH242028   3.599   1.196   1.847  0.0437  0.1913  0.2535
 6846TIP3    H142029   3.605   1.233   1.935  1.4804  0.5854  0.0126
 6846TIP3    H242030   3.507   1.203   1.823 -0.3271  0.2128  1.6670
 6847TIP3   OH242031   2.757   0.274  14.045 -0.0766  0.0945  0.0625
 6847TIP3    H142032   2.791   0.205  13.988  0.0813  0.6135 -0.4852
 6847TIP3    H242033   2.820   0.280  14.117  0.2182  0.0622 -0.1905
 6848TIP3   OH242034   3.558   1.053  12.378 -0.1479  0.3767 -0.2999
 6848TIP3    H142035   3.530   1.114  12.447 -1.9373 -0.5101 -0.2155
 6848TIP3    H242036   3.568   0.969  12.423  0.3903  0.1802 -0.7853
 6849TIP3   OH242037   2.755   3.153  14.469 -0.5936 -0.7227 -0.1075
 6849TIP3    H142038   2.679   3.110  14.430 -1.0595 -0.7584  0.8057
 6849TIP3    H242039   2.818   3.160  14.398 -0.9935 -1.7921 -0.5795
 6850TIP3   OH242040   3.867   2.440  14.308 -0.2452  0.0789 -0.0782
 6850TIP3    H142041   3.927   2.515  14.309 -0.2761  0.1375  2.2683
 6850TIP3    H242042   3.883   2.396  14.225  2.9112  0.2249  0.4040
 6851TIP3   OH242043   4.097   7.200  15.512 -0.0969 -0.2244 -0.7515
 6851TIP3    H142044   4.149   7.128  15.547  1.4410  1.0312 -0.3904
 6851TIP3    H242045   4.115   7.199  15.418 -1.6936 -1.5647 -1.0775
 6852TIP3   OH242046   5.091   3.566  14.825  0.0994  0.6416  0.0987
 6852TIP3    H142047   5.009   3.611  14.805  1.1583  1.7599 -1.8700
 6852TIP3    H242048   5.072   3.474  14.809 -0.7506  0.8995 -0.4136
 6853TIP3   OH242049   1.501   6.043  14.758 -0.1952  0.5436  0.2862
 6853TIP3    H142050   1.434   5.987  14.720  0.7590 -0.5757  0.2120
 6853TIP3    H242051   1.502   6.018  14.851  1.1045 -0.4865  0.0101
 6854TIP3   OH242052   1.542   2.013  14.632 -0.3178  0.1418 -0.2281
 6854TIP3    H142053   1.478   2.058  14.686  0.0664 -0.6922  0.9359
 6854TIP3    H242054   1.554   1.927  14.674 -0.1293 -0.5779 -1.7048
 6855TIP3   OH242055   3.605   4.968  15.591  1.0872  0.0873  0.0697
 6855TIP3    H142056   3.591   5.051  15.546  1.0912 -0.6922 -1.4359
 6855TIP3    H242057   3.564   4.979  15.677 -1.5577  0.6645 -1.2019
 6856TIP3   OH242058   2.302   0.779   0.973 -0.1617  0.2199 -0.5547
 6856TIP3    H142059   2.292   0.793   1.067 -2.4581  0.9930 -0.8925
 6856TIP3    H242060   2.280   0.686   0.960 -0.0972  0.1790 -0.3791
 6857TIP3   OH242061   4.061   6.791  14.613  0.1247 -0.3830 -0.3565
 6857TIP3    H142062   4.153   6.779  14.635  0.2799 -0.0383 -0.8198
 6857TIP3    H242063   4.021   6.707  14.634 -0.0034  0.3475  2.5780
 6858TIP3   OH242064   2.670   0.985  15.981 -0.6806  0.7493 -0.7248
 6858TIP3    H142065   2.650   1.024  16.066  0.4393  0.8128 -0.4853
 6858TIP3    H242066   2.764   0.971  15.982 -0.8982 -0.8143 -1.3108
 6859TIP3   OH242067   2.922   0.427   0.175  0.5275 -0.6659  0.2436
 6859TIP3    H142068   2.839   0.394   0.140  0.8157  0.4629 -1.6019
 6859TIP3    H242069   2.976   0.349   0.187  0.0621 -1.1785 -0.9309
 6860TIP3   OH242070   3.393   0.827  15.682  0.0638  0.1795  0.4695
 6860TIP3    H142071   3.374   0.735  15.667 -1.6335  0.9336 -2.1916
 6860TIP3    H242072   3.488   0.831  15.687  0.1180 -1.9290  2.4066
 6861TIP3   OH242073   3.358   1.233   0.896 -0.1412 -0.4756 -0.1870
 6861TIP3    H142074   3.445   1.223   0.935  0.9771  1.1309 -2.1928
 6861TIP3    H242075   3.359   1.173   0.821 -0.7327 -0.3718 -0.2766
 6862TIP3   OH242076   2.373   0.549  15.136 -0.2623  0.1104  0.5475
 6862TIP3    H142077   2.377   0.489  15.062  1.8426 -0.8927  1.4226
 6862TIP3    H242078   2.290   0.528  15.180 -0.1476 -1.2695  0.1078
 6863TIP3   OH242079   3.359   7.070  14.502 -0.1378  0.1957 -0.2123
 6863TIP3    H142080   3.436   7.089  14.449 -1.3053 -2.2567 -2.9473
 6863TIP3    H242081   3.392   7.010  14.570  0.9768  1.7518  0.6444
 6864TIP3   OH242082   3.607   0.905  12.803 -0.4135 -0.4085 -0.1080
 6864TIP3    H142083   3.546   0.863  12.863 -2.5036 -0.4584 -2.1941
 6864TIP3    H242084   3.627   0.989  12.844  0.4089 -1.5763  1.9807
 6865TIP3   OH242085   4.092   6.584  13.790  0.6825 -0.1491  0.6991
 6865TIP3    H142086   4.173   6.587  13.738  0.6289  1.3217  0.6936
 6865TIP3    H242087   4.117   6.623  13.874  0.0042  0.1983  0.7376
 6866TIP3   OH242088   3.095   0.201  15.924  0.2299 -0.0357 -0.4396
 6866TIP3    H142089   3.036   0.276  15.915  0.3285  0.1170  0.1461
 6866TIP3    H242090   3.109   0.170  15.835 -1.2964 -0.4979 -0.5316
 6867TIP3   OH242091   3.181   0.945  13.731 -0.7753  0.3931  0.5258
 6867TIP3    H142092   3.116   0.874  13.741  0.1941 -0.4738  0.7653
 6867TIP3    H242093   3.255   0.917  13.784 -0.0904  1.2555  0.0318
 6868TIP3   OH242094   3.605   1.137  13.364  0.5787  0.1264 -0.6200
 6868TIP3    H142095   3.514   1.110  13.357  0.4225 -0.6617  3.3300
 6868TIP3    H242096   3.656   1.057  13.347  0.5098  0.1840 -1.1156
 6869TIP3   OH242097   3.422   1.859  14.850 -0.4110  0.3380 -0.0323
 6869TIP3    H142098   3.344   1.841  14.903  0.2529  0.2566  0.9381
 6869TIP3    H242099   3.419   1.795  14.779  0.0600 -1.2774  1.3802
 6870TIP3   OH242100   1.957   6.450  14.031 -0.8634  0.7101  0.2745
 6870TIP3    H142101   2.014   6.376  14.050 -0.1743  0.8762 -1.0998
 6870TIP3    H242102   1.870   6.421  14.055 -0.8957 -1.2508 -2.0601
 6871TIP3   OH242103   2.708   0.562  15.427  0.1877 -0.1122  0.0631
 6871TIP3    H142104   2.695   0.473  15.393  0.6578  0.4348 -1.6025
 6871TIP3    H242105   2.635   0.613  15.391  1.0599  0.6246 -0.6736
 6872TIP3   OH242106   1.604   6.693  15.840  0.1322 -0.1428  0.2528
 6872TIP3    H142107   1.620   6.751  15.765  0.9402 -0.0361  0.4947
 6872TIP3    H242108   1.634   6.607  15.810 -2.0579 -0.6642 -0.4748
 6873TIP3   OH242109   2.585   6.629   1.916  0.4068  0.3677 -0.0609
 6873TIP3    H142110   2.614   6.593   1.832  1.6175  0.9318  0.0973
 6873TIP3    H242111   2.544   6.712   1.893  0.0474  0.1572 -0.1735
 6874TIP3   OH242112   3.226   1.800  15.033  0.3067  0.5225 -0.2198
 6874TIP3    H142113   3.135   1.783  15.055 -0.2970  0.8670 -2.3517
 6874TIP3    H242114   3.273   1.724  15.066 -0.7866  0.2246  0.6773
 6875TIP3   OH242115   2.352   5.194   3.195  0.0260  0.3126  0.1117
 6875TIP3    H142116   2.330   5.287   3.184 -2.9599 -0.2270  0.9489
 6875TIP3    H242117   2.332   5.155   3.110  2.1221  0.5625 -0.5127
 6876TIP3   OH242118   2.097   2.228   0.948 -0.3378 -0.0015 -0.1302
 6876TIP3    H142119   2.032   2.234   0.879 -1.1203  0.5691  0.6545
 6876TIP3    H242120   2.061   2.278   1.021  0.0220 -1.3912  1.0482
 6877TIP3   OH242121   2.598   0.108  15.966 -0.0480  0.2049 -0.4256
 6877TIP3    H142122   2.671   0.095  16.026  0.5834  1.4251 -0.9157
 6877TIP3    H242123   2.635   0.094  15.879 -0.2811  1.2985 -0.7043
 6878TIP3   OH242124   2.785   3.346  15.020 -0.2970  0.0403 -0.5540
 6878TIP3    H142125   2.746   3.396  15.092 -0.8653 -0.5924 -0.4252
 6878TIP3    H242126   2.832   3.275  15.063  1.3645  1.0342 -0.6805
 6879TIP3   OH242127   0.561   0.744   0.026 -0.1134 -0.4051 -0.2682
 6879TIP3    H142128   0.512   0.679   0.076 -1.8743  0.6968 -0.5364
 6879TIP3    H242129   0.612   0.791   0.092  0.7934 -1.7062 -0.0180
 6880TIP3   OH242130   4.832   1.061  15.014 -0.6647 -0.2169  0.1237
 6880TIP3    H142131   4.747   1.046  14.972 -1.2222  0.9594  0.8034
 6880TIP3    H242132   4.888   1.093  14.943 -1.1510  0.2105 -0.0776
 6881TIP3   OH242133   1.142   1.915  15.619 -0.4202 -0.3121 -0.4642
 6881TIP3    H142134   1.146   1.914  15.523  1.8490 -1.2778 -0.3750
 6881TIP3    H242135   1.185   1.996  15.644 -1.0358 -0.0472 -0.2411
 6882TIP3   OH242136   1.883   1.025  15.343  0.2974 -0.7027  0.0330
 6882TIP3    H142137   1.946   1.040  15.272  0.1425  2.6883  0.5690
 6882TIP3    H242138   1.798   1.040  15.303  0.1576  0.2887  0.7045
 6883TIP3   OH242139   0.010   1.829  14.153 -0.9095  0.4631  0.1876
 6883TIP3    H142140  -0.040   1.748  14.168  0.1280  0.0224  1.3927
 6883TIP3    H242141   0.097   1.811  14.190  0.2564  1.1014 -2.1811
 6884TIP3   OH242142   1.913   0.563  14.432  0.7707  0.2084  0.5282
 6884TIP3    H142143   1.989   0.515  14.465  0.1109 -0.2507  1.3924
 6884TIP3    H242144   1.880   0.509  14.361  1.2890  0.4480  0.0973
 6885TIP3   OH242145   0.976   6.590  14.618 -0.2637 -0.2073 -0.1996
 6885TIP3    H142146   1.012   6.511  14.659 -2.6685 -2.4002 -2.1128
 6885TIP3    H242147   0.882   6.575  14.616 -0.7336  2.6508 -0.8053
 6886TIP3   OH242148   3.984   0.230   0.088  0.1274 -0.3270  0.4761
 6886TIP3    H142149   3.967   0.188   0.004  0.1816  0.1275  0.2372
 6886TIP3    H242150   3.982   0.158   0.151  1.2805 -0.8504 -0.0664
 6887TIP3   OH242151   1.562   0.915   0.366 -0.0852 -0.5274 -0.3478
 6887TIP3    H142152   1.546   0.975   0.293 -1.2989 -0.5922 -0.1423
 6887TIP3    H242153   1.531   0.830   0.334  0.9942 -0.9163 -0.3855
 6888TIP3   OH242154   1.720   0.386  15.645 -0.7058  0.2041  0.1058
 6888TIP3    H142155   1.728   0.461  15.705  1.4179  1.3899 -1.6124
 6888TIP3    H242156   1.782   0.322  15.678 -1.7252 -0.3929  0.9177
 6889TIP3   OH242157   0.539   0.261  15.457  0.0434 -0.1108  0.1279
 6889TIP3    H142158   0.577   0.338  15.498  0.2239  0.3073 -0.8261
 6889TIP3    H242159   0.448   0.260  15.487 -0.7806  2.1156 -2.1862
 6890TIP3   OH242160   6.932   0.035  14.765  0.2083  0.3231  0.2219
 6890TIP3    H142161   6.936   0.066  14.856  0.5867  0.8670  0.0236
 6890TIP3    H242162   6.997  -0.035  14.762 -0.6267 -0.4904  0.6628
 6891TIP3   OH242163   2.182   0.416  13.707 -0.2010  0.3056  0.5622
 6891TIP3    H142164   2.100   0.383  13.744 -1.8840  1.1976 -2.1997
 6891TIP3    H242165   2.195   0.501  13.750  0.6145 -0.8960  2.7796
 6892TIP3   OH242166   2.596   2.460  13.540  0.2603  0.0395  0.6524
 6892TIP3    H142167   2.623   2.534  13.486 -0.7711  0.0268  0.0934
 6892TIP3    H242168   2.633   2.477  13.626  2.0605 -0.0132 -0.0990
 6893TIP3   OH242169   0.811   5.682  15.023 -0.7990  0.1460  0.7262
 6893TIP3    H142170   0.879   5.663  15.088  0.2248  0.0607 -0.3596
 6893TIP3    H242171   0.785   5.596  14.990 -0.7806  0.2371  0.4770
 6894TIP3   OH242172   3.874   0.781   0.420  0.7392 -0.3001 -0.1310
 6894TIP3    H142173   3.928   0.833   0.480 -0.1914 -1.2413  1.5346
 6894TIP3    H242174   3.831   0.846   0.365  1.7211  0.5662  0.0954
 6895TIP3   OH242175   2.949   2.393  12.991 -0.2519  0.3632  0.2528
 6895TIP3    H142176   3.037   2.358  13.004 -0.7560 -0.2174  2.1926
 6895TIP3    H242177   2.954   2.482  13.026 -0.3752  0.4235  0.1168
 6896TIP3   OH242178   1.822   1.219  12.673 -0.0561  0.8209 -0.0420
 6896TIP3    H142179   1.894   1.215  12.735  0.3890  1.2717 -0.5241
 6896TIP3    H242180   1.827   1.137  12.624 -0.1148  0.6806  0.1857
 6897TIP3   OH242181   0.067   7.217   0.064  0.5729 -0.1329 -0.6195
 6897TIP3    H142182   0.132   7.185   0.001 -0.7386 -2.6780 -0.7259
 6897TIP3    H242183   0.114   7.218   0.148  1.4643  0.4989 -1.1089
 6898TIP3   OH242184   2.136   5.409  15.962  0.5131 -0.1831  0.9036
 6898TIP3    H142185   2.128   5.468  15.887  2.1466  0.6435  1.3369
 6898TIP3    H242186   2.091   5.455  16.033 -0.7212 -0.8015  0.5319
 6899TIP3   OH242187   3.379   2.015  14.034 -0.8612  0.9404 -0.0272
 6899TIP3    H142188   3.423   1.959  13.969  0.8347  1.2018  0.8561
 6899TIP3    H242189   3.445   2.080  14.057 -1.5587  1.0469  1.7295
 6900TIP3   OH242190   2.629   5.706   2.001 -0.1837  0.4283 -0.1217
 6900TIP3    H142191   2.551   5.651   1.999 -0.1397  0.3339  0.5114
 6900TIP3    H242192   2.702   5.645   1.994 -0.1863  0.6357 -2.2458
 6901TIP3   OH242193   3.720   4.876   1.090 -0.1666  0.3621  0.1269
 6901TIP3    H142194   3.642   4.915   1.051  0.0291 -0.2938 -0.9330
 6901TIP3    H242195   3.700   4.872   1.184 -0.7152  1.7591  0.0745
 6902TIP3   OH242196   6.252   3.267  14.317 -0.3395  0.0228  0.2478
 6902TIP3    H142197   6.317   3.314  14.265 -0.6117  0.0593 -0.0641
 6902TIP3    H242198   6.226   3.329  14.385  0.6257 -0.3150  0.9414
 6903TIP3   OH242199   4.588   1.715  15.921 -0.1934 -0.1849 -0.1613
 6903TIP3    H142200   4.639   1.637  15.941  0.5404  0.9721  2.7472
 6903TIP3    H242201   4.498   1.692  15.944 -0.0933 -0.3994  0.0051
 6904TIP3   OH242202   3.270   3.405  15.831  0.5597 -0.3188 -0.0787
 6904TIP3    H142203   3.218   3.329  15.858 -1.0211  0.9567  0.5985
 6904TIP3    H242204   3.206   3.477  15.828  1.7363  0.6688 -2.1650
 6905TIP3   OH242205   5.041   2.489   1.489 -0.6291  0.5643 -0.4509
 6905TIP3    H142206   4.989   2.526   1.561  1.4115 -1.4072  2.1493
 6905TIP3    H242207   5.096   2.561   1.459 -2.4517  1.7640 -0.9558
 6906TIP3   OH242208   4.814   0.424  12.974  0.3002 -0.4090  0.2089
 6906TIP3    H142209   4.853   0.493  12.920  2.8955 -1.7381  0.3032
 6906TIP3    H242210   4.842   0.342  12.933  0.7660 -1.4326  2.4738
 6907TIP3   OH242211   4.946   1.416  14.975  0.2380  0.0155  0.1967
 6907TIP3    H142212   4.971   1.397  14.885  0.4141 -0.8473  0.4272
 6907TIP3    H242213   5.010   1.369  15.028 -0.7011 -0.6267  0.7778
 6908TIP3   OH242214   2.445   0.347   0.286 -0.3924  0.6932  0.0154
 6908TIP3    H142215   2.521   0.403   0.297  0.0724  0.0899 -0.0953
 6908TIP3    H242216   2.450   0.284   0.358 -0.6586  0.5148 -0.1198
 6909TIP3   OH242217   3.636   2.040  14.890  0.1166 -0.1194 -0.3032
 6909TIP3    H142218   3.626   2.131  14.862  0.9210  0.4203  1.0670
 6909TIP3    H242219   3.550   2.016  14.924  0.6149  1.0797  1.9099
 6910TIP3   OH242220   4.162   1.326  12.349 -0.7867  0.3044 -0.3625
 6910TIP3    H142221   4.082   1.360  12.389 -0.2608  1.3286 -0.1591
 6910TIP3    H242222   4.225   1.323  12.421 -0.4044  0.2923 -0.6967
 6911TIP3   OH242223   4.625   2.068  14.504 -0.3868  0.4303  0.1630
 6911TIP3    H142224   4.673   2.093  14.424 -1.0551  0.0200 -0.3669
 6911TIP3    H242225   4.666   1.987  14.532  0.4712  1.0620  0.7716
 6912TIP3   OH242226   3.784   6.090   0.703 -0.5070 -0.2056  0.9704
 6912TIP3    H142227   3.827   6.163   0.748  0.3930 -0.1059 -0.0365
 6912TIP3    H242228   3.758   6.030   0.773  0.5319  0.1323  1.6475
 6913TIP3   OH242229   2.960   0.558  15.375 -0.6148 -0.5681  0.2171
 6913TIP3    H142230   2.979   0.644  15.413 -0.0585 -0.6907  0.2184
 6913TIP3    H242231   2.867   0.544  15.392 -0.4553 -0.4529  1.1887
 6914TIP3   OH242232   4.826   7.251  15.171 -0.5981  0.0906 -0.3431
 6914TIP3    H142233   4.740   7.290  15.154 -1.3783 -1.8326 -0.9062
 6914TIP3    H242234   4.821   7.218  15.260 -0.5166 -0.2508 -0.4659
 6915TIP3   OH242235   5.465   6.667  14.868  0.0817  0.7092 -0.4248
 6915TIP3    H142236   5.510   6.629  14.943 -2.5167 -0.6671  0.4828
 6915TIP3    H242237   5.464   6.761  14.886 -1.1509  0.3260  1.6610
 6916TIP3   OH242238   5.048   1.638  15.073  0.7425  0.4129 -0.0082
 6916TIP3    H142239   5.095   1.572  15.124  2.8944  1.7209 -0.2437
 6916TIP3    H242240   4.985   1.589  15.022  1.8311 -1.3924  0.3532
 6917TIP3   OH242241   4.365   2.137   0.652  0.2672 -0.1745 -0.1993
 6917TIP3    H142242   4.379   2.143   0.747 -1.1617  0.8984 -0.0494
 6917TIP3    H242243   4.453   2.125   0.616  0.8232 -0.6105  1.2614
 6918TIP3   OH242244   4.214   0.520  13.600  0.6474 -0.0187 -0.3102
 6918TIP3    H142245   4.199   0.612  13.578  1.3931 -0.0027 -0.7691
 6918TIP3    H242246   4.265   0.523  13.681 -0.0059 -0.0442  0.1067
 6919TIP3   OH242247   4.620   2.450  13.850  0.1997 -0.0195  0.0514
 6919TIP3    H142248   4.617   2.389  13.777  1.3943  0.8542 -0.7595
 6919TIP3    H242249   4.625   2.537  13.809 -0.5931  0.5711  1.1743
 6920TIP3   OH242250   5.802   3.269  14.703  0.2325  0.1651 -0.3550
 6920TIP3    H142251   5.768   3.187  14.668 -0.9560 -0.2532  1.7046
 6920TIP3    H242252   5.886   3.281  14.659 -0.7454 -0.8341 -2.5623
 6921TIP3   OH242253   3.837   1.828  14.352  0.0104 -0.1383  0.0067
 6921TIP3    H142254   3.818   1.843  14.260  2.2127 -0.1060 -0.4600
 6921TIP3    H242255   3.753   1.841  14.396 -0.8480  0.8519 -1.8668
 6922TIP3   OH242256   4.240   0.305  14.858 -0.0307 -0.3964  0.3537
 6922TIP3    H142257   4.257   0.255  14.938  2.5954 -0.6693 -0.3086
 6922TIP3    H242258   4.186   0.248  14.804  1.2073 -1.7054  0.4723
 6923TIP3   OH242259   4.393   2.918  13.765  0.2886  0.4239 -0.3383
 6923TIP3    H142260   4.396   2.840  13.821  1.4973 -0.8825 -2.1477
 6923TIP3    H242261   4.300   2.934  13.751  0.0125 -0.0749  0.8779
 6924TIP3   OH242262   3.362   3.442  13.018  0.1513 -0.1910 -0.4397
 6924TIP3    H142263   3.381   3.387  13.094  0.5244 -0.2392 -0.5659
 6924TIP3    H242264   3.441   3.496  13.007 -0.8614  1.6076  0.7472
 6925TIP3   OH242265   5.474   0.749   1.282  0.2117 -0.0507  0.0318
 6925TIP3    H142266   5.549   0.780   1.231  0.3932  1.1304  1.0090
 6925TIP3    H242267   5.429   0.829   1.309 -1.7121 -0.7530 -0.9781
 6926TIP3   OH242268   4.922   1.629  14.249  0.0941  0.2646 -0.2504
 6926TIP3    H142269   4.977   1.561  14.286 -0.8997 -1.2442 -1.4615
 6926TIP3    H242270   4.982   1.685  14.200  0.5280 -1.6279 -1.9354
 6927TIP3   OH242271   5.682   6.899   1.223  0.2404  0.5206  0.5869
 6927TIP3    H142272   5.707   6.823   1.170  0.3875  0.4577  0.7429
 6927TIP3    H242273   5.746   6.966   1.200 -0.7903  1.0889 -0.6544
 6928TIP3   OH242274   3.542   2.006  13.586  0.0312 -0.6580  0.1667
 6928TIP3    H142275   3.464   2.047  13.623 -0.2114 -0.9260 -0.0435
 6928TIP3    H242276   3.508   1.946  13.519  0.3872 -1.1395  0.4127
 6929TIP3   OH242277   5.323   3.650  13.570  0.5377 -0.0187  0.4130
 6929TIP3    H142278   5.403   3.620  13.527  0.7191  2.6312 -1.2204
 6929TIP3    H242279   5.340   3.741  13.592 -1.3925  0.0647  1.6732
 6930TIP3   OH242280   3.062   1.754  15.246  0.1700  0.2901  0.4150
 6930TIP3    H142281   3.043   1.840  15.284  1.0684  0.6584  0.0368
 6930TIP3    H242282   3.130   1.717  15.302 -0.2138 -0.1811  0.5755
 6931TIP3   OH242283   4.538   5.663  14.245 -0.2247  0.2828 -0.6755
 6931TIP3    H142284   4.503   5.713  14.319  1.9871 -1.1187  1.3670
 6931TIP3    H242285   4.587   5.728  14.194  0.1854  0.7917  0.3552
 6932TIP3   OH242286   0.613   0.861  12.523 -0.1538  0.1851  0.0982
 6932TIP3    H142287   0.530   0.874  12.478  0.3659  0.8493 -0.6715
 6932TIP3    H242288   0.619   0.933  12.585 -0.8759 -0.7371  1.2540
 6933TIP3   OH242289   5.237   1.507  13.480  0.2785  0.3921 -0.3606
 6933TIP3    H142290   5.253   1.465  13.395 -0.7209 -0.1560 -0.2853
 6933TIP3    H242291   5.324   1.521  13.517  0.6944  0.0710 -1.2061
 6934TIP3   OH242292   4.194   0.761  13.481 -0.1263  0.1233 -0.0296
 6934TIP3    H142293   4.271   0.812  13.455  0.3949  0.1868  1.6052
 6934TIP3    H242294   4.123   0.825  13.484  0.2169  0.4808  0.5771
 6935TIP3   OH242295   6.170   2.786  12.088  0.3229 -0.6041 -0.1487
 6935TIP3    H142296   6.225   2.821  12.158 -0.1691  0.6034 -0.3595
 6935TIP3    H242297   6.150   2.862  12.033 -0.6539 -1.2381 -0.6818
 6936TIP3   OH242298   3.153   1.678  13.834  0.4824  0.2688  0.2288
 6936TIP3    H142299   3.168   1.586  13.853 -2.1059 -0.1478  0.4559
 6936TIP3    H242300   3.127   1.717  13.918 -3.1289  0.1280 -0.7336
 6937TIP3   OH242301   4.459   1.664   1.331  0.5416  0.1900  0.0819
 6937TIP3    H142302   4.444   1.665   1.237  0.5871  1.3073  0.0746
 6937TIP3    H242303   4.529   1.728   1.345  0.6454 -0.0856  0.8500
 6938TIP3   OH242304   3.733   2.344   0.055  0.0566 -0.6772  0.4087
 6938TIP3    H142305   3.649   2.347   0.010  0.9774  1.1359 -1.2594
 6938TIP3    H242306   3.790   2.293  -0.003  1.0116  0.9575 -0.1369
 6939TIP3   OH242307   4.449   1.543  14.080  0.3717  0.5204 -0.0084
 6939TIP3    H142308   4.495   1.557  13.997 -1.0056 -0.8783 -1.0554
 6939TIP3    H242309   4.441   1.630  14.118  1.1769  1.1582 -1.2643
 6940TIP3   OH242310   4.790   0.407   0.329 -0.2488 -0.5011 -0.5363
 6940TIP3    H142311   4.720   0.472   0.319  0.4226  0.1842 -0.8068
 6940TIP3    H242312   4.832   0.405   0.243 -0.8102 -1.9351 -0.7914
 6941TIP3   OH242313   5.027   1.399  14.187 -0.1383  0.0823  0.1607
 6941TIP3    H142314   4.950   1.344  14.201 -0.5145  0.5008 -0.2512
 6941TIP3    H242315   5.005   1.453  14.111  0.6093  0.1123 -0.0447
 6942TIP3   OH242316   4.263   2.503   0.015  0.2912 -0.8793 -0.6241
 6942TIP3    H142317   4.327   2.459   0.072 -1.6677 -1.3531  1.2770
 6942TIP3    H242318   4.261   2.593   0.048 -1.8915 -1.5007  1.0723
 6943TIP3   OH242319   2.277   1.431  13.719 -0.4706  0.1414 -0.0321
 6943TIP3    H142320   2.184   1.441  13.740 -0.4061 -0.2811  0.4358
 6943TIP3    H242321   2.314   1.385  13.793 -0.3484 -1.8451 -1.3002
 6944TIP3   OH242322   4.343   2.838   3.606  0.0137  0.1012  0.7195
 6944TIP3    H142323   4.251   2.832   3.578 -0.7150 -0.3761  3.1215
 6944TIP3    H242324   4.365   2.930   3.593 -0.5447  0.0721 -0.6063
 6945TIP3   OH242325   2.017   1.614  14.761 -0.6997 -0.0959 -0.2303
 6945TIP3    H142326   1.977   1.652  14.839 -0.0769 -0.6698  0.3766
 6945TIP3    H242327   2.072   1.684  14.725 -2.4351  0.7867 -1.2239
 6946TIP3   OH242328   4.605   3.457  13.206  0.4296  0.1443  0.0830
 6946TIP3    H142329   4.701   3.457  13.208  0.4629  0.1488 -1.0632
 6946TIP3    H242330   4.581   3.546  13.230  0.7210  0.2004  0.1695
 6947TIP3   OH242331   7.220   6.220  11.592 -0.0481  0.1964 -0.2316
 6947TIP3    H142332   7.187   6.157  11.528  1.0060  0.1324 -0.7163
 6947TIP3    H242333   7.178   6.302  11.569 -0.6289 -0.0952 -0.2343
 6948TIP3   OH242334   2.310   2.485  15.439 -0.0330 -0.1584  0.2979
 6948TIP3    H142335   2.289   2.561  15.385  0.9082 -0.6024 -0.7088
 6948TIP3    H242336   2.226   2.440  15.451 -0.0123 -0.9665 -2.2123
 6949TIP3   OH242337   4.058   2.379  15.488  0.4687 -0.5116 -0.3229
 6949TIP3    H142338   4.117   2.391  15.563 -0.0651 -1.7159  0.3125
 6949TIP3    H242339   4.117   2.374  15.412  1.1594 -1.1929  0.2445
 6950TIP3   OH242340   6.581   0.103  15.458  0.1863 -0.3581  0.2152
 6950TIP3    H142341   6.624   0.163  15.519 -0.9213  0.8022 -0.1394
 6950TIP3    H242342   6.638   0.026  15.457  2.4843  1.3019 -0.5778
 6951TIP3   OH242343   4.242   2.743   0.188  0.2535  0.5830  0.3016
 6951TIP3    H142344   4.319   2.791   0.219  1.5676 -0.4993 -1.2097
 6951TIP3    H242345   4.198   2.716   0.269  0.8171  2.1869  1.1821
 6952TIP3   OH242346   1.370   1.334  10.894  0.8973  0.0003  0.0129
 6952TIP3    H142347   1.376   1.275  10.969 -2.2499 -1.5976 -0.8938
 6952TIP3    H242348   1.353   1.420  10.933 -2.6025 -1.1172  1.1963
 6953TIP3   OH242349   4.485   2.473  14.278 -0.3234 -0.4603  0.8158
 6953TIP3    H142350   4.576   2.464  14.304 -0.5977 -0.8744  1.6539
 6953TIP3    H242351   4.466   2.566  14.289  0.1492 -0.2792  0.1175
 6954TIP3   OH242352   3.358   1.558  13.353 -0.6034 -0.4829  0.0432
 6954TIP3    H142353   3.372   1.531  13.262  0.2619  1.1409 -0.3403
 6954TIP3    H242354   3.421   1.506  13.403  0.9493  0.6532 -0.6574
 6955TIP3   OH242355   5.736   2.123  13.905 -0.2414  0.8779 -0.0891
 6955TIP3    H142356   5.795   2.198  13.902 -0.6043  1.1811  0.2623
 6955TIP3    H242357   5.790   2.048  13.882  0.0786  1.2792 -0.6346
 6956TIP3   OH242358   4.756   1.492  15.887 -0.4682  0.1697  0.0233
 6956TIP3    H142359   4.728   1.428  15.822 -2.7902  0.9470  0.1985
 6956TIP3    H242360   4.803   1.441  15.953 -3.5794 -1.6617  0.9479
 6957TIP3   OH242361   5.365   1.412   0.162 -0.0726 -0.3855  0.2491
 6957TIP3    H142362   5.433   1.400   0.095  0.5619 -0.0783  0.8271
 6957TIP3    H242363   5.414   1.413   0.244 -0.7199  0.5070  0.6162
 6958TIP3   OH242364   6.893   5.496  14.772 -0.1098  0.1670 -0.4455
 6958TIP3    H142365   6.884   5.449  14.689  1.0309  1.7291 -1.4717
 6958TIP3    H242366   6.938   5.577  14.749  0.5705  0.4439  1.7641
 6959TIP3   OH242367   2.418   1.423  15.829 -0.6661  0.0727  0.0434
 6959TIP3    H142368   2.385   1.396  15.743 -1.1933  1.2315 -0.1169
 6959TIP3    H242369   2.341   1.425  15.885 -0.3659 -0.3935  0.4854
 6960TIP3   OH242370   3.451   0.896  15.169  0.1913  0.3628  0.7255
 6960TIP3    H142371   3.544   0.874  15.175  0.2348  0.1162 -0.5306
 6960TIP3    H242372   3.418   0.886  15.258  1.1938 -0.3521  1.0322
 6961TIP3   OH242373   4.079   6.218  13.237 -0.5751  0.0508  0.0916
 6961TIP3    H142374   4.023   6.295  13.248  0.4503  1.0375 -1.4254
 6961TIP3    H242375   4.025   6.156  13.188 -0.6645  0.6505 -0.5799
 6962TIP3   OH242376   4.423   3.261  13.290 -0.0051  0.0193 -0.3879
 6962TIP3    H142377   4.503   3.302  13.258 -0.2749  0.8999  0.0475
 6962TIP3    H242378   4.361   3.333  13.299 -0.1325 -0.2840  1.5062
 6963TIP3   OH242379   2.398   1.886  15.619 -0.4776  0.3800 -0.6191
 6963TIP3    H142380   2.456   1.932  15.680  1.1678 -0.5590 -1.4502
 6963TIP3    H242381   2.385   1.800  15.659  0.4491 -0.1697 -1.4622
 6964TIP3   OH242382   2.705   2.086  15.359 -0.1306 -0.2303  0.2323
 6964TIP3    H142383   2.667   2.162  15.403 -1.4537 -1.7030  1.6826
 6964TIP3    H242384   2.648   2.071  15.284  1.6679  1.7962 -1.6013
 6965TIP3   OH242385   4.120   1.505  14.510 -0.2567 -0.3491  0.2740
 6965TIP3    H142386   4.095   1.583  14.559  0.4724 -0.0448  0.1673
 6965TIP3    H242387   4.056   1.499  14.439 -1.0820 -0.5697  1.0315
 6966TIP3   OH242388   3.128   4.429   0.408 -0.0188 -0.1289  0.2467
 6966TIP3    H142389   3.201   4.369   0.391 -0.1230  0.5280 -2.7012
 6966TIP3    H242390   3.051   4.384   0.373 -0.1608  1.5116 -1.6234
 6967TIP3   OH242391   3.198   7.187  15.169 -0.7207  0.4403  0.0410
 6967TIP3    H142392   3.239   7.222  15.091  0.4088 -0.8737  0.0240
 6967TIP3    H242393   3.116   7.149  15.138 -0.0952 -0.4177 -0.5763
 6968TIP3   OH242394   5.212   7.121  15.502 -0.4871  0.9036 -0.0039
 6968TIP3    H142395   5.193   7.173  15.423  1.4252  0.2741 -0.8942
 6968TIP3    H242396   5.259   7.044  15.470 -0.8862 -0.0400  1.6176
 6969TIP3   OH242397   4.090   2.245  14.397 -0.5357 -0.5238 -0.5895
 6969TIP3    H142398   4.167   2.265  14.344  1.0020  0.5082  1.9696
 6969TIP3    H242399   4.026   2.312  14.372 -0.0226 -0.3746 -1.5317
 6970TIP3   OH242400   2.920   0.823  15.470  0.4163 -0.0037 -0.4751
 6970TIP3    H142401   2.895   0.809  15.379 -1.8217  0.3115  0.0659
 6970TIP3    H242402   2.905   0.917  15.484 -0.9878 -0.3879  0.7078
 6971TIP3   OH242403   4.520   0.331  14.237  0.1826 -0.2613 -0.0057
 6971TIP3    H142404   4.572   0.364  14.311  0.8514  0.7174 -0.9068
 6971TIP3    H242405   4.538   0.237  14.235  1.5967  0.0061 -0.0691
 6972TIP3   OH242406   5.876   2.582   1.652 -0.0928  0.6991 -0.3041
 6972TIP3    H142407   5.931   2.660   1.660 -1.9802  1.6661  4.6494
 6972TIP3    H242408   5.791   2.615   1.623  0.3621 -0.1714 -2.7731
 6973TIP3   OH242409   5.455   1.169  15.167 -0.1407  0.3012  0.3042
 6973TIP3    H142410   5.500   1.119  15.099  1.1232  0.6010  0.9038
 6973TIP3    H242411   5.424   1.103  15.229  0.5406  0.1717  0.5125
 6974TIP3   OH242412   4.344   3.296  13.756 -0.4391 -0.1259 -0.0344
 6974TIP3    H142413   4.280   3.233  13.722 -1.0556 -0.1037  1.0540
 6974TIP3    H242414   4.428   3.265  13.724 -0.8771 -0.7943 -0.5521
 6975TIP3   OH242415   2.454   1.082  15.049  0.0937 -0.3284  0.0096
 6975TIP3    H142416   2.431   1.174  15.035  0.5762 -0.4233 -1.5723
 6975TIP3    H242417   2.373   1.041  15.078  0.2439  0.8929  2.2382
 6976TIP3   OH242418   3.457   0.430  15.174 -0.4078 -0.5240 -0.1980
 6976TIP3    H142419   3.444   0.347  15.130 -0.2442 -1.3477  1.2764
 6976TIP3    H242420   3.371   0.472  15.172 -1.1646 -1.9105  1.3728
 6977TIP3   OH242421   6.584   6.450  14.333  0.4415  0.3828 -0.0400
 6977TIP3    H142422   6.574   6.486  14.245 -0.5315  0.2684  0.0260
 6977TIP3    H242423   6.495   6.429  14.361  1.1120 -3.8957 -0.8459
 6978TIP3   OH242424   5.847   3.540  15.699 -0.1610 -0.1151 -0.6737
 6978TIP3    H142425   5.858   3.506  15.610  0.5238  0.4707 -0.8212
 6978TIP3    H242426   5.907   3.615  15.703 -1.3320  0.8062 -0.2190
 6979TIP3   OH242427   2.881   1.087  15.476 -0.0178  0.3934  0.3201
 6979TIP3    H142428   2.837   1.141  15.410 -0.4589  0.0341  0.3075
 6979TIP3    H242429   2.950   1.142  15.511  1.5487 -0.1041 -1.8940
 6980TIP3   OH242430   5.947   0.601   0.039 -0.0498 -0.6645 -0.2292
 6980TIP3    H142431   5.961   0.664   0.110  2.3121 -0.2343 -1.0408
 6980TIP3    H242432   5.921   0.655  -0.036 -2.9469 -1.1562  0.3739
 6981TIP3   OH242433   2.779   0.632  13.936 -0.2837 -0.0398 -0.2998
 6981TIP3    H142434   2.734   0.716  13.946  0.2292  0.1077  0.8434
 6981TIP3    H242435   2.709   0.569  13.921 -0.8338  0.2802  0.8575
 6982TIP3   OH242436   4.979   6.606   0.077 -0.2610  0.5211 -0.0642
 6982TIP3    H142437   4.943   6.682   0.030  1.4385  0.5607 -1.3640
 6982TIP3    H242438   4.968   6.533   0.017  1.3190  0.4382 -0.2821
 6983TIP3   OH242439   3.387   1.666  15.229 -0.4594 -0.2946 -0.0179
 6983TIP3    H142440   3.463   1.686  15.174 -1.8111  1.1054 -1.4199
 6983TIP3    H242441   3.394   1.728  15.302  1.9334 -2.8691  2.0793
 6984TIP3   OH242442   5.443   1.557   0.743  0.6601 -0.6888 -0.1020
 6984TIP3    H142443   5.464   1.643   0.779 -1.4703  0.5681 -1.7556
 6984TIP3    H242444   5.349   1.559   0.728  0.5541 -3.3537 -0.0866
 6985TIP3   OH242445   1.621   7.266  14.416 -0.0119  0.0717 -0.2173
 6985TIP3    H142446   1.658   7.345  14.376  0.9513  0.4100  1.3385
 6985TIP3    H242447   1.642   7.196  14.354  2.2982  0.4318  0.1497
 6986TIP3   OH242448   6.093   7.253   2.144  0.3185  0.6995 -0.4707
 6986TIP3    H142449   6.108   7.164   2.112  0.3494  0.6989 -0.4558
 6986TIP3    H242450   6.015   7.245   2.199  1.0479  0.4244  0.5582
 6987TIP3   OH242451   3.997   1.517  15.721 -0.8986 -0.1135 -0.1522
 6987TIP3    H142452   4.055   1.593  15.725  0.2293 -0.9988  0.9068
 6987TIP3    H242453   3.911   1.552  15.743 -0.4188  0.8762  0.2049
 6988TIP3   OH242454   6.230   0.622  14.574  0.1925  0.0820  0.2039
 6988TIP3    H142455   6.225   0.714  14.548 -0.3024 -0.3411 -1.2921
 6988TIP3    H242456   6.222   0.573  14.492 -2.3777 -1.3473  1.2289
 6989TIP3   OH242457   4.636   1.646  11.925 -0.4114 -0.1443  0.0972
 6989TIP3    H142458   4.576   1.701  11.976  0.1155 -0.6556  1.2910
 6989TIP3    H242459   4.722   1.687  11.937 -0.2513 -0.4021 -0.1823
 6990TIP3   OH242460   4.043   0.597  14.998 -0.0281  0.1844 -0.4757
 6990TIP3    H142461   4.097   0.674  14.981  0.7253 -0.2592 -0.1204
 6990TIP3    H242462   4.064   0.537  14.927  0.0493 -0.0400 -0.2650
 6991TIP3   OH242463   3.865   0.222   0.514 -0.1529 -0.1203  0.2828
 6991TIP3    H142464   3.870   0.301   0.460  2.1564 -0.3557  0.1335
 6991TIP3    H242465   3.887   0.250   0.602 -1.2193 -0.2581  0.6051
 6992TIP3   OH242466   4.560   1.336   2.027 -0.1352  0.2630 -0.3472
 6992TIP3    H142467   4.560   1.259   1.971 -0.7173  0.3270 -0.4370
 6992TIP3    H242468   4.495   1.317   2.095 -0.3450  0.7045 -0.4203
 6993TIP3   OH242469   4.737   2.269   0.750 -0.1991 -0.5250 -0.5415
 6993TIP3    H142470   4.658   2.229   0.787 -0.6181 -1.4627 -2.4115
 6993TIP3    H242471   4.779   2.311   0.825 -1.6097 -1.4241  0.7965
 6994TIP3   OH242472   5.305   0.162  15.947  0.3070  0.1659 -0.1374
 6994TIP3    H142473   5.374   0.096  15.936  0.5753  0.2667  0.9333
 6994TIP3    H242474   5.308   0.213  15.866  1.4377  0.1114 -0.1352
 6995TIP3   OH242475   4.143   1.449  12.058 -0.3473 -0.1726  0.4266
 6995TIP3    H142476   4.175   1.436  12.147  0.0027  1.2886  0.5374
 6995TIP3    H242477   4.059   1.404  12.055 -0.2479 -0.4220  1.4309
 6996TIP3   OH242478   5.347   2.099  14.175  0.3954 -0.1553  0.2467
 6996TIP3    H142479   5.392   2.145  14.104 -1.5735  0.8958 -0.3523
 6996TIP3    H242480   5.315   2.168  14.232  1.4413 -0.9765  1.8561
 6997TIP3   OH242481   5.198   1.177   1.153 -0.0508 -0.5540 -0.1654
 6997TIP3    H142482   5.213   1.213   1.241 -1.2642 -0.6698  0.1029
 6997TIP3    H242483   5.126   1.115   1.165  0.6587 -1.5518 -1.0067
 6998TIP3   OH242484   4.256   1.339  13.903 -0.5213 -0.2357  0.2679
 6998TIP3    H142485   4.214   1.266  13.858  0.4296  0.1978 -1.3319
 6998TIP3    H242486   4.343   1.345  13.864  0.8131 -0.6754  3.0474
 6999TIP3   OH242487   5.538   2.448  13.290  0.0998 -0.3978  0.1610
 6999TIP3    H142488   5.493   2.366  13.309  1.0386 -1.0554 -0.4512
 6999TIP3    H242489   5.629   2.432  13.311  0.0998  0.8798  1.2054
 7000TIP3   OH242490   3.455   0.757  14.902 -0.3263  0.0610  0.2153
 7000TIP3    H142491   3.528   0.779  14.844  0.6291  1.6276  1.9405
 7000TIP3    H242492   3.459   0.822  14.972 -3.2830  0.0597  0.4663
 7001TIP3   OH242493   4.788   2.367  15.114  0.3626  0.5589  0.2525
 7001TIP3    H142494   4.812   2.279  15.084 -3.2458 -0.8674  1.2113
 7001TIP3    H242495   4.828   2.375  15.201  0.4180 -0.2744  0.3047
 7002TIP3   OH242496   6.242   0.466  15.200 -0.4638 -0.5829  0.6650
 7002TIP3    H142497   6.225   0.393  15.141 -0.1946  0.5863 -0.9020
 7002TIP3    H242498   6.159   0.514  15.205  0.2941  0.9847 -1.1533
 7003TIP3   OH242499   5.340   3.606  14.255 -0.7051  0.3495  0.5921
 7003TIP3    H142500   5.292   3.553  14.319 -2.4769 -0.0477 -0.9997
 7003TIP3    H242501   5.409   3.547  14.224 -0.9615 -0.0884  0.8338
 7004TIP3   OH242502   4.406   2.346   0.185  0.0658 -0.3573 -0.0061
 7004TIP3    H142503   4.365   2.297   0.256 -1.5774  1.8098  0.5888
 7004TIP3    H242504   4.466   2.406   0.229  0.6071 -0.4559 -0.6023
 7005TIP3   OH242505   6.664   3.486  13.158 -0.0292  0.3792 -0.0697
 7005TIP3    H142506   6.749   3.445  13.173 -0.3292 -0.4030 -0.4549
 7005TIP3    H242507   6.613   3.419  13.114 -0.1882  1.5804 -1.7369
 7006TIP3   OH242508   4.518   3.914   0.062 -0.3091 -0.3462  0.3545
 7006TIP3    H142509   4.458   3.988   0.055 -0.6922 -0.6784  0.1136
 7006TIP3    H242510   4.538   3.908   0.155 -0.7198 -0.2910  0.4458
 7007TIP3   OH242511   3.447   0.830  14.377 -0.1088 -0.6293  0.2426
 7007TIP3    H142512   3.432   0.748  14.425 -3.4437  0.2288  0.8340
 7007TIP3    H242513   3.435   0.898  14.443 -1.6207  0.4654 -1.1311
 7008TIP3   OH242514   2.053   1.288   1.274  0.5157  0.3485  0.3086
 7008TIP3    H142515   2.138   1.272   1.233  0.7290  1.0397  0.4609
 7008TIP3    H242516   2.073   1.295   1.367  0.3440  0.7963  0.3146
 7009TIP3   OH242517   6.623   7.191  14.235 -0.2070  0.0621  0.1344
 7009TIP3    H142518   6.545   7.244  14.251 -0.7442 -0.7772  0.3763
 7009TIP3    H242519   6.662   7.229  14.157 -0.1212  1.3180  0.7746
 7010TIP3   OH242520   6.316   0.122  14.086 -0.3390  0.5410  0.3286
 7010TIP3    H142521   6.237   0.075  14.059  0.2653  0.1296 -0.7776
 7010TIP3    H242522   6.325   0.193  14.022  0.3514  0.3936  0.2542
 7011TIP3   OH242523   3.733   2.517   1.189  0.3292  0.6866  0.4149
 7011TIP3    H142524   3.773   2.498   1.274  0.2757 -1.5948 -0.0452
 7011TIP3    H242525   3.790   2.475   1.125 -0.4513  1.0898 -0.5648
 7012TIP3   OH242526   4.695   6.028  15.811 -0.0915  0.4172 -0.5962
 7012TIP3    H142527   4.617   6.052  15.760  0.4305  1.0380 -1.1231
 7012TIP3    H242528   4.761   6.008  15.745  0.7657  1.7931 -0.1917
 7013TIP3   OH242529   7.039   6.893  14.103 -0.4850  0.2950  0.3310
 7013TIP3    H142530   7.027   6.987  14.096 -0.0292  0.3326  0.0570
 7013TIP3    H242531   7.060   6.878  14.195 -1.8974  0.3099  0.6681
 7014TIP3   OH242532   4.977   6.327  14.876 -0.2762 -0.3171  0.2772
 7014TIP3    H142533   5.020   6.352  14.794  0.3628  0.4800  0.8578
 7014TIP3    H242534   4.973   6.408  14.927 -3.6276 -0.0345 -0.2824
 7015TIP3   OH242535   6.050   4.775  14.759 -0.0407 -0.2920 -0.0441
 7015TIP3    H142536   6.111   4.732  14.819 -0.6736  0.5288  1.1982
 7015TIP3    H242537   5.969   4.723  14.766  0.3336 -1.0617 -1.2889
 7016TIP3   OH242538   0.530   3.875  13.776  0.0238  0.3402 -0.1805
 7016TIP3    H142539   0.601   3.926  13.815  0.4781  0.9392 -1.7548
 7016TIP3    H242540   0.544   3.786  13.809  2.3727  0.1440 -1.5669
 7017TIP3   OH242541   3.143   7.265  14.485 -0.3259 -0.2467  0.0059
 7017TIP3    H142542   3.171   7.354  14.506 -0.2781 -0.5023  1.0101
 7017TIP3    H242543   3.213   7.209  14.518 -0.4261 -0.6767 -0.4968
 7018TIP3   OH242544   3.919   1.478  12.360  0.2032  0.7191  0.6503
 7018TIP3    H142545   3.828   1.451  12.367  0.7245 -0.3888  3.7327
 7018TIP3    H242546   3.914   1.573  12.346 -1.4132  0.4418 -0.8910
 7019TIP3   OH242547   3.658   1.508  14.660  0.1680  0.0424  0.3831
 7019TIP3    H142548   3.579   1.534  14.708 -0.5236  1.2808 -1.3722
 7019TIP3    H242549   3.718   1.582  14.671 -0.8760  1.4235 -2.5416
 7020TIP3   OH242550   5.428   0.458  15.619 -0.0326 -0.0910 -0.9574
 7020TIP3    H142551   5.419   0.506  15.702 -0.3559  0.0015 -1.0415
 7020TIP3    H242552   5.508   0.493  15.579  0.8463 -1.0671 -0.0795
 7021TIP3   OH242553   4.402   7.316  14.559 -0.2845 -0.0441 -0.1040
 7021TIP3    H142554   4.479   7.315  14.503 -0.1107  1.6004  0.0908
 7021TIP3    H242555   4.428   7.266  14.637 -0.2731 -1.6620 -1.1081
 7022TIP3   OH242556   5.271   2.027  13.142  0.3653 -0.1768 -0.0974
 7022TIP3    H142557   5.312   2.041  13.227  1.9879 -1.1047 -0.7003
 7022TIP3    H242558   5.213   1.951  13.155  0.4008 -0.1478  0.2351
 7023TIP3   OH242559   4.200   5.998  13.901 -0.1637  0.1871  0.7766
 7023TIP3    H142560   4.235   5.909  13.901 -0.0050  0.2493  0.0399
 7023TIP3    H242561   4.222   6.032  13.988 -1.0442 -0.8125  1.3978
 7024TIP3   OH242562   3.848   3.147  14.744  0.3024  0.1956  0.1062
 7024TIP3    H142563   3.759   3.154  14.711  0.0250  0.2276  0.8415
 7024TIP3    H242564   3.894   3.222  14.707  0.2553 -0.2891 -0.9642
 7025TIP3   OH242565   5.524   6.140  13.391  0.9186  0.2344  0.1609
 7025TIP3    H142566   5.601   6.127  13.336  0.6274  0.8162 -0.3903
 7025TIP3    H242567   5.515   6.235  13.397 -1.3033  0.2029 -1.9830
 7026TIP3   OH242568   2.634   2.569  14.041 -0.7998 -0.1550  0.4576
 7026TIP3    H142569   2.604   2.656  14.066  2.3940  1.3912 -0.9748
 7026TIP3    H242570   2.697   2.544  14.109 -0.9595 -0.9505  0.3289
 7027TIP3   OH242571   4.032   3.151  15.296  0.4908  0.0896 -0.1939
 7027TIP3    H142572   3.953   3.202  15.312  2.1006  2.9021 -0.7360
 7027TIP3    H242573   4.011   3.097  15.220 -1.4316 -0.3945  0.6788
 7028TIP3   OH242574   3.717   0.741  14.743  0.0090 -0.6357  0.0523
 7028TIP3    H142575   3.755   0.828  14.742  0.0026 -0.5635  2.8808
 7028TIP3    H242576   3.788   0.683  14.717  0.9245 -0.0922  1.2977
 7029TIP3   OH242577   4.408   2.759  14.047 -0.4998  0.8816 -0.2673
 7029TIP3    H142578   4.358   2.841  14.048 -0.1307  1.0989  0.3645
 7029TIP3    H242579   4.499   2.786  14.051 -0.3748  0.4340 -0.0776
 7030TIP3   OH242580   5.360   3.882   0.640  0.2255 -0.8627 -0.1147
 7030TIP3    H142581   5.284   3.857   0.693 -0.2444 -2.4674 -1.5186
 7030TIP3    H242582   5.420   3.923   0.703 -0.6911 -1.9413  1.5114
 7031TIP3   OH242583   3.931   1.644  11.927  0.5521  0.2738 -0.2945
 7031TIP3    H142584   4.018   1.609  11.907  1.7520  2.3358  1.1383
 7031TIP3    H242585   3.893   1.581  11.989  0.9047 -0.7357 -1.0755
 7032TIP3   OH242586   2.868   1.729   0.643  0.3495  0.4001  0.3986
 7032TIP3    H142587   2.816   1.649   0.637  0.0880  0.6461 -0.7405
 7032TIP3    H242588   2.958   1.699   0.649  0.4246  0.0342 -2.0255
 7033TIP3   OH242589   3.446   3.457  13.979  0.4424  0.0710  0.1603
 7033TIP3    H142590   3.394   3.399  14.035  1.7776 -0.0227  1.3425
 7033TIP3    H242591   3.445   3.415  13.893 -0.2349 -0.6671  0.5233
 7034TIP3   OH242592   5.951   1.579   0.044 -0.3797 -0.1905 -0.0422
 7034TIP3    H142593   6.007   1.518   0.091  1.8689  0.4547 -1.7807
 7034TIP3    H242594   5.971   1.564  -0.048 -0.3045  2.6451 -0.5497
 7035TIP3   OH242595   4.689   4.221  14.837  0.7040 -0.6043 -0.2823
 7035TIP3    H142596   4.727   4.133  14.823  2.7588 -0.1483  1.9971
 7035TIP3    H242597   4.753   4.280  14.797 -0.4159 -0.0893 -1.3368
 7036TIP3   OH242598   4.230   0.776  14.968  0.3498 -0.1254 -0.1891
 7036TIP3    H142599   4.259   0.799  14.880 -1.6494  2.2915 -0.2723
 7036TIP3    H242600   4.303   0.803  15.025  0.1334  1.8125 -0.7887
 7037TIP3   OH242601   4.888   7.064  15.842 -0.4175  0.8051  0.4401
 7037TIP3    H142602   4.941   7.007  15.898  0.6664  0.3361 -1.0215
 7037TIP3    H242603   4.873   7.143  15.895 -0.7230 -0.2400  1.9492
 7038TIP3   OH242604   4.348   2.520  13.748  0.1539 -0.1751  0.3528
 7038TIP3    H142605   4.431   2.564  13.766  0.1728 -0.1942  0.3149
 7038TIP3    H242606   4.372   2.445  13.694  0.2205 -0.6811  1.0812
 7039TIP3   OH242607   2.501   0.260  14.118  0.2794  0.2207  0.0964
 7039TIP3    H142608   2.584   0.267  14.072 -0.5390  0.3417 -1.4047
 7039TIP3    H242609   2.476   0.168  14.110 -0.4698  0.4911 -0.8209
 7040TIP3   OH242610   4.359   0.462  11.943  0.0589  0.6731 -0.0199
 7040TIP3    H142611   4.300   0.515  11.997 -0.4579 -0.2377  0.3167
 7040TIP3    H242612   4.424   0.524  11.910 -1.4578  1.8195 -0.9120
 7041TIP3   OH242613   3.047   1.226  14.653 -0.1502  0.2027  0.4291
 7041TIP3    H142614   3.000   1.271  14.723 -2.2367 -1.3799  0.1040
 7041TIP3    H242615   3.066   1.139  14.689  0.7112  0.1265 -0.1998
 7042TIP3   OH242616   6.459   0.475  14.237  0.3004  0.3553 -0.4410
 7042TIP3    H142617   6.524   0.500  14.303  0.7649  1.7143 -1.3917
 7042TIP3    H242618   6.462   0.546  14.172 -1.6945  0.1249 -0.8148
 7043TIP3   OH242619   5.223   1.840   0.392  0.0307  0.4895  0.0622
 7043TIP3    H142620   5.204   1.920   0.441 -0.0309  0.5369 -0.0382
 7043TIP3    H242621   5.186   1.857   0.305 -0.6508  0.0637  0.2624
 7044TIP3   OH242622   5.689   7.284  13.648 -0.2248  0.3144  0.2602
 7044TIP3    H142623   5.696   7.189  13.663 -0.9219  0.7066  3.4388
 7044TIP3    H242624   5.598   7.297  13.622  0.2524 -0.0223 -1.6948
 7045TIP3   OH242625   4.838   0.510   0.021  0.5444 -0.3619 -0.2255
 7045TIP3    H142626   4.921   0.468  -0.001  0.0103 -0.1278 -2.7697
 7045TIP3    H242627   4.820   0.569  -0.052 -1.1673  0.6480  0.9685
 7046TIP3   OH242628   4.498   1.005  15.144  0.0567  0.0615 -0.6616
 7046TIP3    H142629   4.560   0.983  15.213  0.3027  0.3438 -0.7969
 7046TIP3    H242630   4.488   0.924  15.094 -0.3683 -0.2383 -0.1055
 7047TIP3   OH242631   5.680   0.742   0.751  0.2181  0.6449  0.4907
 7047TIP3    H142632   5.673   0.836   0.734  0.8837  0.0382 -3.9267
 7047TIP3    H242633   5.597   0.706   0.718  0.1573 -0.3690  1.7204
 7048TIP3   OH242634   3.147   1.380   1.365  0.1397 -0.1002 -0.4460
 7048TIP3    H142635   3.134   1.286   1.378 -0.3004  0.0018 -0.1044
 7048TIP3    H242636   3.166   1.389   1.272 -0.0239 -0.5083 -0.5214
 7049TIP3   OH242637   5.506   2.890  13.063 -0.2449  0.1138 -0.0765
 7049TIP3    H142638   5.546   2.906  12.977  1.0004 -1.7605  0.1344
 7049TIP3    H242639   5.549   2.953  13.121 -0.2461  0.5815 -0.5718
 7050TIP3   OH242640   4.361   6.964  14.994 -0.1584 -0.2401  0.1371
 7050TIP3    H142641   4.371   7.053  15.029  0.1873 -0.0442 -0.4385
 7050TIP3    H242642   4.272   6.962  14.959  0.3954  0.4328 -1.3457
 7051TIP3   OH242643   2.427   1.424   0.789  0.0850 -0.5191  0.0558
 7051TIP3    H142644   2.495   1.358   0.800 -0.5862 -0.7636  3.3929
 7051TIP3    H242645   2.473   1.508   0.796  0.4730 -0.6372 -0.9624
 7052TIP3   OH242646   5.983   0.463  15.363  0.2314 -0.4941 -0.8135
 7052TIP3    H142647   6.067   0.431  15.396  0.3307 -0.3387 -0.9130
 7052TIP3    H242648   5.937   0.385  15.331  0.0713 -0.6626 -0.1657
 7053TIP3   OH242649   3.007   7.010  14.208 -0.7477  0.5148 -0.3249
 7053TIP3    H142650   2.962   6.954  14.144 -0.7281 -0.2209  0.2949
 7053TIP3    H242651   2.969   6.984  14.292  2.6449 -1.9480  0.5202
 7054TIP3   OH242652   4.249   0.376  14.302  0.6950  0.3917  0.7120
 7054TIP3    H142653   4.330   0.368  14.252 -0.1466 -2.1272 -0.3319
 7054TIP3    H242654   4.198   0.442  14.256  2.1187  1.9875  1.3725
 7055TIP3   OH242655   3.479   7.014   0.652  0.3146  0.3633  0.0978
 7055TIP3    H142656   3.507   7.104   0.664  1.7076 -0.4235  3.0801
 7055TIP3    H242657   3.397   7.007   0.699 -0.2365  0.2816 -0.8620
 7056TIP3   OH242658   4.175   3.420  14.451 -1.1893  0.1754 -0.2027
 7056TIP3    H142659   4.181   3.327  14.472 -2.0272 -0.0739 -1.0366
 7056TIP3    H242660   4.121   3.424  14.372  2.4268  1.0478 -2.7438
 7057TIP3   OH242661   4.872   2.152   0.571 -0.3851  0.8976 -0.0416
 7057TIP3    H142662   4.837   2.193   0.491 -0.2869 -0.6178 -0.8803
 7057TIP3    H242663   4.814   2.181   0.640 -0.1234  2.7339 -0.5477
 7058TIP3   OH242664   3.376   2.310  14.385  0.2530  0.2317 -0.2056
 7058TIP3    H142665   3.409   2.391  14.347  0.7534  0.4099  0.6084
 7058TIP3    H242666   3.453   2.268  14.424 -0.1164 -0.3245 -0.0691
 7059TIP3   OH242667   1.173   3.508  13.822 -0.0839  0.1056  0.1686
 7059TIP3    H142668   1.117   3.584  13.806 -0.7850 -0.1954  1.1469
 7059TIP3    H242669   1.113   3.441  13.855  0.6126 -0.7113 -0.2223
 7060TIP3   OH242670   3.729   3.138  13.141  0.0194 -0.1937  0.3110
 7060TIP3    H142671   3.755   3.117  13.051  2.1470 -1.4126  1.1718
 7060TIP3    H242672   3.697   3.055  13.177  0.3771 -0.0017  1.0764
 7061TIP3   OH242673   6.324   2.377  14.040  0.0971  0.4558 -0.2814
 7061TIP3    H142674   6.329   2.322  13.962 -0.0083 -0.7956  0.5794
 7061TIP3    H242675   6.237   2.417  14.036 -0.9008 -1.5994  0.5061
 7062TIP3   OH242676   4.111   2.139   1.544 -0.4317 -0.2842  0.1267
 7062TIP3    H142677   4.176   2.185   1.491 -1.9322 -1.2805 -2.6885
 7062TIP3    H242678   4.160   2.108   1.620  1.7639  1.2867 -0.5860
 7063TIP3   OH242679   3.098   0.843  11.668  0.4623  0.3125  0.1265
 7063TIP3    H142680   3.081   0.935  11.690  1.3603  0.6289 -0.4454
 7063TIP3    H242681   3.157   0.848  11.593  0.5575 -0.7363  0.1331
 7064TIP3   OH242682   5.106   6.361  12.679  0.5124  0.0026 -0.1518
 7064TIP3    H142683   5.051   6.377  12.602  1.0192  0.0606 -0.5089
 7064TIP3    H242684   5.106   6.445  12.725 -0.3864 -0.2413  0.3056
 7065TIP3   OH242685   7.141   7.121  10.640  0.5045  0.2665 -0.2023
 7065TIP3    H142686   7.131   7.107  10.546 -1.6805 -0.4804  0.1140
 7065TIP3    H242687   7.113   7.038  10.680  2.1003  0.3236  1.0851
 7066TIP3   OH242688   0.192   1.488  15.451 -0.5934  0.3393 -0.1190
 7066TIP3    H142689   0.225   1.560  15.396  0.6190 -0.2367 -0.1761
 7066TIP3    H242690   0.243   1.494  15.532 -2.0683  0.9128  0.7795
 7067TIP3   OH242691   5.721   6.367  13.554 -0.2553 -0.2516 -0.2717
 7067TIP3    H142692   5.795   6.386  13.496 -0.4681 -0.6083 -0.6653
 7067TIP3    H242693   5.687   6.453  13.580  0.3090 -0.0891 -0.0729
 7068TIP3   OH242694   4.431   0.976  12.107 -0.2660  0.4921  0.7403
 7068TIP3    H142695   4.448   1.065  12.076  0.8841  0.8794  2.4610
 7068TIP3    H242696   4.508   0.952  12.157 -0.8882 -1.2054  0.9288
 7069TIP3   OH242697   6.482   1.609  11.304  0.2913  0.5146  0.4999
 7069TIP3    H142698   6.528   1.564  11.375 -1.1562  1.6284  2.1623
 7069TIP3    H242699   6.489   1.549  11.230 -0.9611 -2.1398  2.4673
 7070TIP3   OH242700   4.095   2.076  14.628 -0.2279 -0.5779  0.5282
 7070TIP3    H142701   4.004   2.068  14.657  0.3154 -0.8346  2.2229
 7070TIP3    H242702   4.094   2.145  14.563 -1.7253 -0.9163  0.1871
 7071TIP3   OH242703   3.436   2.189   0.555 -0.0324 -0.2829  0.5182
 7071TIP3    H142704   3.493   2.216   0.626  0.8875  0.6842 -0.5610
 7071TIP3    H242705   3.349   2.180   0.595  0.3183  1.0105  1.5851
 7072TIP3   OH242706   4.740   1.652   0.493 -0.8551 -0.1689 -0.4756
 7072TIP3    H142707   4.756   1.739   0.530  1.0722 -0.5598 -0.3062
 7072TIP3    H242708   4.682   1.610   0.557 -0.7011  0.5182  0.1289
 7073TIP3   OH242709   2.056   0.353  12.123 -0.0266 -0.4812 -0.0354
 7073TIP3    H142710   2.090   0.289  12.062  0.3165  0.1082 -0.4698
 7073TIP3    H242711   2.000   0.303  12.182 -0.6206 -0.9999 -1.0302
 7074TIP3   OH242712   5.468   0.792  15.526  0.2527 -0.1194 -0.3996
 7074TIP3    H142713   5.501   0.834  15.605 -2.1945  0.2501  0.4644
 7074TIP3    H242714   5.510   0.706  15.525  0.1607 -0.2086  1.4413
 7075TIP3   OH242715   5.389   0.454  13.375 -0.1385 -0.3757  0.9880
 7075TIP3    H142716   5.415   0.437  13.466  3.2553 -1.2629 -0.0766
 7075TIP3    H242717   5.467   0.492  13.335 -1.0907 -1.4276 -1.9492
 7076TIP3   OH242718   6.526   1.542  15.610  0.1577 -0.3490  0.1226
 7076TIP3    H142719   6.510   1.632  15.583  1.6344 -0.0469  0.1751
 7076TIP3    H242720   6.566   1.501  15.534  0.7086 -0.5857  0.5318
 7077TIP3   OH242721   5.185   0.352  15.200  0.5006  0.5004  0.4963
 7077TIP3    H142722   5.170   0.325  15.109 -0.0084  1.2702  0.3457
 7077TIP3    H242723   5.114   0.412  15.219  0.9344  0.7879  1.2275
 7078TIP3   OH242724   5.284   3.000  14.812 -0.3590  0.9032 -0.5398
 7078TIP3    H142725   5.326   3.070  14.862  0.0859 -1.4266  2.4893
 7078TIP3    H242726   5.221   2.961  14.873  0.9652 -2.7362 -1.3539
 7079TIP3   OH242727   6.304   6.356  14.308  0.5164  0.3716 -0.4134
 7079TIP3    H142728   6.335   6.345  14.397  0.0678 -0.9722 -0.4072
 7079TIP3    H242729   6.210   6.337  14.313  0.4802  0.3366 -1.1548
 7080TIP3   OH242730   4.022   0.520   1.006 -0.0068 -0.1332 -0.5096
 7080TIP3    H142731   3.978   0.435   1.002 -0.1980  0.0370 -2.4599
 7080TIP3    H242732   4.020   0.544   1.099  0.2030 -2.3318  0.0841
 7081TIP3   OH242733   2.192   1.781  14.632 -0.9720  0.2903 -0.6715
 7081TIP3    H142734   2.278   1.748  14.606 -0.4075  0.4785  0.8883
 7081TIP3    H242735   2.203   1.876  14.638 -0.6468  0.1398  1.7006
 7082TIP3   OH242736   3.428   6.765  15.107  0.1198 -0.4248 -0.1098
 7082TIP3    H142737   3.353   6.777  15.166  0.0616  1.3999 -0.5532
 7082TIP3    H242738   3.496   6.726  15.163 -1.2702 -2.4563  0.2009
 7083TIP3   OH242739   4.988   7.187  13.896 -0.3377  0.4828 -0.0194
 7083TIP3    H142740   5.066   7.148  13.857 -0.6014  1.0819 -1.1608
 7083TIP3    H242741   5.016   7.275  13.922 -0.7540  0.8554 -0.8334
 7084TIP3   OH242742   4.958   6.648  15.637 -1.0205 -0.1638 -0.2942
 7084TIP3    H142743   4.943   6.605  15.552  1.9406 -0.7774 -0.5465
 7084TIP3    H242744   5.023   6.715  15.619  1.6144 -1.9946  1.9181
 7085TIP3   OH242745   4.614   0.845  13.434 -0.2957 -0.8025  0.2111
 7085TIP3    H142746   4.529   0.846  13.389 -1.3518 -0.7778  2.1749
 7085TIP3    H242747   4.676   0.880  13.370 -1.9430  0.1361 -0.8813
 7086TIP3   OH242748   3.161   0.711   2.384  0.3938 -0.4111 -0.1943
 7086TIP3    H142749   3.146   0.623   2.418  0.9336 -0.2574  0.4715
 7086TIP3    H242750   3.198   0.759   2.459 -2.8090  1.2484  0.4025
 7087TIP3   OH242751   4.593   1.766   1.796  0.3797  0.5001  0.0149
 7087TIP3    H142752   4.630   1.793   1.712 -1.4598 -0.2558 -1.0551
 7087TIP3    H242753   4.523   1.829   1.813 -0.1825 -0.1967  0.2910
 7088TIP3   OH242754   3.661   1.707   0.248 -0.0900  0.1669  0.4877
 7088TIP3    H142755   3.597   1.772   0.217  1.7355  1.7757  0.0084
 7088TIP3    H242756   3.714   1.754   0.312  0.4402 -1.2495  1.1079
 7089TIP3   OH242757   3.454   3.083   1.379 -0.0315  0.1693  0.4619
 7089TIP3    H142758   3.467   3.141   1.454  1.0690  0.7377 -0.1512
 7089TIP3    H242759   3.532   3.097   1.325 -0.0105 -1.4829  0.0486
 7090TIP3   OH242760   6.098   7.014   0.643  0.5427 -0.0056  0.0726
 7090TIP3    H142761   6.155   6.979   0.711 -0.1214 -2.4693 -0.5794
 7090TIP3    H242762   6.155   7.024   0.566  1.2596  2.6436  0.8913
 7091TIP3   OH242763   5.385   0.015  14.486  0.5359 -0.0724 -0.5430
 7091TIP3    H142764   5.476  -0.012  14.471  0.9363  0.5246  0.7237
 7091TIP3    H242765   5.370   0.085  14.421  0.8462 -0.4429 -1.0158
 7092TIP3   OH242766   4.460   4.546  14.821  0.3512 -0.1545  0.0699
 7092TIP3    H142767   4.554   4.554  14.808  0.3697 -0.4974 -0.0155
 7092TIP3    H242768   4.440   4.455  14.799 -0.4565  0.6319 -2.7078
 7093TIP3   OH242769   2.059   1.911  15.316 -0.0810 -0.5340  0.5400
 7093TIP3    H142770   1.973   1.940  15.285 -0.1164 -0.6348  0.5435
 7093TIP3    H242771   2.120   1.976  15.284  0.0432 -1.2763 -0.7454
 7094TIP3   OH242772   5.853   3.625  13.623 -0.2081 -0.1972 -0.5454
 7094TIP3    H142773   5.923   3.675  13.582  1.3430 -0.8531  1.2051
 7094TIP3    H242774   5.898   3.563  13.681 -2.2613  0.6571  2.1064
 7095TIP3   OH242775   5.183   1.303  15.086  0.1968 -0.1474  0.2887
 7095TIP3    H142776   5.174   1.346  15.170 -3.3509  0.2600 -0.2117
 7095TIP3    H242777   5.153   1.213  15.101  1.2047 -0.5609 -0.1440
 7096TIP3   OH242778   4.376   1.982  12.280  0.3801 -0.4237  0.7137
 7096TIP3    H142779   4.408   2.063  12.319  1.6075  0.0961 -1.2963
 7096TIP3    H242780   4.283   1.998  12.265  0.8600  1.0828 -0.7793
 7097TIP3   OH242781   4.312   3.813  14.605  0.0598 -0.0933 -0.0209
 7097TIP3    H142782   4.332   3.765  14.525 -1.3326  1.1875 -1.1658
 7097TIP3    H242783   4.370   3.889  14.604  0.0797 -0.1038  0.2105
 7098TIP3   OH242784   1.700   1.114   1.147  0.3936  0.0894 -0.0386
 7098TIP3    H142785   1.669   1.158   1.226  0.2256 -1.6678  0.8979
 7098TIP3    H242786   1.791   1.092   1.165  1.1164  1.8742 -1.3212
 7099TIP3   OH242787   3.438   1.395  14.411 -0.2239 -0.5432 -0.8013
 7099TIP3    H142788   3.380   1.392  14.487 -0.4862 -1.7998 -1.0374
 7099TIP3    H242789   3.515   1.443  14.442 -1.1475  0.6699 -0.3278
 7100TIP3   OH242790   3.337   1.145  12.936 -0.4198  0.0217 -0.0958
 7100TIP3    H142791   3.325   1.060  12.893  0.5872 -0.6529  0.9282
 7100TIP3    H242792   3.402   1.129  13.004 -0.5095  1.5328  0.3767
 7101TIP3   OH242793   5.378   0.975  15.324  1.0599 -0.4714  0.0484
 7101TIP3    H142794   5.293   0.981  15.367  0.3408 -1.1735 -1.2448
 7101TIP3    H242795   5.432   0.924  15.384  0.5200 -0.1773  0.7870
 7102TIP3   OH242796   5.225   2.198  15.032  0.6386  0.1604  0.3009
 7102TIP3    H142797   5.259   2.109  15.040 -1.8805 -0.9198 -0.2997
 7102TIP3    H242798   5.183   2.215  15.116  0.7907  0.6226  0.2814
 7103TIP3   OH242799   4.896   6.724  14.291 -0.0481 -0.1367 -0.2592
 7103TIP3    H142800   4.845   6.798  14.258  1.4765  0.1649 -2.0353
 7103TIP3    H242801   4.949   6.762  14.362 -0.1627  0.1800 -0.3383
 7104TIP3   OH242802   2.448   1.695  15.337  0.3285  0.2562  0.3508
 7104TIP3    H142803   2.526   1.735  15.376  1.7640  0.8502 -2.9674
 7104TIP3    H242804   2.460   1.706  15.243 -3.6054 -0.0101 -0.2530
 7105TIP3   OH242805   4.752   5.442  15.102  0.2173  0.4708  0.1176
 7105TIP3    H142806   4.765   5.516  15.043  0.9136 -0.1596 -0.5458
 7105TIP3    H242807   4.841   5.410  15.120 -0.0829 -0.2554  0.3240
 7106TIP3   OH242808   5.284   1.020  13.729  0.3303  0.1292 -0.1899
 7106TIP3    H142809   5.210   1.029  13.669  0.6526 -0.2463 -0.6465
 7106TIP3    H242810   5.362   1.029  13.674  0.6377 -0.9104  0.0434
 7107TIP3   OH242811   5.897   5.754  15.193 -0.1254  0.2153 -0.2373
 7107TIP3    H142812   5.923   5.822  15.256 -1.6048  2.2468 -1.7648
 7107TIP3    H242813   5.805   5.737  15.213 -0.7741  1.2985 -2.1861
 7108TIP3   OH242814   3.889   2.344   1.021 -0.3677  0.2422  0.3600
 7108TIP3    H142815   3.816   2.302   0.976  0.7211 -2.7437  1.2574
 7108TIP3    H242816   3.950   2.367   0.950 -1.2584  0.9389 -0.1966
 7109TIP3   OH242817   1.508   7.078  12.666  0.5737  0.1991  0.0958
 7109TIP3    H142818   1.424   7.045  12.635  0.3079  1.4251 -0.4977
 7109TIP3    H242819   1.572   7.043  12.604  0.7841 -2.5021  1.7529
 7110TIP3   OH242820   4.316   0.859  12.968 -0.0949  0.2539  0.2897
 7110TIP3    H142821   4.317   0.889  12.877 -1.2991  1.3116  0.6009
 7110TIP3    H242822   4.232   0.814  12.977  0.5897 -0.9811  0.5338
 7111TIP3   OH242823   5.484   0.258  13.874  0.3205 -0.1012 -0.2193
 7111TIP3    H142824   5.575   0.241  13.847 -0.1084  0.8818 -2.4125
 7111TIP3    H242825   5.492   0.303  13.958  1.8622 -0.4185 -0.1775
 7112TIP3   OH242826   6.171   0.691  12.193  0.0159 -0.2932  0.2773
 7112TIP3    H142827   6.238   0.702  12.260  2.0756  0.0242 -1.7560
 7112TIP3    H242828   6.124   0.612  12.218  0.7328 -0.1628  2.0899
 7113TIP3   OH242829   1.526   5.513   1.515  0.3437  0.0868  0.0566
 7113TIP3    H142830   1.609   5.514   1.467 -0.4326  0.5451 -1.2701
 7113TIP3    H242831   1.479   5.438   1.479  0.0821 -0.0397  0.6582
 7114TIP3   OH242832   4.263   0.775  15.593  0.8088  0.0614  0.1415
 7114TIP3    H142833   4.287   0.682  15.589 -1.1825 -0.3989 -1.8059
 7114TIP3    H242834   4.179   0.776  15.637  1.2288  1.0436  0.9352
 7115TIP3   OH242835   4.836   3.384  13.341  0.5714  0.4553 -0.4992
 7115TIP3    H142836   4.784   3.425  13.411  0.6581 -0.1929 -0.0390
 7115TIP3    H242837   4.927   3.392  13.371  0.5527 -0.5029 -0.1566
 7116TIP3   OH242838   5.745   7.098  14.820  0.1357 -0.2767 -0.2656
 7116TIP3    H142839   5.699   7.181  14.836  1.7150  0.6954 -0.5600
 7116TIP3    H242840   5.692   7.054  14.754 -1.3104  0.0098  0.6874
 7117TIP3   OH242841   6.674   1.359  15.806 -0.5173  0.1005 -0.0885
 7117TIP3    H142842   6.633   1.434  15.763 -0.6892 -1.1210 -2.0869
 7117TIP3    H242843   6.620   1.284  15.780 -0.3724 -0.7347  1.9122
 7118TIP3   OH242844   5.479   6.939  12.517  0.6503  0.0156 -0.4411
 7118TIP3    H142845   5.554   6.899  12.472  0.6642 -1.4294  0.8335
 7118TIP3    H242846   5.402   6.900  12.475  0.5456  2.5285 -2.6930
 7119TIP3   OH242847   4.690   2.997   0.442  0.1161 -0.3549  0.4322
 7119TIP3    H142848   4.772   2.971   0.483  0.1701 -0.5039  0.2345
 7119TIP3    H242849   4.715   3.028   0.355 -0.0195 -0.2632  0.4262
 7120TIP3   OH242850   6.606   0.268   0.574 -0.6394 -0.6309  0.0740
 7120TIP3    H142851   6.515   0.279   0.600 -1.4813 -0.7612 -2.6878
 7120TIP3    H242852   6.625   0.343   0.518  0.4738 -1.3871 -0.5950
 7121TIP3   OH242853   5.874   1.290  15.006  0.0828 -0.1144  0.1794
 7121TIP3    H142854   5.930   1.323  14.936  2.3057 -2.6972  0.6466
 7121TIP3    H242855   5.797   1.255  14.961  0.0104  1.1561 -0.6947
 7122TIP3   OH242856   4.879   1.767  14.643 -0.0911  0.0014 -0.8878
 7122TIP3    H142857   4.800   1.757  14.589 -1.3970  1.1278  0.7422
 7122TIP3    H242858   4.845   1.793  14.729  2.1563  2.0443 -0.5752
 7123TIP3   OH242859   7.077   1.364  11.971 -0.2973  0.1755  0.2682
 7123TIP3    H142860   7.164   1.402  11.977  0.4477 -1.1802 -1.3300
 7123TIP3    H242861   7.035   1.410  11.899  0.1187 -1.0156 -0.7707
 7124TIP3   OH242862   2.458   1.835  13.594  0.1404  0.3067  0.9481
 7124TIP3    H142863   2.460   1.739  13.595 -1.0098  0.2803  0.5866
 7124TIP3    H242864   2.396   1.859  13.663  0.4012  0.7978  1.0167
 7125TIP3   OH242865   0.982   1.538  13.992  0.3507 -0.1519  0.4788
 7125TIP3    H142866   0.989   1.450  13.956 -3.0748 -0.4921  0.4519
 7125TIP3    H242867   1.002   1.528  14.085  1.3638 -0.6818  0.2095
 7126TIP3   OH242868   1.630   2.707  13.882  0.0905 -0.1425 -0.0122
 7126TIP3    H142869   1.686   2.709  13.960  0.7027  1.0549 -0.4578
 7126TIP3    H242870   1.675   2.649  13.821 -1.2083 -2.3765  1.0970
 7127TIP3   OH242871   0.013   0.071  14.837  0.5508  0.0863 -0.0704
 7127TIP3    H142872  -0.036   0.115  14.768 -0.2532 -0.3406  0.2144
 7127TIP3    H242873   0.077   0.136  14.867  0.7306  0.3537 -1.0344
 7128TIP3   OH242874   6.697   0.702  14.468  0.0988  0.3564 -0.9529
 7128TIP3    H142875   6.668   0.613  14.487 -1.1411  0.6779 -1.3156
 7128TIP3    H242876   6.793   0.698  14.473 -0.0559 -0.3120  1.9404
 7129TIP3   OH242877   3.770   0.789  13.709 -0.2294  0.4475 -0.1137
 7129TIP3    H142878   3.790   0.773  13.616  0.5358  2.2154 -0.2763
 7129TIP3    H242879   3.688   0.838  13.707 -1.6031 -1.7856  0.2875
 7130TIP3   OH242880   6.228   1.321  15.645  0.0360  0.4027 -0.5173
 7130TIP3    H142881   6.209   1.230  15.671  1.6841  0.3043  0.3928
 7130TIP3    H242882   6.323   1.328  15.652 -0.1631  2.4691  0.3119
 7131TIP3   OH242883   5.300   7.107  14.618  0.1383 -0.1487 -0.1672
 7131TIP3    H142884   5.250   7.058  14.552  0.0243 -0.7518  0.3616
 7131TIP3    H242885   5.303   7.196  14.584 -1.1626 -0.1391 -0.2842
 7132TIP3   OH242886   0.355   6.298  15.162  0.3893  0.0417  0.1722
 7132TIP3    H142887   0.383   6.227  15.219 -0.3755 -1.3164 -1.1263
 7132TIP3    H242888   0.436   6.331  15.123  0.7096 -0.3152  0.5280
 7133TIP3   OH242889   6.833   0.122  14.119 -0.1321  0.1913  0.3726
 7133TIP3    H142890   6.791   0.055  14.064 -0.5877  0.4777  0.3642
 7133TIP3    H242891   6.759   0.168  14.160  0.2033  0.1169  1.0556
 7134TIP3   OH242892   5.559   1.092  13.503 -0.4974  0.0593  0.3521
 7134TIP3    H142893   5.553   1.172  13.451 -0.2328 -1.1446 -1.5649
 7134TIP3    H242894   5.641   1.051  13.476 -0.3236 -0.5830  1.7621
 7135TIP3   OH242895   4.699   0.683  14.420  0.1592  0.0875  0.0352
 7135TIP3    H142896   4.639   0.755  14.400 -0.5139  0.7208  3.9875
 7135TIP3    H242897   4.786   0.724  14.419 -0.0022  0.4283  0.0164
 7136TIP3   OH242898   7.133   6.649  13.967  0.7750 -0.4588  0.4178
 7136TIP3    H142899   7.222   6.671  13.995  0.0768  1.3185  1.3246
 7136TIP3    H242900   7.079   6.720  14.003 -0.9960 -1.5088 -0.1497
 7137TIP3   OH242901   4.889   1.503  15.451 -0.1165  0.0504 -0.6091
 7137TIP3    H142902   4.882   1.417  15.491 -1.0650  0.7247  0.6958
 7137TIP3    H242903   4.862   1.564  15.519  0.4893  1.3851 -1.5343
 7138TIP3   OH242904   4.261   3.001  13.374 -0.7255  0.1205 -0.5935
 7138TIP3    H142905   4.174   3.028  13.346 -1.0585  0.6002  0.9061
 7138TIP3    H242906   4.321   3.049  13.316 -1.4555 -1.2789 -2.5694
 7139TIP3   OH242907   1.599   1.306   0.756  0.3560 -0.1760 -0.2497
 7139TIP3    H142908   1.593   1.248   0.681 -0.4398  0.6774 -0.8550
 7139TIP3    H242909   1.692   1.327   0.762  0.5639 -1.0314 -0.3843
 7140TIP3   OH242910   0.983   4.691  14.922 -0.2924 -0.5546 -0.0044
 7140TIP3    H142911   0.975   4.778  14.883  1.4888  0.3888  1.6631
 7140TIP3    H242912   1.033   4.640  14.858  0.5318  0.2837 -0.0297
 7141TIP3   OH242913   0.306   7.275  14.630  0.1852  0.3471  0.3961
 7141TIP3    H142914   0.245   7.326  14.577  0.2080  2.7133  2.5988
 7141TIP3    H242915   0.268   7.273  14.717 -0.1106 -3.9617  0.3208
 7142TIP3   OH242916   1.592   7.086  14.201 -0.1411  0.1339 -0.7770
 7142TIP3    H142917   1.631   7.154  14.146  0.5575 -0.3479 -0.8781
 7142TIP3    H242918   1.612   7.004  14.156 -0.1797 -0.2121 -0.1725
 7143TIP3   OH242919   6.895   0.298  14.973 -0.0189  0.4518 -0.0487
 7143TIP3    H142920   6.819   0.253  14.937  0.6120 -0.8780  0.2444
 7143TIP3    H242921   6.861   0.346  15.049 -0.9320  1.4983 -1.1040
 7144TIP3   OH242922   7.232   6.677  13.676  0.0587 -0.3005 -0.4532
 7144TIP3    H142923   7.161   6.631  13.630 -0.7846  1.0579 -0.5522
 7144TIP3    H242924   7.216   6.659  13.769  0.5212 -1.3088 -0.5660
 7145TIP3   OH242925   0.181   1.081  12.134  0.3956 -0.3314 -0.2813
 7145TIP3    H142926   0.183   1.126  12.050  1.2545 -1.0035 -0.6188
 7145TIP3    H242927   0.116   1.012  12.123  0.0322 -0.0068 -0.1822
 7146TIP3   OH242928   7.061   3.752  14.347 -0.0282 -0.3526 -0.5406
 7146TIP3    H142929   7.101   3.667  14.365  0.4629  0.0776  0.4702
 7146TIP3    H242930   6.967   3.736  14.349  0.0687 -1.0831 -1.4703
 7147TIP3   OH242931   7.218   0.419  14.723  0.3937 -0.1194 -0.2365
 7147TIP3    H142932   7.215   0.418  14.818  0.4770 -0.0277 -0.2319
 7147TIP3    H242933   7.143   0.471  14.696  1.0995  0.9432 -0.1835
 7148TIP3   OH242934   1.452   6.242  13.926 -0.7127  0.0259  0.3276
 7148TIP3    H142935   1.487   6.200  13.847  1.9924  0.3337  1.3217
 7148TIP3    H242936   1.433   6.332  13.898  0.0643  0.0866 -0.0258
 7149TIP3   OH242937   5.315   1.528  12.431  0.6387  0.4239 -0.3797
 7149TIP3    H142938   5.394   1.481  12.404  0.6403 -0.3553  0.9451
 7149TIP3    H242939   5.247   1.460  12.434  0.3936  0.7098  0.4970
 7150TIP3   OH242940   6.129   1.047  15.183  0.1117  0.1474  0.2044
 7150TIP3    H142941   6.053   1.103  15.202 -0.5441 -0.2793 -1.0868
 7150TIP3    H242942   6.142   0.996  15.263 -2.2725 -1.2840 -0.2803
 7151TIP3   OH242943   5.265   0.773  13.869 -0.2797 -0.0125 -0.0400
 7151TIP3    H142944   5.179   0.744  13.838 -0.6899  1.6088 -0.4301
 7151TIP3    H242945   5.291   0.841  13.807  0.9878 -0.0074  0.4866
 7152TIP3   OH242946   5.878   0.702  15.383  0.3121 -0.0531 -0.4249
 7152TIP3    H142947   5.958   0.755  15.386  0.4109 -0.2091 -0.2997
 7152TIP3    H242948   5.909   0.612  15.388  0.0419 -0.0685  1.5306
 7153TIP3   OH242949   4.591   3.601  15.448  0.1214 -0.0533  0.1825
 7153TIP3    H142950   4.612   3.512  15.477 -1.0525 -0.0301  1.1082
 7153TIP3    H242951   4.677   3.642  15.437  0.6786 -1.2852 -0.2563
 7154TIP3   OH242952   6.378   0.180  13.492 -0.1782 -0.1180  0.2692
 7154TIP3    H142953   6.330   0.143  13.565 -0.2602  0.6082  0.5881
 7154TIP3    H242954   6.325   0.255  13.464 -0.8750 -1.2103 -1.4375
 7155TIP3   OH242955   4.853   1.463   0.333 -0.2515 -0.3295 -0.2443
 7155TIP3    H142956   4.939   1.504   0.340 -0.7831  0.9709 -1.2850
 7155TIP3    H242957   4.792   1.529   0.364 -0.8047 -1.6369  1.5605
 7156TIP3   OH242958   7.011   0.045  14.293  0.2922 -0.7244 -0.4717
 7156TIP3    H142959   6.945   0.073  14.230 -0.2064  1.3723  0.9443
 7156TIP3    H242960   6.963  -0.009  14.356  0.0714  0.2371  0.1792
 7157TIP3   OH242961   3.589   3.094  15.035 -0.1210  0.2028  0.6906
 7157TIP3    H142962   3.661   3.041  15.069 -0.4980 -0.6078  0.2682
 7157TIP3    H242963   3.625   3.182  15.027 -0.0205  0.4096  3.1131
 7158TIP3   OH242964   2.630   0.694  14.745  0.5633  0.2185 -0.4268
 7158TIP3    H142965   2.640   0.603  14.772 -1.1025 -0.1564 -1.0114
 7158TIP3    H242966   2.604   0.740  14.825  0.6138  0.0413 -0.3083
 7159TIP3   OH242967   0.539   7.312  13.038 -0.6129  0.1818  0.0323
 7159TIP3    H142968   0.484   7.235  13.052 -1.1902  0.0528 -2.6628
 7159TIP3    H242969   0.605   7.282  12.976  0.5844  1.2444  0.7744
 7160TIP3   OH242970   5.502   1.554  15.710 -0.0377 -0.2176  0.1264
 7160TIP3    H142971   5.564   1.615  15.749 -2.0602  1.6558  0.4755
 7160TIP3    H242972   5.416   1.589  15.731 -1.2425 -2.4148 -0.9047
 7161TIP3   OH242973   3.709   0.923  14.367  0.2193  0.4260  0.3965
 7161TIP3    H142974   3.617   0.907  14.387  0.1068 -0.1291 -0.5334
 7161TIP3    H242975   3.709   1.009  14.325  0.2276  0.7762  1.1069
 7162TIP3   OH242976   5.450   2.632  13.083 -0.1296  0.0634 -0.5861
 7162TIP3    H142977   5.487   2.720  13.078  1.4376 -0.7022 -3.1852
 7162TIP3    H242978   5.467   2.604  13.173  1.7922  1.3772 -0.5205
 7163TIP3   OH242979   5.791   3.255   0.411  0.2552 -0.0423 -0.1321
 7163TIP3    H142980   5.723   3.212   0.359 -0.2772  1.7926 -0.9833
 7163TIP3    H242981   5.811   3.336   0.363 -1.9351  2.9209  3.6829
 7164TIP3   OH242982   5.488   2.353  13.677 -0.0036  0.4846 -0.5292
 7164TIP3    H142983   5.514   2.430  13.727  1.0004 -0.9990  1.2967
 7164TIP3    H242984   5.560   2.339  13.615 -0.4070  1.2852 -1.1737
 7165TIP3   OH242985   4.613   3.230  13.703 -0.0215  0.0160  0.0818
 7165TIP3    H142986   4.669   3.155  13.683  1.8531  1.0314  1.4368
 7165TIP3    H242987   4.627   3.290  13.630  0.0461 -0.0744  0.0205
 7166TIP3   OH242988   5.169   1.776  13.262 -0.4564 -0.0253  0.0863
 7166TIP3    H142989   5.171   1.681  13.251  1.2516  0.1110 -0.9746
 7166TIP3    H242990   5.250   1.796  13.309  0.2958  1.1231 -1.6412
 7167TIP3   OH242991   0.892   7.306  13.837 -0.0955  0.2974 -0.2444
 7167TIP3    H142992   0.950   7.303  13.913  1.1528 -0.2228 -1.1963
 7167TIP3    H242993   0.811   7.264  13.867 -0.7997  2.9529  1.7474
 7168TIP3   OH242994   5.705   6.039  15.073  0.0289 -0.4227  0.3217
 7168TIP3    H142995   5.696   5.944  15.081 -0.0030 -0.5031 -0.6637
 7168TIP3    H242996   5.625   6.068  15.030  0.6383 -0.1202 -0.6261
 7169TIP3   OH242997   5.060   6.339  13.793 -0.0264 -0.1508  0.1993
 7169TIP3    H142998   5.084   6.429  13.771  0.8271 -0.6822 -1.1275
 7169TIP3    H242999   5.021   6.304  13.712 -0.8988 -0.7895  0.8823
 7170TIP3   OH243000   5.414   1.211  14.803  0.3109 -0.1269 -0.3034
 7170TIP3    H143001   5.467   1.278  14.845 -0.3357  0.9557 -1.1926
 7170TIP3    H243002   5.360   1.259  14.740 -1.6319 -1.2246  0.4875
 7171TIP3   OH243003   6.813   1.340   0.613  0.0337  0.3708 -0.0907
 7171TIP3    H143004   6.768   1.262   0.581  1.5604 -0.7093  0.3510
 7171TIP3    H243005   6.753   1.376   0.679 -2.3629  1.6861 -2.8672
 7172TIP3   OH243006   0.893   0.572  12.245 -0.0767  0.4349  0.0459
 7172TIP3    H143007   0.869   0.491  12.290  1.4089  0.4588  0.9252
 7172TIP3    H243008   0.979   0.596  12.282  0.7901  0.9295 -2.1751
 7173TIP3   OH243009   0.209   5.355  13.474 -0.5435  0.3433  0.4661
 7173TIP3    H143010   0.114   5.360  13.465 -0.5506 -0.2778  0.1717
 7173TIP3    H243011   0.243   5.415  13.408 -0.7299  0.5293  0.5383
 7174TIP3   OH243012   3.862   1.124  12.319  0.0347 -0.0407 -0.1948
 7174TIP3    H143013   3.849   1.176  12.398  0.0725  0.3094 -0.4177
 7174TIP3    H243014   3.774   1.112  12.283  0.3262  3.3291 -2.3355
 7175TIP3   OH243015   5.455   2.191  13.333 -0.5521 -0.0314  0.2681
 7175TIP3    H143016   5.492   2.158  13.415  0.8338  2.6253  0.7580
 7175TIP3    H243017   5.504   2.145  13.264  1.3080  0.9263  0.9248
 7176TIP3   OH243018   4.500   1.589   0.269  0.0501  0.9072 -0.1766
 7176TIP3    H143019   4.547   1.523   0.320 -2.6944  0.8373  2.4577
 7176TIP3    H243020   4.489   1.662   0.329 -0.2932  2.2402 -1.8247
 7177TIP3   OH243021   5.814   1.089   0.149  0.1917  0.2940 -0.1107
 7177TIP3    H143022   5.795   1.179   0.174 -0.3737  0.2354 -0.3255
 7177TIP3    H243023   5.729   1.051   0.127 -0.0590 -1.3371  3.3807
 7178TIP3   OH243024   6.016   1.242  13.954 -0.3630 -0.5696 -0.3181
 7178TIP3    H143025   5.962   1.288  13.890 -0.6425 -0.9854 -0.3830
 7178TIP3    H243026   6.104   1.277  13.939 -0.7945  0.9289  0.5465
 7179TIP3   OH243027   5.858   6.773   1.701 -0.3026 -0.9547  0.0909
 7179TIP3    H143028   5.947   6.751   1.730 -0.6849 -3.1489 -0.3527
 7179TIP3    H243029   5.871   6.819   1.618  0.6787  3.5792  2.5610
 7180TIP3   OH243030   1.286   1.168  11.477  0.4535 -0.0886 -0.5332
 7180TIP3    H143031   1.210   1.199  11.526  0.6302 -0.5609  0.0558
 7180TIP3    H243032   1.357   1.228  11.500  0.5365 -0.3107 -0.2007
 7181TIP3   OH243033   5.931   6.528  13.793 -0.3665  0.4423  0.3434
 7181TIP3    H143034   5.920   6.552  13.885 -2.8579 -0.4323  0.3018
 7181TIP3    H243035   5.905   6.436  13.789  0.4695  0.2564 -1.1053
 7182TIP3   OH243036   0.413   1.957  12.265  0.3406 -0.1711 -0.5237
 7182TIP3    H143037   0.323   1.959  12.297  0.3583  0.6296 -0.5024
 7182TIP3    H243038   0.416   1.884  12.203 -0.5911  0.4691 -1.3177
 7183TIP3   OH243039   5.290   0.248  14.691  0.0589 -0.0440  0.5287
 7183TIP3    H143040   5.336   0.169  14.662  2.0168  1.2678 -0.0925
 7183TIP3    H243041   5.359   0.304  14.727 -0.6664  2.7697 -2.1322
 7184TIP3   OH243042   6.790   4.993  15.512 -0.0450 -0.2667  0.2258
 7184TIP3    H143043   6.753   5.058  15.452  1.3431  1.9153  1.6876
 7184TIP3    H243044   6.747   4.911  15.488 -1.1435  1.0007 -2.2715
 7185TIP3   OH243045   4.524   1.783  13.086 -0.3018  0.2518 -0.6636
 7185TIP3    H143046   4.535   1.691  13.064  0.3360  0.6595 -2.1310
 7185TIP3    H243047   4.495   1.824  13.004 -3.3723  0.8826  0.6553
 7186TIP3   OH243048   5.555   7.000  15.533  0.2814 -0.2628  0.2082
 7186TIP3    H143049   5.490   6.977  15.467 -0.9629  1.2682  0.8788
 7186TIP3    H243050   5.505   7.041  15.603  1.8579  0.0722  1.1678
 7187TIP3   OH243051   6.631   5.943  13.869  0.3473 -0.3960  0.2296
 7187TIP3    H143052   6.582   6.013  13.825  0.2087 -0.5103  0.1998
 7187TIP3    H243053   6.714   5.939  13.822  0.6740  0.2882  0.7530
 7188TIP3   OH243054   4.711   1.788  14.416  0.2497  0.2515  0.1871
 7188TIP3    H143055   4.780   1.756  14.358  0.3176 -2.0611  1.4992
 7188TIP3    H243056   4.632   1.741  14.389  0.0025  0.1164  1.1163
 7189TIP3   OH243057   7.219   1.928  13.741  0.3500  0.2582  0.1817
 7189TIP3    H143058   7.284   1.860  13.724  0.4644  0.5084 -0.3577
 7189TIP3    H243059   7.268   2.010  13.737 -0.0242  0.4523 -0.3214
 7190TIP3   OH243060   6.026   7.273  14.584 -0.3409 -0.3581  0.7331
 7190TIP3    H143061   6.025   7.178  14.596 -1.1093 -0.3292  0.9167
 7190TIP3    H243062   5.937   7.301  14.606 -1.1645 -0.0330 -2.7253
 7191TIP3   OH243063   5.916   4.529  13.622 -0.4996 -0.5095  0.1249
 7191TIP3    H143064   5.866   4.489  13.693  1.1461 -0.2153  1.5108
 7191TIP3    H243065   5.963   4.602  13.665  0.0118  0.0788 -1.4082
 7192TIP3   OH243066   6.717   5.482  14.974 -1.0319 -0.0124  0.7340
 7192TIP3    H143067   6.779   5.482  14.901 -1.0160  0.2497  0.7453
 7192TIP3    H243068   6.763   5.437  15.045 -0.3342  1.3320  1.1655
 7193TIP3   OH243069   3.945   0.801  13.238  0.2209  0.0115 -0.2668
 7193TIP3    H143070   4.009   0.778  13.170  1.1498 -0.2894  0.6844
 7193TIP3    H243071   3.998   0.829  13.312 -0.7253 -0.9675  0.8081
 7194TIP3   OH243072   5.103   1.982  15.238 -0.0039 -0.4029 -0.1617
 7194TIP3    H143073   5.013   1.969  15.268 -0.0483  0.4653  0.0924
 7194TIP3    H243074   5.098   1.971  15.143 -0.6686  1.1271 -0.3255
 7195TIP3   OH243075   0.619   5.554  13.495 -0.0135 -0.0942 -0.4066
 7195TIP3    H143076   0.590   5.483  13.438 -1.1494  0.4271 -0.4989
 7195TIP3    H243077   0.678   5.513  13.557 -3.7760 -1.9517  2.1098
 7196TIP3   OH243078   1.467   0.869  13.071  0.2796  0.3172 -0.2002
 7196TIP3    H143079   1.497   0.847  13.159  0.2516 -0.9431 -0.4968
 7196TIP3    H243080   1.377   0.835  13.067 -0.4774  2.2395 -0.0066
 7197TIP3   OH243081   4.960   1.419  13.127 -0.5058  0.4222  0.2704
 7197TIP3    H143082   5.050   1.450  13.138  0.4317 -1.7635 -1.0324
 7197TIP3    H243083   4.911   1.464  13.197  1.3828  2.3433  0.4305
 7198TIP3   OH243084   4.175   0.665  12.606 -0.3399  0.4865 -0.5978
 7198TIP3    H143085   4.257   0.649  12.559  0.0881  0.0716  0.2854
 7198TIP3    H243086   4.166   0.590  12.665 -0.7568  1.1256  0.1499
 7199TIP3   OH243087   5.656   6.397  15.533  0.5764  0.0811  0.2362
 7199TIP3    H143088   5.648   6.398  15.438 -0.8698 -2.5994  0.2936
 7199TIP3    H243089   5.600   6.325  15.561 -0.1729  1.7282  3.2375
 7200TIP3   OH243090   5.060   0.852  14.179  0.1498  0.0519 -0.2127
 7200TIP3    H143091   5.016   0.922  14.130 -1.6175  0.4471  1.8602
 7200TIP3    H243092   5.127   0.897  14.230 -0.1405  0.0573  0.1613
 7201TIP3   OH243093   5.561   2.490  12.606 -0.2771 -0.5277 -0.5895
 7201TIP3    H143094   5.505   2.550  12.556 -0.5316 -0.4540 -0.2175
 7201TIP3    H243095   5.512   2.474  12.687  0.2670 -0.4261 -0.2437
 7202TIP3   OH243096   4.873   1.295  13.906 -0.4844 -0.8823  0.9177
 7202TIP3    H143097   4.812   1.287  13.833  0.4140 -0.0017  0.0666
 7202TIP3    H243098   4.959   1.305  13.866 -0.2612  2.2115  2.0251
 7203TIP3   OH243099   4.740   1.316  14.139 -0.6372  0.4580 -0.4040
 7203TIP3    H143100   4.679   1.390  14.136  1.6775  2.4337 -0.9827
 7203TIP3    H243101   4.771   1.308  14.049  0.7501  0.2109  0.0864
 7204TIP3   OH243102   5.652   0.010  14.866  0.0089  0.0798 -0.1291
 7204TIP3    H143103   5.570   0.059  14.859 -1.0961 -1.2624  2.4881
 7204TIP3    H243104   5.698   0.050  14.940 -0.7383 -2.4606  1.8012
 7205TIP3   OH243105   1.126   0.809  15.357 -0.6023  0.4039 -0.7367
 7205TIP3    H143106   1.075   0.851  15.288  0.6370 -0.2598 -2.0875
 7205TIP3    H243107   1.206   0.780  15.313  0.9210  1.3802  1.3122
 7206TIP3   OH243108   5.206   2.402  13.402  0.2567 -0.3412 -0.0505
 7206TIP3    H143109   5.267   2.338  13.437  0.9423  0.2372 -0.1859
 7206TIP3    H243110   5.231   2.485  13.443  0.4713  0.1620 -1.1760
 7207TIP3   OH243111   6.139   6.279  12.771  0.0727 -0.4596  0.0601
 7207TIP3    H143112   6.111   6.358  12.817  1.6531  2.2048 -3.3648
 7207TIP3    H243113   6.064   6.256  12.715 -0.4839 -1.6017  1.2391
 7208TIP3   OH243114   5.803   7.265  15.418  0.1267 -0.7075 -0.0282
 7208TIP3    H143115   5.735   7.286  15.481 -0.3998 -2.1178 -0.1070
 7208TIP3    H243116   5.756   7.227  15.344  0.7188  1.0815 -1.3649
 7209TIP3   OH243117   0.885   6.920   1.189 -0.0927  0.0840  0.5979
 7209TIP3    H143118   0.810   6.975   1.167  0.1702 -0.2900 -1.3099
 7209TIP3    H243119   0.942   6.977   1.241 -0.3495  1.2689 -0.3978
 7210TIP3   OH243120   4.786   2.154  14.299 -0.8238  0.0769 -0.0493
 7210TIP3    H143121   4.783   2.160  14.203 -0.0591 -1.9058 -0.2378
 7210TIP3    H243122   4.870   2.192  14.323 -1.1086  0.7686 -0.1421
 7211TIP3   OH243123   6.571   0.218  14.146  0.5426  0.3727 -0.1054
 7211TIP3    H143124   6.505   0.149  14.143 -1.1356  1.9082  0.4703
 7211TIP3    H243125   6.524   0.295  14.180  1.9311  2.2339 -2.2077
 7212TIP3   OH243126   2.641   0.356  15.269 -0.0851  0.2865 -0.1596
 7212TIP3    H143127   2.562   0.362  15.215  0.0318  0.6108 -0.2976
 7212TIP3    H243128   2.710   0.331  15.208 -0.0411  0.2018 -0.0754
 7213TIP3   OH243129   6.567   2.071  14.977 -0.0508  0.1137  0.1976
 7213TIP3    H143130   6.492   2.078  14.919  0.7249 -1.0673 -1.0042
 7213TIP3    H243131   6.531   2.077  15.065 -1.5777 -0.7051 -0.3596
 7214TIP3   OH243132   3.926   1.526  14.307  0.5848  0.0627 -0.0889
 7214TIP3    H143133   3.980   1.539  14.229 -0.3482  2.0923 -0.4269
 7214TIP3    H243134   3.886   1.611  14.322 -2.5862 -1.4130  0.0950
 7215TIP3   OH243135   5.845   1.124  11.355  0.2639 -0.6292  0.0062
 7215TIP3    H143136   5.807   1.176  11.426 -0.1093 -0.8046 -0.0602
 7215TIP3    H243137   5.830   1.177  11.277  0.5974 -0.4747  0.0493
 7216TIP3   OH243138   5.492   4.293  12.752  0.0123 -0.4704  0.4583
 7216TIP3    H143139   5.459   4.374  12.790  0.6371  0.7046 -1.4561
 7216TIP3    H243140   5.586   4.307  12.742  0.0293 -1.1810 -0.4774
 7217TIP3   OH243141   6.640   1.380  12.395  0.2495 -0.0379 -0.6182
 7217TIP3    H143142   6.639   1.463  12.348 -1.0760  1.0706  1.3024
 7217TIP3    H243143   6.559   1.337  12.368  0.0866  0.0631 -0.2935
 7218TIP3   OH243144   6.408   2.621  14.136 -0.5661  0.0196 -0.3652
 7218TIP3    H143145   6.376   2.537  14.104 -2.6148  1.0526 -1.1242
 7218TIP3    H243146   6.497   2.628  14.102 -0.8899 -1.2154 -1.4895
 7219TIP3   OH243147   5.067   5.017  12.282  0.1212  0.1487  0.2459
 7219TIP3    H143148   5.014   5.096  12.287  0.2189  0.3804 -1.6890
 7219TIP3    H243149   5.156   5.049  12.267  0.3109 -0.3057  0.4072
 7220TIP3   OH243150   6.137   6.922   1.432  0.5068  0.1725  0.7327
 7220TIP3    H143151   6.124   7.005   1.385 -3.1096 -0.6446  0.0797
 7220TIP3    H243152   6.151   6.857   1.363  0.6786 -0.1617  1.0812
 7221TIP3   OH243153   6.201   0.205  15.195  0.7452 -0.4424  0.4297
 7221TIP3    H143154   6.256   0.198  15.272  0.0443 -1.6045  0.8433
 7221TIP3    H243155   6.161   0.119  15.186  0.0975 -0.0418 -0.6889
 7222TIP3   OH243156   6.718   0.887  11.514 -0.0581  0.0880  0.3674
 7222TIP3    H143157   6.680   0.963  11.557  0.3496  0.4294  0.1272
 7222TIP3    H243158   6.804   0.877  11.555 -1.7489 -2.8015  3.4259
 7223TIP3   OH243159   7.268   3.024   0.306  0.5797  0.0178 -0.5567
 7223TIP3    H143160   7.363   3.015   0.314  0.3350 -1.9356  0.3926
 7223TIP3    H243161   7.254   3.054   0.216  2.0514 -0.1450 -0.8453
 7224TIP3   OH243162   7.057   4.918  13.956  0.2072 -0.0516 -0.3087
 7224TIP3    H143163   7.021   4.939  13.870 -0.7271  0.7160  0.2598
 7224TIP3    H243164   7.140   4.875  13.937 -0.2357 -0.3622 -1.6059
 7225TIP3   OH243165   5.811   0.512  11.688  0.3973 -0.8089  0.0870
 7225TIP3    H143166   5.741   0.488  11.748 -1.9460 -0.0309 -2.2912
 7225TIP3    H243167   5.857   0.430  11.670 -0.1222 -1.3808  1.3491
 7226TIP3   OH243168   0.406   1.846  13.654 -0.6532 -0.5219  0.1696
 7226TIP3    H143169   0.475   1.878  13.597 -1.2952 -0.4207 -0.5653
 7226TIP3    H243170   0.430   1.876  13.742  0.5610 -1.0407  0.0166
 7227TIP3   OH243171   4.235   2.564  14.004  0.2796 -0.2736 -0.0190
 7227TIP3    H143172   4.293   2.639  14.020  0.4249 -0.2521 -0.6368
 7227TIP3    H243173   4.260   2.533  13.917  0.9929 -1.7414  0.6865
 7228TIP3   OH243174   6.636   1.802  15.523  0.0169 -0.0485 -0.1864
 7228TIP3    H143175   6.710   1.780  15.466 -0.4066  0.7228 -1.0548
 7228TIP3    H243176   6.675   1.821  15.608  0.5785 -2.0920  0.0363
 7229TIP3   OH243177   5.987   5.999  14.909  0.1866  0.2069  0.1807
 7229TIP3    H143178   5.985   6.049  14.990 -2.9584 -0.9852  0.9150
 7229TIP3    H243179   5.965   5.910  14.936 -1.4114 -0.1002 -2.0571
 7230TIP3   OH243180   5.750   0.079  12.688 -0.8127 -0.3408 -0.0534
 7230TIP3    H143181   5.802   0.098  12.610 -0.8944  0.0666 -0.0077
 7230TIP3    H243182   5.718  -0.011  12.674  0.8780 -1.0386  0.4836
 7231TIP3   OH243183   6.310   4.413  13.950  0.0310 -0.1565  0.3753
 7231TIP3    H143184   6.269   4.326  13.951  0.6810 -0.4670  0.1431
 7231TIP3    H243185   6.276   4.453  13.870  0.0166 -0.3340  0.2906
 7232TIP3   OH243186   0.042   0.171  15.987  0.4226 -0.0829  0.2891
 7232TIP3    H143187   0.027   0.203  16.076 -0.1832 -1.1744  0.5907
 7232TIP3    H243188   0.059   0.077  15.997  3.2955  0.3136 -0.4660
 7233TIP3   OH243189   4.722   5.479  14.230  0.0602 -0.0284  0.0861
 7233TIP3    H143190   4.671   5.556  14.203 -0.3909 -0.5897 -0.6933
 7233TIP3    H243191   4.664   5.430  14.287 -0.5871 -1.0709 -1.4276
 7234TIP3   OH243192   4.458   2.559  13.395  0.2696 -0.3182 -0.2807
 7234TIP3    H143193   4.440   2.652  13.405 -2.2038 -0.8529  0.5774
 7234TIP3    H243194   4.435   2.540  13.304  0.8269 -0.0927 -0.4716
 7235TIP3   OH243195   5.678   5.296   1.053 -0.3521  0.5884 -0.3869
 7235TIP3    H143196   5.715   5.224   1.103 -1.3157 -0.2363 -0.8256
 7235TIP3    H243197   5.754   5.346   1.022  0.3453 -0.5104 -0.4717
 7236TIP3   OH243198   5.623   1.183  13.790  0.1770 -0.4718  0.0130
 7236TIP3    H143199   5.594   1.148  13.706 -2.1349 -1.3879  1.1706
 7236TIP3    H243200   5.716   1.160  13.795  0.0955 -1.2361 -1.8660
 7237TIP3   OH243201   5.732   0.211  13.775 -0.3991  0.1127  0.4028
 7237TIP3    H143202   5.723   0.118  13.753  0.0263 -0.0305  0.8245
 7237TIP3    H243203   5.805   0.241  13.721 -0.2208  0.0851  0.6306
 7238TIP3   OH243204   0.527   1.165  14.016  0.4466 -0.2316  0.1489
 7238TIP3    H143205   0.584   1.156  13.940 -1.5503 -1.2507 -1.2878
 7238TIP3    H243206   0.528   1.258  14.035  1.1648  0.0120 -0.9937
 7239TIP3   OH243207   6.394   1.739  12.501 -0.2014 -0.2027  0.7429
 7239TIP3    H143208   6.355   1.712  12.418 -0.4415 -0.7308  1.0240
 7239TIP3    H243209   6.319   1.750  12.560 -0.1285  1.3246  0.5648
 7240TIP3   OH243210   5.270   3.445   0.949  0.6585  0.2470  0.4788
 7240TIP3    H143211   5.209   3.382   0.910  0.4851  0.5525  0.2523
 7240TIP3    H243212   5.356   3.411   0.928  0.5671  0.6148 -0.5209
 7241TIP3   OH243213   2.125   1.280  12.345 -0.2457  0.2447  0.3277
 7241TIP3    H143214   2.138   1.221  12.420  0.1429 -0.8911 -0.6199
 7241TIP3    H243215   2.209   1.280  12.299 -0.8410 -0.0055 -0.7732
 7242TIP3   OH243216   6.102   4.950  15.952  0.0278  0.1685  0.5915
 7242TIP3    H143217   6.134   4.898  15.877  1.1563 -0.3871  1.4372
 7242TIP3    H243218   6.122   4.895  16.028 -0.4978  1.0316  1.3478
 7243TIP3   OH243219   5.377   7.326  13.237  0.0013  0.2417  0.1365
 7243TIP3    H143220   5.404   7.367  13.319  0.4530 -1.6879  0.9712
 7243TIP3    H243221   5.458   7.308  13.190 -0.1564 -0.1808  0.0190
 7244TIP3   OH243222   6.628   2.282   0.374  0.0758  0.4920 -0.3623
 7244TIP3    H143223   6.576   2.202   0.381 -0.3363  0.7716 -0.2515
 7244TIP3    H243224   6.718   2.250   0.362  0.2341 -0.0053  2.0002
 7245TIP3   OH243225   4.583   0.550  14.700  0.0728 -0.4180  0.6907
 7245TIP3    H143226   4.523   0.555  14.774  0.2263  2.7666  0.6669
 7245TIP3    H243227   4.526   0.553  14.623  0.1138  0.2023  0.6801
 7246TIP3   OH243228   5.682   0.588  15.545 -0.1178  0.0610 -0.5554
 7246TIP3    H143229   5.749   0.574  15.612 -0.8092 -1.5881 -0.1764
 7246TIP3    H243230   5.731   0.607  15.466  0.7833 -0.2197 -0.0757
 7247TIP3   OH243231   5.583   0.030  15.964 -0.3231 -0.1151 -0.3382
 7247TIP3    H143232   5.620   0.074  16.040 -0.4222 -0.2062 -0.2394
 7247TIP3    H243233   5.600  -0.063  15.979 -0.0422 -0.1074 -0.5855
 7248TIP3   OH243234   5.197   1.933  14.313  0.1288  0.4077 -0.2721
 7248TIP3    H143235   5.110   1.945  14.274 -0.3047 -0.3510  0.4685
 7248TIP3    H243236   5.251   1.999  14.269 -0.7467  0.6897 -0.9505
 7249TIP3   OH243237   6.349   1.039   0.578  0.0022 -0.2632 -0.2180
 7249TIP3    H143238   6.383   0.976   0.642 -0.1278 -0.0854  0.0291
 7249TIP3    H243239   6.340   1.121   0.627 -1.2473 -0.4304 -0.1318
 7250TIP3   OH243240   3.980   6.604   0.768 -0.8407  0.2602 -0.5484
 7250TIP3    H143241   3.959   6.535   0.831  0.7883 -0.2214 -0.4854
 7250TIP3    H243242   3.979   6.685   0.819 -2.3043  0.2239 -0.5182
 7251TIP3   OH243243   6.608   0.695   0.062  0.5208  0.4211  0.0249
 7251TIP3    H143244   6.681   0.741   0.103  1.0302 -0.4203  0.0739
 7251TIP3    H243245   6.611   0.607   0.100  0.4859 -0.1127 -1.2060
 7252TIP3   OH243246   6.423   0.844  11.120 -0.1061  0.5845  0.0669
 7252TIP3    H143247   6.511   0.837  11.155 -0.3522  1.2483  0.8176
 7252TIP3    H243248   6.435   0.866  11.028  0.5599 -2.0205 -0.5248
 7253TIP3   OH243249   6.051   7.103  13.819 -0.0276  0.0024 -0.2251
 7253TIP3    H143250   6.116   7.084  13.751  0.9591 -0.2599  0.7744
 7253TIP3    H243251   6.032   7.018  13.859  1.0630  0.4560  1.2917
 7254TIP3   OH243252   7.027   6.579  13.544  0.3730  0.0033 -0.1048
 7254TIP3    H143253   6.941   6.613  13.570  1.3411  0.9644  2.0177
 7254TIP3    H243254   7.024   6.577  13.449 -1.1656  2.3390 -0.1570
 7255TIP3   OH243255   4.942   7.032  15.560  0.6549  0.0290 -0.4898
 7255TIP3    H143256   5.024   7.077  15.580  0.2037 -0.2393  2.0309
 7255TIP3    H243257   4.885   7.051  15.634 -0.6656 -1.9812 -0.9652
 7256TIP3   OH243258   6.842   0.240  15.537 -0.0195 -0.5831 -0.8068
 7256TIP3    H143259   6.801   0.255  15.622  1.8949 -2.1378  0.4529
 7256TIP3    H243260   6.858   0.328  15.502 -0.2845  0.0930  0.7248
 7257TIP3   OH243261   4.986   7.003   0.293 -0.0130 -0.4303  0.4686
 7257TIP3    H143262   4.970   6.949   0.371 -4.6466  0.4438  0.2391
 7257TIP3    H243263   4.979   7.093   0.324 -0.4539 -0.0633 -0.6822
 7258TIP3   OH243264   6.883   6.333  13.093 -0.4584 -0.4723 -0.0126
 7258TIP3    H143265   6.831   6.254  13.077  1.5798 -1.6207 -1.1829
 7258TIP3    H243266   6.884   6.379  13.009  0.3157 -0.3985  0.0372
 7259TIP3   OH243267   6.277   0.037   0.589 -0.1831 -0.0618 -0.1218
 7259TIP3    H143268   6.220   0.098   0.635  2.0300  1.7419  0.3176
 7259TIP3    H243269   6.252   0.045   0.497 -0.7626  0.5895  0.0929
 7260TIP3   OH243270   5.213   2.661  14.693 -0.8204  0.0561 -0.3093
 7260TIP3    H143271   5.132   2.710  14.682 -2.1407 -2.4198 -1.9433
 7260TIP3    H243272   5.203   2.615  14.777 -0.5600  0.7451  0.1016
 7261TIP3   OH243273   6.058   0.405  12.074  0.3371  0.5355  0.5206
 7261TIP3    H143274   5.975   0.388  12.031 -0.6965 -1.2413  3.1043
 7261TIP3    H243275   6.044   0.380  12.165  3.2971  1.4741  1.3037
 7262TIP3   OH243276   6.340   0.799  14.965  0.5070  0.2552 -0.3369
 7262TIP3    H143277   6.265   0.838  15.009  1.6218  0.1432  1.7090
 7262TIP3    H243278   6.306   0.717  14.928  0.0718 -0.7721  2.2622
 7263TIP3   OH243279   4.898   0.630  14.128  0.8418  0.4441  0.6756
 7263TIP3    H143280   4.943   0.706  14.165 -0.7346  1.0339  1.4229
 7263TIP3    H243281   4.805   0.651  14.136  0.4178 -0.8140 -0.7179
 7264TIP3   OH243282   4.394   1.086  11.113 -0.2262  0.0352  0.4760
 7264TIP3    H143283   4.383   0.998  11.076  1.4893  0.1104 -0.2636
 7264TIP3    H243284   4.476   1.080  11.164 -0.2594  1.1221  0.6577
 7265TIP3   OH243285   4.845   0.118  12.968  0.9652 -0.5457 -0.7531
 7265TIP3    H143286   4.816   0.030  12.994 -0.8761  0.1521 -0.4213
 7265TIP3    H243287   4.938   0.119  12.991  0.6534 -1.8870  0.6812
 7266TIP3   OH243288   4.298   2.324  14.171 -0.0508  0.1641  0.6675
 7266TIP3    H143289   4.372   2.356  14.223  1.2116 -0.3114 -0.8108
 7266TIP3    H243290   4.268   2.400  14.122  0.7268 -0.0789 -0.2090
 7267TIP3   OH243291   6.583   7.055   1.217  0.3920  0.4928 -0.2482
 7267TIP3    H143292   6.640   7.104   1.277  1.3536 -1.2377  0.2840
 7267TIP3    H243293   6.634   7.047   1.136  1.5688 -2.3253  0.7094
 7268TIP3   OH243294   6.187   1.722   1.646 -0.6637 -0.7512 -0.1835
 7268TIP3    H143295   6.115   1.733   1.707  0.0103 -0.5935  0.5940
 7268TIP3    H243296   6.266   1.734   1.699 -0.0278 -2.6701 -0.6467
 7269TIP3   OH243297   0.039   0.876  11.492 -0.0652 -0.1804 -0.1988
 7269TIP3    H143298   0.063   0.838  11.576  0.1465 -1.4598 -0.8187
 7269TIP3    H243299   0.065   0.809  11.428  0.4315  1.0638 -1.3239
 7270TIP3   OH243300   5.584   7.032  14.113 -0.1951  0.3843 -0.0088
 7270TIP3    H143301   5.585   7.125  14.136  0.7129  0.4950 -0.4588
 7270TIP3    H243302   5.492   7.007  14.118 -0.4092  1.2385  0.4048
 7271TIP3   OH243303   5.660   2.596  14.250 -0.3807  0.4081 -0.1356
 7271TIP3    H143304   5.636   2.641  14.331  1.2990  0.3445  0.4161
 7271TIP3    H243305   5.733   2.647  14.215  1.2475 -1.5681  0.2535
 7272TIP3   OH243306   6.587   1.680   2.042  0.0781  0.3005 -0.3512
 7272TIP3    H143307   6.536   1.608   2.080  0.4710 -0.1262 -0.6258
 7272TIP3    H243308   6.672   1.640   2.022  0.7820  1.1791  0.7954
 7273TIP3   OH243309   2.041   0.179  13.428 -0.1379  0.2254 -0.3261
 7273TIP3    H143310   1.971   0.142  13.482 -0.7261  0.3750 -0.9681
 7273TIP3    H243311   2.102   0.218  13.490 -1.0830  0.8690  0.2030
 7274TIP3   OH243312   5.356   0.176  13.411 -0.2063 -0.0278  0.4394
 7274TIP3    H143313   5.284   0.238  13.422 -1.4295 -1.1050 -1.3739
 7274TIP3    H243314   5.418   0.221  13.354  0.8557  1.1100  2.4247
 7275TIP3   OH243315   6.648   6.771  12.484 -0.2179  0.4057 -0.2535
 7275TIP3    H143316   6.672   6.861  12.463  0.2639  0.2519 -0.3719
 7275TIP3    H243317   6.723   6.737  12.533 -1.4384  0.8517  1.9732
 7276TIP3   OH243318   0.890   1.298  11.758 -0.5354 -0.4373  0.1728
 7276TIP3    H143319   0.949   1.347  11.700 -0.4950 -1.7412 -0.9076
 7276TIP3    H243320   0.901   1.206  11.732 -0.1335 -1.1141  2.5902
 7277TIP3   OH243321   4.428   2.144   1.164 -0.3101 -0.1135  0.4468
 7277TIP3    H143322   4.522   2.164   1.164 -0.5514  1.1001  0.5193
 7277TIP3    H243323   4.386   2.230   1.174 -1.4849 -0.3424 -2.0299
 7278TIP3   OH243324   5.931   0.915  14.687  0.2019 -0.3737  0.1897
 7278TIP3    H143325   5.878   0.845  14.651  1.2085 -1.2362  0.3536
 7278TIP3    H243326   5.925   0.903  14.782 -0.3120  0.2760  0.2381
 7279TIP3   OH243327   5.463   1.790   0.904 -0.5592 -0.6752 -0.2945
 7279TIP3    H143328   5.538   1.786   0.962  0.4593  2.4444 -1.2874
 7279TIP3    H243329   5.395   1.833   0.956 -0.4303 -0.0691 -0.6279
 7280TIP3   OH243330   4.792   1.809  14.906  0.6646  0.0121  0.3857
 7280TIP3    H143331   4.822   1.819  14.996 -2.1628 -0.1312  1.3775
 7280TIP3    H243332   4.783   1.715  14.893 -0.0419  0.0842  0.3340
 7281TIP3   OH243333   5.559   7.311  14.195 -0.3166  0.6813 -1.0133
 7281TIP3    H143334   5.464   7.325  14.187 -0.5899 -0.5111 -0.1082
 7281TIP3    H243335   5.571   7.288  14.287  0.7453 -0.0359 -1.3295
 7282TIP3   OH243336   0.412   0.227  10.800 -0.1052  0.1899 -0.1001
 7282TIP3    H143337   0.363   0.246  10.720 -0.2777  0.8631  0.1620
 7282TIP3    H243338   0.474   0.299  10.808  1.3556 -0.9521 -0.7496
 7283TIP3   OH243339   5.823   6.229  15.690  0.2912 -0.1286  0.6804
 7283TIP3    H143340   5.788   6.263  15.608  0.1734 -1.1077  0.3221
 7283TIP3    H243341   5.799   6.295  15.755  1.4775  1.2402 -0.2708
 7284TIP3   OH243342   4.917   0.974  15.250  0.4316  0.4601 -0.2768
 7284TIP3    H143343   4.891   0.997  15.161  1.4391  0.1732 -0.6557
 7284TIP3    H243344   4.987   0.910  15.239 -0.9712 -1.2740  0.7679
 7285TIP3   OH243345   6.245   6.823  13.855 -0.6155  0.2536 -0.1140
 7285TIP3    H143346   6.244   6.909  13.812 -0.5464 -0.0138 -0.6609
 7285TIP3    H243347   6.166   6.821  13.909  0.0230  1.1450  0.8670
 7286TIP3   OH243348   0.511   0.506  13.696 -0.3439  0.3559  0.2748
 7286TIP3    H143349   0.522   0.527  13.789 -0.1819 -0.6089  0.4850
 7286TIP3    H243350   0.590   0.456  13.674  0.1076  1.4421 -0.6506
 7287TIP3   OH243351   7.282   1.197   0.570 -0.3434 -0.1419 -0.6876
 7287TIP3    H143352   7.234   1.185   0.487  0.1381 -0.1578 -0.9652
 7287TIP3    H243353   7.217   1.233   0.630 -0.8286 -0.5966 -0.9313
 7288TIP3   OH243354   5.782   1.468  15.566 -0.1862  0.1032  0.0414
 7288TIP3    H143355   5.777   1.448  15.659 -1.5209 -0.3206 -0.1191
 7288TIP3    H243356   5.705   1.522  15.548 -0.1356 -0.1118 -0.8840
 7289TIP3   OH243357   5.647   1.685   0.412 -0.0522 -0.4084 -0.2602
 7289TIP3    H143358   5.686   1.771   0.396 -2.2430  0.4584 -1.1064
 7289TIP3    H243359   5.660   1.670   0.506 -1.3516  1.7218  0.2898
 7290TIP3   OH243360   0.885   2.120  15.113 -0.3548  0.6094  0.3572
 7290TIP3    H143361   0.879   2.041  15.060 -1.3871  0.5476  0.5732
 7290TIP3    H243362   0.921   2.186  15.053  0.9742 -0.1295  0.3079
 7291TIP3   OH243363   0.869   2.106   0.272 -0.1294 -0.1547  0.3463
 7291TIP3    H143364   0.947   2.149   0.306  0.1513 -0.6257  0.3085
 7291TIP3    H243365   0.822   2.174   0.225  1.5176 -0.4501 -1.7865
 7292TIP3   OH243366   6.343   3.065  15.715  0.6381  0.2902  0.0695
 7292TIP3    H143367   6.422   3.011  15.718  0.2354 -0.2900  0.4751
 7292TIP3    H243368   6.342   3.111  15.799  0.3953  0.0799  0.1813
 7293TIP3   OH243369   5.731   1.566  13.086 -0.2199  0.1583  0.2277
 7293TIP3    H143370   5.777   1.644  13.117  1.4076 -0.6550 -0.0956
 7293TIP3    H243371   5.638   1.588  13.094  0.2202  1.9589  0.5631
 7294TIP3   OH243372   6.793   0.941  14.004  0.2978  0.3458 -0.2358
 7294TIP3    H143373   6.880   0.936  14.044 -0.0305  0.6566  0.5281
 7294TIP3    H243374   6.807   0.917  13.912  1.0632 -0.3579  0.0567
 7295TIP3   OH243375   4.482   2.168  14.810 -0.0316 -0.3211  0.2448
 7295TIP3    H143376   4.449   2.205  14.892  0.6482 -4.6229  2.6033
 7295TIP3    H243377   4.423   2.096  14.791 -0.2591  0.6938 -3.2055
 7296TIP3   OH243378   5.549   1.014  14.956 -0.7831  0.3590  0.5944
 7296TIP3    H143379   5.544   0.940  14.896 -0.3002 -0.6661  1.7925
 7296TIP3    H243380   5.501   1.084  14.912 -0.1792 -0.2749 -1.1046
 7297TIP3   OH243381   0.401   0.256  13.353  0.1372 -0.2771  0.3886
 7297TIP3    H143382   0.379   0.319  13.422  0.1219  0.6322 -0.4401
 7297TIP3    H243383   0.334   0.269  13.286  0.3391 -0.9365  0.0535
 7298TIP3   OH243384   5.400   1.490  11.481  0.4699 -0.7327 -0.1349
 7298TIP3    H143385   5.335   1.459  11.545  0.5876 -0.8520 -0.0735
 7298TIP3    H243386   5.461   1.417  11.471  1.9210  0.1975  1.5621
 7299TIP3   OH243387   6.163   6.495  15.536 -0.1123 -0.2067 -1.1594
 7299TIP3    H143388   6.160   6.552  15.612 -1.8964  0.3916 -1.6456
 7299TIP3    H243389   6.183   6.553  15.462  0.0867 -0.5306 -1.3639
 7300TIP3   OH243390   6.140   7.139  14.915  0.2528 -0.0433  0.1419
 7300TIP3    H143391   6.055   7.105  14.944  1.0309 -1.4180  0.8054
 7300TIP3    H243392   6.158   7.092  14.833 -0.0306  0.9020 -0.4775
 7301TIP3   OH243393   6.019   7.127  14.237 -0.5247  0.1846  0.5465
 7301TIP3    H143394   5.977   7.041  14.232  0.1959 -0.1287 -0.2933
 7301TIP3    H243395   5.947   7.190  14.228 -0.7760 -0.3552 -1.3536
 7302TIP3   OH243396   7.236   0.593  13.808  0.5121 -0.1612 -0.3054
 7302TIP3    H143397   7.231   0.500  13.827 -0.5995 -0.3029 -1.2452
 7302TIP3    H243398   7.221   0.599  13.713 -1.6753  1.1285  0.0745
 7303TIP3   OH243399   5.107   0.397  12.369  0.1785  0.3560  0.0394
 7303TIP3    H143400   5.025   0.412  12.417  0.1901  1.3588 -0.2378
 7303TIP3    H243401   5.109   0.467  12.304  1.4026  0.5118  0.2394
 7304TIP3   OH243402   7.307   6.842  12.448  0.0957  0.5464  0.0049
 7304TIP3    H143403   7.251   6.870  12.376 -1.3542  0.4479  1.0685
 7304TIP3    H243404   7.252   6.849  12.526  1.8160  1.2104  1.1968
 7305TIP3   OH243405   4.893   0.708  13.813 -0.0592 -0.4039 -0.4000
 7305TIP3    H143406   4.813   0.753  13.788  0.4408  0.8979  0.3455
 7305TIP3    H243407   4.886   0.697  13.907 -0.3320 -2.2091 -0.6094
 7306TIP3   OH243408   4.669   0.267  14.888 -0.5789 -0.3306 -0.0003
 7306TIP3    H143409   4.620   0.308  14.817 -0.8822  0.7512  0.8213
 7306TIP3    H243410   4.608   0.202  14.924 -0.7879 -0.1938 -0.1008
 7307TIP3   OH243411   6.052   2.128   0.315  0.3641  0.2792  0.2295
 7307TIP3    H143412   6.042   2.089   0.402 -1.0866  1.0410  0.4116
 7307TIP3    H243413   6.127   2.082   0.277  0.8024 -0.2970  1.7505
 7308TIP3   OH243414   4.727   1.919   0.599  0.5185 -0.7039 -0.1913
 7308TIP3    H143415   4.673   1.918   0.677  0.9009  0.3736  0.0968
 7308TIP3    H243416   4.812   1.951   0.629  0.0215  1.9667 -1.4350
 7309TIP3   OH243417   6.626   5.998  13.340  0.2048 -0.4360 -0.2071
 7309TIP3    H143418   6.677   5.923  13.369 -1.1266 -0.9036  0.9534
 7309TIP3    H243419   6.542   5.961  13.311  0.3938  0.3463 -1.8386
 7310TIP3   OH243420   5.965   6.854  13.843 -0.2050  0.3875 -0.2784
 7310TIP3    H143421   5.876   6.873  13.814 -0.4234  1.8020  1.2537
 7310TIP3    H243422   5.966   6.759  13.857 -1.7145  0.4689  0.4561
 7311TIP3   OH243423   6.385   7.292  14.823  0.0478 -0.1016  0.1318
 7311TIP3    H143424   6.314   7.235  14.850 -0.3172  0.2965  0.0220
 7311TIP3    H243425   6.462   7.235  14.819 -0.7143 -1.0232 -1.9383
 7312TIP3   OH243426   0.991   3.667  13.698  0.5061 -0.1028 -0.0578
 7312TIP3    H143427   0.910   3.618  13.686  1.8033 -2.4836  0.4348
 7312TIP3    H243428   1.021   3.686  13.610  0.3809 -0.9358 -0.2893
 7313TIP3   OH243429   0.600   3.939  12.762 -0.5165 -0.1033  0.5460
 7313TIP3    H143430   0.671   3.972  12.707 -1.1364 -3.0406 -2.2138
 7313TIP3    H243431   0.528   4.001  12.747  0.2008  0.6561  0.1939
 7314TIP3   OH243432   6.484   0.829  13.743 -0.5182 -0.1480 -0.1245
 7314TIP3    H143433   6.561   0.886  13.746  0.9724 -2.1309 -0.0152
 7314TIP3    H243434   6.411   0.887  13.763  0.9139  1.8081 -0.4047
 7315TIP3   OH243435   4.010   3.440  14.241  0.0468  0.5890 -0.4376
 7315TIP3    H143436   3.939   3.404  14.188 -1.4605  1.1321  1.1414
 7315TIP3    H243437   4.030   3.524  14.200  1.2663 -0.5066 -2.1437
 7316TIP3   OH243438   1.098   2.046   1.132  0.3283 -0.3160 -0.5264
 7316TIP3    H143439   1.049   2.128   1.131 -1.7794 -1.5350 -0.2928
 7316TIP3    H243440   1.118   2.030   1.224 -0.3697 -0.7178 -0.4481
 7317TIP3   OH243441   2.003   3.874  13.720 -0.5795 -0.1384  0.5590
 7317TIP3    H143442   1.955   3.942  13.674  0.2170 -0.4408 -0.7549
 7317TIP3    H243443   1.968   3.792  13.685 -1.1838 -0.4005  1.7638
 7318TIP3   OH243444   6.093   1.661  14.587 -0.1249  0.1588 -0.6129
 7318TIP3    H143445   6.037   1.595  14.547  0.0136  0.2442 -0.9431
 7318TIP3    H243446   6.153   1.688  14.518  0.2480  0.1546 -0.2952
 7319TIP3   OH243447   7.027   2.913   0.170  0.2473  0.1606 -0.3087
 7319TIP3    H143448   6.981   2.835   0.201 -1.9822  0.5724 -2.4234
 7319TIP3    H243449   7.104   2.920   0.226 -0.9185 -2.0504  1.6296
 7320TIP3   OH243450   7.335   2.077   0.460 -0.1431  0.2099 -0.2252
 7320TIP3    H143451   7.296   2.068   0.547 -1.0075  0.2743 -0.6076
 7320TIP3    H243452   7.284   2.018   0.404 -0.1751  0.8478 -0.8833
 7321TIP3   OH243453   1.054   6.419   0.951  0.2559 -0.4223 -0.4698
 7321TIP3    H143454   1.041   6.358   0.879  0.6605 -1.1285  0.0474
 7321TIP3    H243455   1.006   6.497   0.925 -2.1998 -1.7608 -0.1384
 7322TIP3   OH243456   6.338   0.226  14.881 -0.9001 -0.2679  0.2301
 7322TIP3    H143457   6.244   0.244  14.879 -0.3861  2.4680 -1.6771
 7322TIP3    H243458   6.349   0.148  14.826 -1.9534 -0.1948 -0.0951
 7323TIP3   OH243459   1.435   0.130  14.526 -0.4772 -0.8407  0.0034
 7323TIP3    H143460   1.515   0.172  14.556 -0.8871  1.0366 -1.3890
 7323TIP3    H243461   1.454   0.037  14.525  1.4231 -0.4615  0.4446
 7324TIP3   OH243462   3.939   4.412  13.788 -0.1881 -0.7434  0.3318
 7324TIP3    H143463   3.889   4.408  13.706 -0.2469 -0.3908  0.3530
 7324TIP3    H243464   3.976   4.500  13.790  2.7539 -1.8793 -1.0565
 7325TIP3   OH243465   6.655   1.629  12.917  0.0819  0.4650  0.0084
 7325TIP3    H143466   6.662   1.706  12.974  1.8123  0.6230 -0.4012
 7325TIP3    H243467   6.684   1.660  12.831  0.9015 -0.6603 -0.1333
 7326TIP3   OH243468   0.746   0.367  14.896 -0.2525  0.0674  0.3628
 7326TIP3    H143469   0.702   0.286  14.870  0.9348 -0.5230  0.1903
 7326TIP3    H243470   0.758   0.358  14.991 -0.1948  0.0854  0.3570
 7327TIP3   OH243471   3.846   4.067   0.554 -0.1797 -0.8998 -0.7968
 7327TIP3    H143472   3.897   4.060   0.473  1.6715  0.3962  0.2150
 7327TIP3    H243473   3.911   4.055   0.624 -1.3094  0.5499  0.5311
 7328TIP3   OH243474   1.008   0.673  15.604  0.4125 -0.1554  0.3117
 7328TIP3    H143475   1.051   0.664  15.519  0.7069  1.0722  0.3268
 7328TIP3    H243476   1.069   0.634  15.667  0.7010 -0.0254  0.1076
 7329TIP3   OH243477   2.086   3.248  14.422  0.3552  0.6165  0.1200
 7329TIP3    H143478   2.010   3.268  14.368  1.0427 -1.0118 -1.4684
 7329TIP3    H243479   2.160   3.289  14.376  0.7972  0.1243  0.3899
 7330TIP3   OH243480   1.714   2.951   0.172 -0.8302 -0.3934  0.3243
 7330TIP3    H143481   1.750   2.979   0.088 -1.6006  0.0637  0.1393
 7330TIP3    H243482   1.725   3.026   0.230 -0.2582 -0.7228  0.6538
 7331TIP3   OH243483   4.186   2.926  15.098  0.3919  0.1280 -0.5633
 7331TIP3    H143484   4.167   2.836  15.072 -0.0552  0.2635 -0.7141
 7331TIP3    H243485   4.207   2.971  15.016 -1.9107  0.7765 -0.8419
 7332TIP3   OH243486   0.490   2.191  13.573  0.5800 -0.2066 -0.1745
 7332TIP3    H143487   0.406   2.174  13.530  0.3897  0.7145 -0.1861
 7332TIP3    H243488   0.531   2.258  13.519  0.5332  0.6392  0.8240
 7333TIP3   OH243489   2.006   4.350   0.390 -0.4962 -0.2689  0.3345
 7333TIP3    H143490   1.969   4.264   0.409 -0.7673 -0.0748  0.6623
 7333TIP3    H243491   2.009   4.354   0.294 -1.9687  0.0046  0.3018
 7334TIP3   OH243492   6.263   2.654  13.796 -0.4270 -0.3731 -0.6503
 7334TIP3    H143493   6.282   2.713  13.723 -1.5922  0.0288 -0.6335
 7334TIP3    H243494   6.343   2.602  13.806  0.5209  1.0362 -0.8215
 7335TIP3   OH243495   0.990   2.834  12.604  0.0662  0.8118  0.1273
 7335TIP3    H143496   1.051   2.876  12.664 -1.6978  1.4203  1.5509
 7335TIP3    H243497   0.914   2.893  12.603 -1.5145 -1.1663  0.3580
 7336TIP3   OH243498   2.076   0.662  15.205 -0.2441 -0.7382  0.3637
 7336TIP3    H143499   2.018   0.702  15.269 -0.7978  0.3412 -0.7816
 7336TIP3    H243500   2.069   0.568  15.221 -0.2061 -0.4748  2.0000
 7337TIP3   OH243501   7.062   0.529   1.637  0.2138  0.3653 -0.1018
 7337TIP3    H143502   7.061   0.457   1.700  1.8532 -2.5323 -3.2362
 7337TIP3    H243503   7.146   0.571   1.651  0.9703 -0.8447 -0.9320
 7338TIP3   OH243504   3.208   3.763  13.176 -0.0338 -0.5223  0.0311
 7338TIP3    H143505   3.118   3.791  13.194 -0.2750 -1.3311  0.1354
 7338TIP3    H243506   3.241   3.826  13.112 -0.1046  0.7580  1.2473
 7339TIP3   OH243507   0.639   1.870  14.283 -0.2853 -0.1367 -0.0160
 7339TIP3    H143508   0.574   1.925  14.240  0.2982 -0.2476 -1.0356
 7339TIP3    H243509   0.682   1.822  14.212  2.1088  1.2313  0.4671
 7340TIP3   OH243510   3.071   3.594  15.839 -0.5555  0.2613 -0.4164
 7340TIP3    H143511   3.002   3.652  15.873 -0.4710  0.8738 -1.2689
 7340TIP3    H243512   3.153   3.636  15.867 -0.5249 -0.6830  0.9464
 7341TIP3   OH243513   6.744   3.225  15.400 -0.9051 -0.4506 -0.0357
 7341TIP3    H143514   6.716   3.189  15.316 -0.0408  1.6404 -1.2759
 7341TIP3    H243515   6.811   3.164  15.431  0.0302 -0.3464 -1.7351
 7342TIP3   OH243516   1.124   2.535  14.092 -0.6117 -0.4869 -0.1035
 7342TIP3    H143517   1.170   2.590  14.156 -0.9310 -1.5671  1.0663
 7342TIP3    H243518   1.194   2.487  14.047 -0.2718  1.3405 -1.6186
 7343TIP3   OH243519   2.793   2.342  14.549  0.2335  0.1063  0.0317
 7343TIP3    H143520   2.723   2.405  14.564  0.1515  0.0500 -0.1080
 7343TIP3    H243521   2.861   2.364  14.613  0.4581  0.7176 -0.4095
 7344TIP3   OH243522   3.431   4.695  12.670  0.0185  0.1153 -0.0478
 7344TIP3    H143523   3.354   4.666  12.622 -1.0076  0.9968  1.0421
 7344TIP3    H243524   3.397   4.752  12.739  1.5371 -0.4215  1.1781
 7345TIP3   OH243525   1.608   2.678  13.119  0.0967 -0.0520 -0.2456
 7345TIP3    H143526   1.687   2.675  13.064  0.7576  0.4711  0.6555
 7345TIP3    H243527   1.569   2.764  13.100  0.8842  0.5591  0.8516
 7346TIP3   OH243528   6.778   1.368  12.952  0.2412 -0.7622 -0.5989
 7346TIP3    H143529   6.850   1.378  12.890  0.8335  0.5754  0.2801
 7346TIP3    H243530   6.722   1.444  12.936  1.7805  1.0719  2.2583
 7347TIP3   OH243531   6.955   0.515   0.027  0.3716 -0.2497  0.2953
 7347TIP3    H143532   7.043   0.501   0.063  1.4154  0.4007 -1.9406
 7347TIP3    H243533   6.939   0.438  -0.028  0.1096  0.2733 -0.3708
 7348TIP3   OH243534   7.158   0.813  14.912  0.3961  0.3291 -0.4574
 7348TIP3    H143535   7.153   0.779  15.001  1.7797  0.8574 -0.1623
 7348TIP3    H243536   7.068   0.837  14.891  0.1314  0.6696  0.9892
 7349TIP3   OH243537   2.878   4.749   1.269 -0.6660  0.5325 -0.1847
 7349TIP3    H143538   2.800   4.703   1.238 -0.0563 -1.4420  1.1234
 7349TIP3    H243539   2.853   4.786   1.353 -0.7388  1.4695 -0.6118
 7350TIP3   OH243540   0.370   2.006  14.983 -1.2699 -0.1398 -0.0569
 7350TIP3    H143541   0.346   1.914  14.996 -2.4345 -0.2202 -2.5665
 7350TIP3    H243542   0.292   2.046  14.944 -1.2231  2.2210  2.1090
 7351TIP3   OH243543   2.539   3.511  13.043 -0.1604  0.5954 -0.2066
 7351TIP3    H143544   2.619   3.562  13.029 -0.5318  1.0655 -0.6338
 7351TIP3    H243545   2.479   3.540  12.974  0.1592 -1.5268 -1.4395
 7352TIP3   OH243546   2.948   4.061  14.755 -0.5499  0.3688 -0.0881
 7352TIP3    H143547   2.936   4.013  14.837  2.3655 -0.0746  0.1381
 7352TIP3    H243548   2.860   4.063  14.715 -1.0589 -4.0744  0.5076
 7353TIP3   OH243549   3.365   2.390  13.628  0.5153 -0.1863  0.3765
 7353TIP3    H143550   3.430   2.440  13.580 -0.5272 -0.6271 -1.5261
 7353TIP3    H243551   3.311   2.456  13.672  1.3614  0.2173  0.8218
 7354TIP3   OH243552   1.668   3.194  15.663 -0.0787  0.2754 -0.2901
 7354TIP3    H143553   1.755   3.209  15.628  0.4510 -0.4730  0.6786
 7354TIP3    H243554   1.610   3.205  15.588  0.9465 -0.2659 -1.1799
 7355TIP3   OH243555   1.308   2.097  14.241  0.1119  0.0972 -0.0254
 7355TIP3    H143556   1.266   2.150  14.174  0.5260 -0.4792 -0.7560
 7355TIP3    H243557   1.323   2.012  14.199 -1.5011 -0.9711  1.4449
 7356TIP3   OH243558   0.342   2.030  13.360 -0.2394 -0.3706 -0.5359
 7356TIP3    H143559   0.328   2.064  13.272  2.1849 -1.0634 -1.2455
 7356TIP3    H243560   0.356   1.936  13.347  2.3020 -0.1550  0.2805
 7357TIP3   OH243561   3.933   4.229  15.167  0.6426  0.4124 -0.1391
 7357TIP3    H143562   3.912   4.304  15.223 -2.2724 -0.7061  0.3374
 7357TIP3    H243563   3.990   4.174  15.220 -0.7325  0.1924  1.1549
 7358TIP3   OH243564   3.817   3.693   0.854 -0.9310  0.0138 -0.2833
 7358TIP3    H143565   3.831   3.654   0.767  1.6832  2.8975 -1.2331
 7358TIP3    H243566   3.738   3.746   0.843 -0.4051  0.6544 -1.0105
 7359TIP3   OH243567   2.666   0.947  11.497 -0.5000  0.1639 -0.5027
 7359TIP3    H143568   2.673   0.985  11.585 -0.4069  0.3501 -0.5881
 7359TIP3    H243569   2.720   0.868  11.501  0.3813  0.7402 -0.6943
 7360TIP3   OH243570   2.568   1.864  15.857 -0.0948  0.6205  0.2319
 7360TIP3    H143571   2.627   1.905  15.793  0.6214  0.0217  0.5091
 7360TIP3    H243572   2.610   1.880  15.941 -0.2168 -0.0020  0.4095
 7361TIP3   OH243573   0.411   4.133  12.737 -0.2414  0.0872 -0.4166
 7361TIP3    H143574   0.445   4.204  12.684 -2.4294  1.5559  0.0900
 7361TIP3    H243575   0.394   4.173  12.823 -2.8966 -0.6557 -0.5640
 7362TIP3   OH243576   0.823   4.218  15.449  0.0692  0.3247  0.7735
 7362TIP3    H143577   0.776   4.218  15.532  1.8874 -0.7907  1.8174
 7362TIP3    H243578   0.824   4.126  15.422 -0.6700  0.6976 -0.5949
 7363TIP3   OH243579   1.635   1.856  15.436  0.1627  0.0548  0.0763
 7363TIP3    H143580   1.590   1.932  15.399  1.0152 -0.2223 -1.6127
 7363TIP3    H243581   1.719   1.891  15.467 -0.1615  0.1121  0.8982
 7364TIP3   OH243582   3.091   4.366  12.502 -0.4405 -0.7123 -1.1764
 7364TIP3    H143583   3.038   4.422  12.558 -1.2350 -1.4948 -1.1338
 7364TIP3    H243584   3.180   4.400  12.511 -0.7578 -0.0787 -0.3886
 7365TIP3   OH243585   1.201   3.822  14.275 -0.1820  0.1013 -0.2899
 7365TIP3    H143586   1.127   3.761  14.286  0.5380 -0.6396  0.4922
 7365TIP3    H243587   1.277   3.765  14.263  0.2504  0.8684 -1.2350
 7366TIP3   OH243588   3.165   3.218  14.362  0.0921 -0.4793 -0.3870
 7366TIP3    H143589   3.151   3.312  14.353 -0.8552 -0.2849  2.5976
 7366TIP3    H243590   3.149   3.200  14.454  1.3763 -3.4000 -0.6706
 7367TIP3   OH243591   6.748   2.993  14.939 -0.0930 -0.1578 -0.2596
 7367TIP3    H143592   6.697   2.998  15.019  1.0161 -0.3183  0.4647
 7367TIP3    H243593   6.825   3.047  14.956  0.5165 -0.7982 -0.9332
 7368TIP3   OH243594   1.796   1.981  14.201  0.7891 -0.0712  0.3356
 7368TIP3    H143595   1.845   2.015  14.275 -0.0133  1.0220  0.3794
 7368TIP3    H243596   1.713   1.951  14.238  0.8750 -0.6703  0.0612
 7369TIP3   OH243597   1.423   0.881  14.115  0.3737 -0.4548 -0.2323
 7369TIP3    H143598   1.349   0.941  14.114 -0.0129 -0.8766  1.3084
 7369TIP3    H243599   1.398   0.813  14.178  1.0301 -1.9539 -1.5443
 7370TIP3   OH243600   1.674   0.325  15.268 -0.6094 -0.0383 -0.5519
 7370TIP3    H143601   1.766   0.319  15.293  0.1095  0.6618 -2.9248
 7370TIP3    H243602   1.665   0.413  15.230 -2.4754  0.2434  0.4776
 7371TIP3   OH243603   7.325   2.056  10.812 -0.0635  0.0547 -0.4950
 7371TIP3    H143604   7.233   2.066  10.787 -0.1176 -2.9588 -1.7242
 7371TIP3    H243605   7.324   1.986  10.878  1.6634 -2.8278 -3.3516
 7372TIP3   OH243606   0.785   1.447   0.258  0.1903 -0.4215  0.7903
 7372TIP3    H143607   0.778   1.528   0.309  0.4650 -0.2960  0.6289
 7372TIP3    H243608   0.784   1.378   0.324 -1.1610 -0.3455  0.8591
 7373TIP3   OH243609   6.126   1.122  14.758  0.1918 -0.4651  0.4165
 7373TIP3    H143610   6.197   1.063  14.783 -0.6308 -1.3838  0.6676
 7373TIP3    H243611   6.067   1.067  14.706 -0.1635  0.3696 -0.0673
 7374TIP3   OH243612   0.373   1.869  13.941 -0.0471  0.2610 -0.0640
 7374TIP3    H143613   0.429   1.792  13.956 -0.4698 -0.0507 -0.0853
 7374TIP3    H243614   0.284   1.838  13.959 -0.2867  0.5809 -0.6806
 7375TIP3   OH243615   5.553   1.934  14.140  0.3816  0.2165 -1.1132
 7375TIP3    H143616   5.620   1.986  14.183  0.3956 -0.9453  0.3102
 7375TIP3    H243617   5.471   1.976  14.163  0.5363  0.9842 -1.9344
 7376TIP3   OH243618   0.829   1.047   0.022 -0.3893 -0.3518  0.3523
 7376TIP3    H143619   0.789   1.012   0.101 -0.0929  0.4332  0.8529
 7376TIP3    H243620   0.755   1.081  -0.029 -0.5358 -0.4898  0.4717
 7377TIP3   OH243621   0.429   2.748  11.143 -0.1144  0.1571  0.0050
 7377TIP3    H143622   0.508   2.776  11.190 -1.2338 -0.4874  2.3096
 7377TIP3    H243623   0.375   2.826  11.137  0.7548  0.6499 -1.7585
 7378TIP3   OH243624   1.293   2.145  15.638 -0.2772  1.0059 -0.5413
 7378TIP3    H143625   1.269   2.177  15.725 -1.8034  0.4994 -0.7769
 7378TIP3    H243626   1.380   2.182  15.623  0.0018  1.0947  1.1951
 7379TIP3   OH243627   1.183   2.934  12.788 -0.4200  0.6460  0.1582
 7379TIP3    H143628   1.236   2.916  12.711 -1.5877 -1.1956 -0.2535
 7379TIP3    H243629   1.185   2.853  12.838 -2.1567  0.8209  0.5475
 7380TIP3   OH243630   0.696   1.460  13.757  0.4781  0.4099 -0.7970
 7380TIP3    H143631   0.711   1.554  13.745 -1.3870  1.0416  1.4616
 7380TIP3    H243632   0.639   1.435  13.685 -0.6161  1.4479 -0.2967
 7381TIP3   OH243633   0.382   1.467  12.220  0.1662 -0.5280 -0.7884
 7381TIP3    H143634   0.406   1.484  12.129 -0.0220  0.0626 -0.7293
 7381TIP3    H243635   0.465   1.453  12.265  0.5225  2.6658 -0.3361
 7382TIP3   OH243636   2.802   0.924  14.224  0.4279  0.3844 -0.2657
 7382TIP3    H143637   2.863   0.992  14.194  1.7097 -0.9437 -0.7479
 7382TIP3    H243638   2.784   0.946  14.315  0.8026  1.3790 -0.4217
 7383TIP3   OH243639   2.230   2.985   0.253  0.0940  0.7318 -0.4788
 7383TIP3    H143640   2.272   2.929   0.317  0.9203  0.8606 -0.9077
 7383TIP3    H243641   2.200   2.926   0.184  0.8730  0.8095 -0.8810
 7384TIP3   OH243642   2.524   0.889  13.718 -0.0553 -0.4929  0.4387
 7384TIP3    H143643   2.524   0.797  13.691  0.6244  0.3482 -2.5809
 7384TIP3    H243644   2.561   0.888  13.807  0.7126 -3.0334  0.1302
 7385TIP3   OH243645   1.572   1.375  12.652  0.2200  0.2188 -0.1011
 7385TIP3    H143646   1.628   1.302  12.680  0.1579  0.8161  1.6268
 7385TIP3    H243647   1.576   1.372  12.557 -1.1685 -3.1392 -0.1492
 7386TIP3   OH243648   3.284   2.821   0.354  0.1002  0.7864 -0.6406
 7386TIP3    H143649   3.353   2.801   0.417 -0.1463  0.7307 -0.3866
 7386TIP3    H243650   3.220   2.873   0.404 -0.5110  0.0168 -0.6131
 7387TIP3   OH243651   7.190   1.148  12.253 -0.1957  0.0590  0.4200
 7387TIP3    H143652   7.232   1.100  12.182 -0.7388  0.2370 -0.0294
 7387TIP3    H243653   7.097   1.151  12.228  0.1977  3.6003 -0.8930
 7388TIP3   OH243654   3.621   3.196  15.396  0.0203  0.0666 -0.2411
 7388TIP3    H143655   3.584   3.228  15.313  0.5134  1.0569 -0.0942
 7388TIP3    H243656   3.547   3.157  15.442 -0.2061 -0.7502 -1.2635
 7389TIP3   OH243657   1.929   3.996  14.849 -0.2583 -0.0639 -0.2503
 7389TIP3    H143658   1.910   3.910  14.813  1.9411 -0.4338 -0.5998
 7389TIP3    H243659   1.903   3.990  14.941  1.7804 -1.7871  0.2560
 7390TIP3   OH243660   1.116   1.287  15.391  0.8699 -0.7649 -0.2152
 7390TIP3    H143661   1.176   1.322  15.325  0.3488 -0.9573 -0.7978
 7390TIP3    H243662   1.134   1.193  15.393  0.2601 -0.8948 -0.7344
 7391TIP3   OH243663   3.888   4.845  14.409  0.3529 -0.1868  0.8101
 7391TIP3    H143664   3.803   4.879  14.382  0.0305 -1.6441 -0.1385
 7391TIP3    H243665   3.869   4.760  14.448  1.2352  0.1244  1.9363
 7392TIP3   OH243666   2.693   0.141   0.734  0.0809 -0.0423  0.3742
 7392TIP3    H143667   2.623   0.202   0.759  0.3075 -0.2954  1.6462
 7392TIP3    H243668   2.739   0.185   0.662 -1.4389  0.0847 -0.5507
 7393TIP3   OH243669   0.351   1.765  12.103  0.0810 -0.6060 -0.2917
 7393TIP3    H143670   0.383   1.705  12.036 -0.4804 -0.1788 -0.9523
 7393TIP3    H243671   0.277   1.810  12.061 -1.2030 -1.3750  1.1064
 7394TIP3   OH243672   1.991   2.762  15.373  0.2119 -0.3581  0.4603
 7394TIP3    H143673   1.981   2.686  15.429  2.7145 -2.3156 -1.6305
 7394TIP3    H243674   1.902   2.793  15.357 -0.7850 -2.4462  1.8207
 7395TIP3   OH243675   1.265   2.197  15.908 -0.3732 -0.4508 -0.0427
 7395TIP3    H143676   1.311   2.122  15.947 -1.2986 -0.7321  0.5292
 7395TIP3    H243677   1.286   2.270  15.966 -0.0255 -0.4175 -0.2116
 7396TIP3   OH243678   7.082   2.442  14.363 -0.5245 -0.1775  0.3505
 7396TIP3    H143679   7.057   2.506  14.430  0.0185 -1.3840  1.7278
 7396TIP3    H243680   7.178   2.439  14.368 -0.5304 -0.8397  0.0456
 7397TIP3   OH243681   0.433   2.302  15.131 -0.2009 -0.3649  0.5756
 7397TIP3    H143682   0.418   2.223  15.080  0.1408 -0.2235  0.2583
 7397TIP3    H243683   0.504   2.347  15.086 -2.7663  1.9181 -1.3285
 7398TIP3   OH243684   2.204   2.173  15.262 -0.4386 -0.4936  0.2395
 7398TIP3    H143685   2.270   2.211  15.203 -0.1316 -0.9700  0.2763
 7398TIP3    H243686   2.123   2.176  15.211 -0.6970  1.4073  0.7039
 7399TIP3   OH243687   1.995   3.093  13.079 -0.1419  0.0269 -0.4925
 7399TIP3    H143688   2.054   3.017  13.078 -0.1044  0.0532 -0.2931
 7399TIP3    H243689   1.938   3.080  13.003 -0.8447 -0.7529  0.1614
 7400TIP3   OH243690   7.270   2.160  15.074 -0.0653 -0.2865  0.0178
 7400TIP3    H143691   7.197   2.220  15.057 -0.5985 -0.8455  0.3178
 7400TIP3    H243692   7.234   2.073  15.057  0.6317 -0.5448 -0.1565
 7401TIP3   OH243693   2.628   4.246   1.635  0.2341  0.1431 -0.5251
 7401TIP3    H143694   2.699   4.268   1.575  1.9643 -0.4190  1.2443
 7401TIP3    H243695   2.635   4.152   1.648  0.8087  0.4519  1.6364
 7402TIP3   OH243696   2.754   2.291  15.662  0.2646 -0.2876 -0.0897
 7402TIP3    H143697   2.810   2.355  15.706  0.2964 -0.0575 -0.4631
 7402TIP3    H243698   2.665   2.325  15.673  0.2386 -0.4151  0.1030
 7403TIP3   OH243699   2.455   3.642   0.506 -0.1222 -0.4590  0.1069
 7403TIP3    H143700   2.372   3.665   0.465  0.4273 -1.8685 -1.8872
 7403TIP3    H243701   2.506   3.602   0.436  1.4716 -1.4968  1.8077
 7404TIP3   OH243702   1.753   2.662   1.633 -0.9464 -0.0375 -0.9224
 7404TIP3    H143703   1.726   2.718   1.707 -0.3153  0.7631 -1.2937
 7404TIP3    H243704   1.694   2.687   1.562 -0.8514 -0.0469 -1.0048
 7405TIP3   OH243705   0.603   4.872  15.209 -0.2684  0.2530 -0.0447
 7405TIP3    H143706   0.653   4.799  15.172  0.4561  0.5334  0.3706
 7405TIP3    H243707   0.529   4.884  15.148 -1.3744 -1.9605  0.8176
 7406TIP3   OH243708   2.329   2.461  13.643 -0.3928 -0.6797 -0.3424
 7406TIP3    H143709   2.418   2.445  13.612 -0.4349 -0.8227 -0.3938
 7406TIP3    H243710   2.334   2.449  13.738  0.0222  1.0797 -0.1240
 7407TIP3   OH243711   1.742   5.681  13.493 -0.8028 -0.9523  0.5255
 7407TIP3    H143712   1.811   5.618  13.511  1.2277  0.8298 -0.8046
 7407TIP3    H243713   1.701   5.697  13.578  1.1516 -1.2041  1.5215
 7408TIP3   OH243714   0.077   1.546  15.035 -0.2133 -0.3434 -0.2971
 7408TIP3    H143715   0.107   1.612  15.098  1.3858 -0.9488 -0.4051
 7408TIP3    H243716   0.137   1.554  14.961  0.3022 -2.1862 -0.1273
 7409TIP3   OH243717   1.513   3.452   0.008 -0.2049 -0.0202 -0.4921
 7409TIP3    H143718   1.477   3.376  -0.038 -0.8509  0.3867 -0.6670
 7409TIP3    H243719   1.477   3.528  -0.039  0.6345  0.3921 -0.4708
 7410TIP3   OH243720   3.258   3.806   1.924 -0.0025 -0.0408  0.3445
 7410TIP3    H143721   3.229   3.717   1.942 -0.7610  0.2046  0.3294
 7410TIP3    H243722   3.247   3.852   2.008 -0.3087  0.2263  0.1588
 7411TIP3   OH243723   0.879   2.766  14.052 -0.5495  0.1283  0.0973
 7411TIP3    H143724   0.863   2.809  13.968 -1.4895  0.3453  0.3772
 7411TIP3    H243725   0.970   2.737  14.047 -0.5562  0.2540 -0.9420
 7412TIP3   OH243726   0.130   2.237   0.017 -0.3081  0.7979  0.2041
 7412TIP3    H143727   0.163   2.178  -0.051 -0.1443  2.0093 -0.7995
 7412TIP3    H243728   0.191   2.226   0.090  0.5158  0.7179 -0.4825
 7413TIP3   OH243729   1.310   3.827  13.734 -0.3096 -0.0337  0.5982
 7413TIP3    H143730   1.348   3.903  13.690 -0.9053 -0.5671 -0.8793
 7413TIP3    H243731   1.246   3.863  13.795  0.3429  0.7033  0.8491
 7414TIP3   OH243732   3.115   3.908  14.603  0.4120 -0.4538  0.1035
 7414TIP3    H143733   3.128   3.856  14.683  2.7541  0.7635  0.5573
 7414TIP3    H243734   3.061   3.982  14.631  0.5300 -0.4632  0.3502
 7415TIP3   OH243735   1.511   4.207  14.108 -0.1197 -0.1766 -0.3544
 7415TIP3    H143736   1.430   4.157  14.115 -1.1641  1.4959 -0.2564
 7415TIP3    H243737   1.517   4.256  14.190  1.5649 -1.0891  0.1062
 7416TIP3   OH243738   6.869   2.474   0.510  0.8633  0.3776  0.5031
 7416TIP3    H143739   6.836   2.453   0.598  0.4556  1.2193  0.5517
 7416TIP3    H243740   6.962   2.490   0.523  1.1313 -1.0857  0.5155
 7417TIP3   OH243741   1.913   4.969  14.686 -0.0678  0.0490 -0.3246
 7417TIP3    H143742   2.004   4.964  14.716  0.0212  0.3896 -0.5302
 7417TIP3    H243743   1.897   4.885  14.643  0.0272 -0.1636  0.0531
 7418TIP3   OH243744   6.094   2.366  15.237  0.7637  0.0942 -0.0004
 7418TIP3    H143745   6.077   2.279  15.201  0.0782  0.1642  0.1589
 7418TIP3    H243746   6.058   2.362  15.325  1.6490  0.2114  0.3771
 7419TIP3   OH243747   1.994   3.869  14.515  0.2535  0.3246 -0.2809
 7419TIP3    H143748   2.032   3.789  14.479  1.6772  0.8450  0.0380
 7419TIP3    H243749   1.906   3.873  14.477 -0.4381 -2.2224  0.9680
 7420TIP3   OH243750   0.952   1.788  13.050 -0.3721 -0.3372  0.2343
 7420TIP3    H143751   0.977   1.862  12.995  0.5385 -1.3739 -0.7650
 7420TIP3    H243752   0.920   1.828  13.131 -1.4769  1.1829 -0.9401
 7421TIP3   OH243753   7.121   1.536  13.903  0.0688 -0.2927  0.1765
 7421TIP3    H143754   7.055   1.501  13.842 -1.1169  1.3983  0.4374
 7421TIP3    H243755   7.142   1.623  13.868  0.7293 -0.0504  1.1612
 7422TIP3   OH243756   6.932   1.036  13.385  0.3031 -0.5278  0.0702
 7422TIP3    H143757   7.008   1.005  13.335  0.1564 -0.5922 -0.1170
 7422TIP3    H243758   6.965   1.108  13.438  0.1983  0.3462 -1.0314
 7423TIP3   OH243759   2.067   1.890   0.487 -0.5811  0.0205  0.3751
 7423TIP3    H143760   2.124   1.814   0.475 -0.5497 -0.3714  2.6247
 7423TIP3    H243761   1.986   1.867   0.444 -0.4715 -1.2005  0.7940
 7424TIP3   OH243762   2.435   4.311  14.308 -0.2823  1.0652 -0.5592
 7424TIP3    H143763   2.358   4.325  14.253  0.3562 -1.1870 -2.0887
 7424TIP3    H243764   2.507   4.350  14.259 -0.2753  2.2648  0.3948
 7425TIP3   OH243765   0.959   1.094   1.031 -0.1103  0.1146  0.8137
 7425TIP3    H143766   1.050   1.078   1.008 -0.2898 -1.2275  0.9737
 7425TIP3    H243767   0.912   1.089   0.947 -0.2122 -0.5980  0.9075
 7426TIP3   OH243768   3.248   4.668   0.276  0.1207  1.1351 -0.4883
 7426TIP3    H143769   3.239   4.585   0.321  0.8013  0.8222 -0.9208
 7426TIP3    H243770   3.338   4.669   0.245 -0.4320  1.1811 -2.1551
 7427TIP3   OH243771   3.251   1.180  14.007 -0.3022 -0.7857 -0.8501
 7427TIP3    H143772   3.189   1.200  13.936 -1.8041  1.9821  1.1804
 7427TIP3    H243773   3.291   1.264  14.029  0.5844 -1.7255  1.2236
 7428TIP3   OH243774   7.331   2.644  13.137 -0.5514 -0.7140  0.5401
 7428TIP3    H143775   7.384   2.681  13.067  0.3641 -2.0293  0.5128
 7428TIP3    H243776   7.324   2.714  13.202 -1.0415  0.3697 -0.6541
 7429TIP3   OH243777   0.054   1.961  12.638 -0.7645 -1.0920 -0.5834
 7429TIP3    H143778   0.049   1.867  12.623  0.6863 -1.1189 -1.0015
 7429TIP3    H243779  -0.001   1.976  12.714  0.2190 -2.5142  0.4377
 7430TIP3   OH243780   2.748   3.280   0.188  0.0156 -0.2392 -0.1080
 7430TIP3    H143781   2.759   3.327   0.105  0.7841 -0.0851  0.0755
 7430TIP3    H243782   2.838   3.258   0.215 -0.3628 -2.4799 -0.5828
 7431TIP3   OH243783   0.709   2.448  13.589 -0.4324 -0.6974 -0.0355
 7431TIP3    H143784   0.767   2.477  13.518  0.8610 -0.8944  0.9262
 7431TIP3    H243785   0.742   2.361  13.612  0.7038  0.3392  2.4202
 7432TIP3   OH243786   0.458   2.709  13.991  0.8375  0.0478 -0.0087
 7432TIP3    H143787   0.492   2.672  13.910  0.8370 -0.4742  0.2269
 7432TIP3    H243788   0.508   2.790  14.004  1.6225 -0.4512  0.0674
 7433TIP3   OH243789   0.535   1.229  12.890  0.2966 -0.2313 -0.0946
 7433TIP3    H143790   0.457   1.281  12.876 -0.3908 -1.3604 -0.5135
 7433TIP3    H243791   0.578   1.270  12.965 -0.7810  0.2974  0.2420
 7434TIP3   OH243792   1.059   1.743  14.718 -0.7291 -0.1270  0.3913
 7434TIP3    H143793   1.150   1.737  14.692 -0.9106 -1.1589 -0.0372
 7434TIP3    H243794   1.014   1.779  14.642 -0.6385  0.7112  0.7209
 7435TIP3   OH243795   0.756   6.985  14.991  0.5911 -0.4596  0.2349
 7435TIP3    H143796   0.811   7.061  14.974  1.0128 -0.4004  1.8266
 7435TIP3    H243797   0.799   6.914  14.944  0.1904  0.2750 -1.2674
 7436TIP3   OH243798   0.477   1.675  12.469  0.0887  0.3239 -0.0316
 7436TIP3    H143799   0.405   1.693  12.408  0.5637 -0.0863 -0.7198
 7436TIP3    H243800   0.488   1.580  12.465  1.1152  0.4563 -0.4437
 7437TIP3   OH243801   0.412   1.931  15.255 -1.0875 -1.0466 -0.6610
 7437TIP3    H143802   0.367   2.000  15.206 -0.2396  1.6282  2.1472
 7437TIP3    H243803   0.484   1.905  15.198 -2.4413 -0.8568 -2.5047
 7438TIP3   OH243804   0.317   3.218  12.320 -0.2621  0.2309  0.6765
 7438TIP3    H143805   0.381   3.147  12.313 -0.1342  0.4837 -0.8262
 7438TIP3    H243806   0.235   3.179  12.291 -0.9582 -0.2586  3.1484
 7439TIP3   OH243807   6.432   2.935  13.942 -0.3791 -0.0550  0.0311
 7439TIP3    H143808   6.467   2.953  14.029 -0.3913 -0.4752  0.1240
 7439TIP3    H243809   6.482   2.858  13.912 -1.0578 -0.5118  0.0665
 7440TIP3   OH243810   0.537   4.137   1.712  0.4931 -0.0010 -0.0042
 7440TIP3    H143811   0.528   4.047   1.741 -0.5865 -0.6768 -2.2982
 7440TIP3    H243812   0.542   4.188   1.793 -1.4015 -1.8574  1.3489
 7441TIP3   OH243813   6.811   3.025  13.753  0.1082  0.3323  0.3102
 7441TIP3    H143814   6.724   3.058  13.776  1.1981  2.9649  0.8203
 7441TIP3    H243815   6.812   3.025  13.657  0.6784  3.5487  0.2726
 7442TIP3   OH243816   1.716   1.039  13.980 -0.5661  0.3049  0.4310
 7442TIP3    H143817   1.651   1.046  14.049 -0.1061 -0.7765  1.0013
 7442TIP3    H243818   1.689   1.102  13.913 -2.6351 -0.6967  0.2957
 7443TIP3   OH243819   1.800   4.009  11.677 -0.0675  0.2081 -0.3683
 7443TIP3    H143820   1.763   3.950  11.742 -2.3745 -0.6100 -2.3838
 7443TIP3    H243821   1.767   4.095  11.700  0.2037  0.1280  0.3174
 7444TIP3   OH243822   1.892   3.160  15.464 -0.1611 -0.2511  0.2642
 7444TIP3    H143823   1.946   3.197  15.394 -0.2905 -0.9776 -0.2286
 7444TIP3    H243824   1.949   3.096  15.507 -0.5106 -0.7489 -0.0142
 7445TIP3   OH243825   7.151   3.127  13.524 -0.1550  0.2745 -0.1809
 7445TIP3    H143826   7.122   3.202  13.472 -0.0949  0.2917 -0.1889
 7445TIP3    H243827   7.096   3.054  13.495 -0.5730  0.4371  0.2036
 7446TIP3   OH243828   2.360   2.285  15.035 -0.3253 -0.2342 -0.1023
 7446TIP3    H143829   2.338   2.357  14.976 -0.0835 -0.7102 -0.7888
 7446TIP3    H243830   2.356   2.207  14.979 -1.7313 -0.9000  0.8930
 7447TIP3   OH243831   0.897   0.545   1.477 -0.3061 -0.0879  0.4434
 7447TIP3    H143832   0.950   0.625   1.479 -0.9660  0.3853 -0.6389
 7447TIP3    H243833   0.912   0.508   1.390  0.1095 -1.2272  0.9920
 7448TIP3   OH243834   1.880   1.776  14.416  0.2145  0.5685  0.1553
 7448TIP3    H143835   1.813   1.708  14.415  0.0550  0.7202  0.4178
 7448TIP3    H243836   1.900   1.789  14.509  1.5525 -0.4129  0.0201
 7449TIP3   OH243837   2.127   3.040  15.967  0.1055  0.0115 -0.1321
 7449TIP3    H143838   2.210   3.056  16.012 -1.2237  0.2215  2.3526
 7449TIP3    H243839   2.104   2.950  15.990 -1.0718  0.4422  0.4473
 7450TIP3   OH243840   0.973   2.163  10.812  0.0598  0.2495  0.5344
 7450TIP3    H143841   1.033   2.238  10.816 -0.1557  0.4396  0.2760
 7450TIP3    H243842   1.021   2.097  10.761 -0.1308  0.5684 -0.0561
 7451TIP3   OH243843   0.058   6.243  15.786 -0.6524  0.5336  0.1162
 7451TIP3    H143844   0.120   6.225  15.716  0.8228  2.0985  0.9702
 7451TIP3    H243845   0.052   6.339  15.788 -0.5156  0.5207  2.2341
 7452TIP3   OH243846   1.847   3.744  13.917  0.3565  0.4921 -0.0014
 7452TIP3    H143847   1.911   3.812  13.896 -0.5581  1.2318 -0.4326
 7452TIP3    H243848   1.768   3.792  13.942  0.2413 -0.3984  1.4698
 7453TIP3   OH243849   1.261   1.144  14.699  0.4952  0.4828  0.3399
 7453TIP3    H143850   1.319   1.213  14.732  2.2436 -0.8452  0.0789
 7453TIP3    H243851   1.300   1.063  14.731 -1.0639 -0.4503 -0.1006
 7454TIP3   OH243852   0.801   1.555  14.903  0.0313  0.5210  0.1170
 7454TIP3    H143853   0.706   1.541  14.896 -0.0306  1.0244 -0.0996
 7454TIP3    H243854   0.812   1.650  14.892  0.7310  0.2350 -1.9496
 7455TIP3   OH243855   0.264   0.956   0.849 -0.0128 -0.1598 -0.0336
 7455TIP3    H143856   0.274   0.990   0.760 -1.4578  0.2049 -0.0769
 7455TIP3    H243857   0.189   1.004   0.884 -0.6831 -1.7005  0.6909
 7456TIP3   OH243858   6.155   2.129  15.049 -0.2256  0.1779 -0.1534
 7456TIP3    H143859   6.248   2.134  15.027 -0.0485 -1.4700  0.1789
 7456TIP3    H243860   6.144   2.043  15.089 -1.4142  1.3563  2.1183
 7457TIP3   OH243861   0.747   2.322  14.008 -0.1794  0.1449  0.8958
 7457TIP3    H143862   0.667   2.285  13.971 -1.1206  0.6477  2.3622
 7457TIP3    H243863   0.766   2.398  13.953  0.3370 -1.0437 -0.5758
 7458TIP3   OH243864   0.553   1.063  13.312  0.3742  0.1367  0.5327
 7458TIP3    H143865   0.591   0.981  13.280  0.5864  0.2786  0.4181
 7458TIP3    H243866   0.598   1.131  13.263 -1.4264  0.2317 -1.0331
 7459TIP3   OH243867   1.224   1.117   1.029  0.7930  0.2507  0.1324
 7459TIP3    H143868   1.172   1.194   1.006 -0.6061 -0.2889  1.4081
 7459TIP3    H243869   1.314   1.143   1.012  0.2932  2.0158  0.1149
 7460TIP3   OH243870   0.978   7.036   1.436  0.1140  0.2107  0.2433
 7460TIP3    H143871   1.042   7.106   1.421  0.1073  0.6014  1.8689
 7460TIP3    H243872   1.001   7.001   1.522 -1.3926 -0.1415  0.5152
 7461TIP3   OH243873   6.444   2.213   0.734 -0.3090  0.2687 -0.1691
 7461TIP3    H143874   6.405   2.139   0.688  1.9175  0.2347 -2.0807
 7461TIP3    H243875   6.374   2.279   0.738 -1.6857 -1.1618 -0.2211
 7462TIP3   OH243876   2.634   1.460   3.980  0.3672 -0.0950 -0.6283
 7462TIP3    H143877   2.631   1.418   4.065  0.1446  0.8553 -0.1526
 7462TIP3    H243878   2.544   1.491   3.965  0.1478 -1.2312 -1.7100
 7463TIP3   OH243879   0.826   1.622   0.035 -0.4682  0.2736 -0.5320
 7463TIP3    H143880   0.824   1.594   0.126  0.9163  2.7018  0.3184
 7463TIP3    H243881   0.876   1.554  -0.011 -3.7064 -2.4648 -0.1119
 7464TIP3   OH243882   2.702   0.008   1.745  0.4025  0.3856  0.7171
 7464TIP3    H143883   2.723  -0.018   1.655 -1.3704 -0.0098  0.3896
 7464TIP3    H243884   2.733  -0.065   1.799  2.5917  1.1786  0.5589
 7465TIP3   OH243885   0.887   1.781   0.748 -0.1368 -0.0930 -0.8674
 7465TIP3    H143886   0.912   1.727   0.823  0.9835  0.9284 -0.4829
 7465TIP3    H243887   0.968   1.793   0.699 -0.5331  0.5977 -1.3657
 7466TIP3   OH243888   6.506   2.512  11.966  0.6470 -0.0815  0.4630
 7466TIP3    H143889   6.585   2.556  11.996  0.9591  0.5960 -1.2479
 7466TIP3    H243890   6.532   2.468  11.885 -0.7914  0.4343 -0.3065
 7467TIP3   OH243891   1.356   4.579  14.161 -0.1329  0.5365 -0.4512
 7467TIP3    H143892   1.427   4.643  14.172  1.3110 -0.9980 -0.6378
 7467TIP3    H243893   1.352   4.564  14.067  0.2093 -0.3958 -0.3178
 7468TIP3   OH243894   0.075   1.449  11.222 -0.5014  0.1681  0.3319
 7468TIP3    H143895   0.168   1.471  11.211 -0.5883  0.3937  0.0235
 7468TIP3    H243896   0.072   1.392  11.299 -0.2042  0.8138  0.8284
 7469TIP3   OH243897   1.692   4.964  14.829  0.2141 -0.1554  0.1442
 7469TIP3    H143898   1.731   4.931  14.909  0.2105  1.0754  0.6629
 7469TIP3    H243899   1.766   4.980  14.771  0.1574 -1.8581 -0.4245
 7470TIP3   OH243900   2.984   0.703  14.275  0.3914  0.1944 -1.1740
 7470TIP3    H143901   2.958   0.634  14.336  0.5197  1.4563  0.3325
 7470TIP3    H243902   2.908   0.762  14.272  0.6832  0.5449 -1.6483
 7471TIP3   OH243903   3.196   5.649   0.632 -0.6118  0.0722  0.1175
 7471TIP3    H143904   3.111   5.687   0.608 -0.8546  0.8174  1.9977
 7471TIP3    H243905   3.198   5.565   0.588 -3.3965 -1.0170  1.9035
 7472TIP3   OH243906   0.750   5.905  14.816  0.3482  0.1498 -0.0490
 7472TIP3    H143907   0.733   5.812  14.830  0.3672  0.0204 -0.8522
 7472TIP3    H243908   0.786   5.936  14.899 -1.5717 -0.0964  0.9091
 7473TIP3   OH243909   1.601   1.645  14.150  0.1744  0.1329  0.3484
 7473TIP3    H143910   1.548   1.567  14.132 -0.2327  0.2029  1.2279
 7473TIP3    H243911   1.685   1.627  14.107 -0.4515 -0.1039 -0.8068
 7474TIP3   OH243912   4.944   4.691  13.748  0.2890 -0.5391  0.1074
 7474TIP3    H143913   4.895   4.686  13.830 -2.6826 -0.9600 -1.6309
 7474TIP3    H243914   5.026   4.736  13.772  0.2213 -2.0652  3.5852
 7475TIP3   OH243915   1.120   2.352  15.560  0.0149  0.2549  0.3335
 7475TIP3    H143916   1.146   2.389  15.644  0.8292  2.6609 -0.9205
 7475TIP3    H243917   1.166   2.268  15.555 -0.4798 -0.1574  2.4918
 7476TIP3   OH243918   1.036   4.123   0.090 -0.6023  0.1138 -0.3746
 7476TIP3    H143919   0.964   4.186   0.097 -1.4153 -0.7425 -0.7994
 7476TIP3    H243920   1.048   4.090   0.179 -1.1934 -0.2323 -0.4214
 7477TIP3   OH243921   1.950   1.715  15.689  0.3506 -1.2031 -0.2458
 7477TIP3    H143922   1.976   1.652  15.622  0.7609 -1.6017  0.2933
 7477TIP3    H243923   1.946   1.665  15.770 -1.0435 -0.9208 -0.1157
 7478TIP3   OH243924   5.188   3.839  14.910  0.9111  0.2531  0.1340
 7478TIP3    H143925   5.123   3.846  14.979  0.2999 -0.3920 -0.3734
 7478TIP3    H243926   5.214   3.747  14.910 -1.2280 -0.4266 -2.3985
 7479TIP3   OH243927   2.990   1.859  15.608  0.4472  0.2520  1.2077
 7479TIP3    H143928   3.063   1.913  15.639  1.8313 -0.6983 -0.2874
 7479TIP3    H243929   2.984   1.788  15.672  2.2017 -0.7891  0.2513
 7480TIP3   OH243930   2.865   4.096  14.250 -0.5972 -0.1218 -0.6396
 7480TIP3    H143931   2.873   4.138  14.336  0.4175  1.7953 -1.6322
 7480TIP3    H243932   2.948   4.051  14.237 -0.4594  0.2090 -0.9225
 7481TIP3   OH243933   1.685   3.217   0.667 -0.2800 -0.0795 -0.7959
 7481TIP3    H143934   1.659   3.298   0.624  0.7736  0.3909 -0.5885
 7481TIP3    H243935   1.769   3.194   0.626  0.1531 -0.2561  0.1545
 7482TIP3   OH243936   1.599   2.394   0.151 -0.2461  0.0033 -0.2427
 7482TIP3    H143937   1.675   2.362   0.103 -1.1272 -1.7394 -0.5067
 7482TIP3    H243938   1.600   2.489   0.137  1.0486 -0.1758 -1.4451
 7483TIP3   OH243939   0.561   2.154   0.671 -0.9059  0.6437  0.3204
 7483TIP3    H143940   0.598   2.086   0.615 -0.4784  1.2428 -0.1277
 7483TIP3    H243941   0.612   2.149   0.752 -1.1521  0.1498  0.4432
 7484TIP3   OH243942   6.421   4.313  15.646 -0.3047  0.2115 -0.7603
 7484TIP3    H143943   6.347   4.357  15.686 -0.0859  0.2076 -0.3512
 7484TIP3    H243944   6.480   4.384  15.621 -0.5942  0.2362 -1.3866
 7485TIP3   OH243945   0.672   1.777   1.252  0.1831  0.0861  0.3130
 7485TIP3    H143946   0.609   1.731   1.307  0.7439 -0.0078  0.8945
 7485TIP3    H243947   0.619   1.828   1.191 -0.4408 -1.6017 -0.5786
 7486TIP3   OH243948   2.913   1.134   0.769  0.4767  0.3920 -0.1246
 7486TIP3    H143949   2.935   1.099   0.683 -1.3698  0.6774 -0.7376
 7486TIP3    H243950   2.878   1.060   0.817  1.8836  0.1382  0.5500
 7487TIP3   OH243951   2.010   2.490  15.498  0.1787 -0.3844  0.0032
 7487TIP3    H143952   1.982   2.553  15.564 -2.1064 -1.2361 -0.0697
 7487TIP3    H243953   1.976   2.406  15.530  2.2284 -1.4141 -0.4416
 7488TIP3   OH243954   2.564   1.121   0.185 -0.2165  0.3814 -0.2508
 7488TIP3    H143955   2.543   1.045   0.238  1.7756  0.3796  0.5742
 7488TIP3    H243956   2.490   1.181   0.198 -0.1553  0.0287  1.8643
 7489TIP3   OH243957   2.553   1.510  15.097  0.7576  0.0639 -0.0829
 7489TIP3    H143958   2.574   1.589  15.046 -0.0590  0.7171  0.5857
 7489TIP3    H243959   2.612   1.515  15.172  1.5348 -0.5853 -0.6382
 7490TIP3   OH243960   2.982   2.070  15.857  0.3572  0.3686  0.2888
 7490TIP3    H143961   3.015   2.075  15.947 -0.3731  0.0556  0.5744
 7490TIP3    H243962   2.908   2.010  15.862 -0.9546  1.9266 -0.1360
 7491TIP3   OH243963   1.357   1.389  13.567 -0.1741 -1.0106 -0.5778
 7491TIP3    H143964   1.317   1.435  13.642 -0.3422 -1.1369 -0.5899
 7491TIP3    H243965   1.420   1.329  13.607 -0.1717 -0.9860 -0.5434
 7492TIP3   OH243966   3.633   3.458  15.491  0.0095 -0.2668  0.0936
 7492TIP3    H143967   3.581   3.378  15.490  0.0235 -0.2962 -2.5732
 7492TIP3    H243968   3.575   3.525  15.454  1.1905  0.1321 -1.0816
 7493TIP3   OH243969   2.747   1.377  13.456  0.3025  0.1209  0.2333
 7493TIP3    H143970   2.802   1.390  13.533 -0.4414  0.2361  0.7512
 7493TIP3    H243971   2.658   1.387  13.489 -0.0249 -0.0469 -0.6031
 7494TIP3   OH243972   0.566   3.323  13.854 -0.1047 -0.1291  0.2655
 7494TIP3    H143973   0.607   3.261  13.795  1.9157  0.4255  1.0317
 7494TIP3    H243974   0.511   3.270  13.911 -1.5285 -0.7324 -1.6461
 7495TIP3   OH243975   2.308   3.180  14.249  0.3617  0.0069  0.1101
 7495TIP3    H143976   2.380   3.158  14.189 -0.0474 -2.0627  0.3638
 7495TIP3    H243977   2.231   3.140  14.210 -0.8973  2.9747 -0.6443
 7496TIP3   OH243978   1.905   1.132  13.799 -0.0078 -0.4033  0.0656
 7496TIP3    H143979   1.942   1.073  13.733 -0.0109  1.0113 -1.2327
 7496TIP3    H243980   1.877   1.074  13.870 -0.0285 -1.9603 -1.1857
 7497TIP3   OH243981   6.290   1.819  13.885 -0.2754  0.1305  0.3320
 7497TIP3    H143982   6.221   1.759  13.858  2.9352 -2.6933 -1.9497
 7497TIP3    H243983   6.320   1.785  13.970 -0.7919  0.5895  0.7010
 7498TIP3   OH243984   7.333   2.899  13.917 -0.0109  0.3446  0.1286
 7498TIP3    H143985   7.259   2.938  13.870  0.3455  0.0297 -0.6947
 7498TIP3    H243986   7.404   2.961  13.906  0.8516 -0.9692 -2.0324
 7499TIP3   OH243987   1.008   4.389  14.610  0.0576 -0.1485  0.3111
 7499TIP3    H143988   1.092   4.370  14.653  0.5709 -0.6407 -0.8892
 7499TIP3    H243989   0.962   4.305  14.609 -0.4658  0.1294  1.0013
 7500TIP3   OH243990   0.724   4.721  15.523 -0.6636  0.5527 -0.0413
 7500TIP3    H143991   0.771   4.659  15.579 -1.2057 -1.7617 -2.0682
 7500TIP3    H243992   0.684   4.783  15.584  1.1430 -0.1882  1.9571
 7501TIP3   OH243993   3.747   3.913   0.307  0.0646 -1.1319  0.2498
 7501TIP3    H143994   3.738   3.925   0.213  0.9807 -0.7512  0.2094
 7501TIP3    H243995   3.831   3.953   0.329 -0.2201 -1.0698  1.2548
 7502TIP3   OH243996   0.585   2.517   2.130  0.2744 -0.0751  0.2050
 7502TIP3    H143997   0.595   2.608   2.102  1.9211  0.5618  2.7080
 7502TIP3    H243998   0.640   2.467   2.068  0.4430  0.7805 -0.3428
 7503TIP3   OH243999   6.697   1.474  13.949  0.2025  0.0872  0.1792
 7503TIP3    H144000   6.751   1.551  13.934 -1.9074  1.4460 -0.6297
 7503TIP3    H244001   6.658   1.454  13.864 -0.0334 -1.3027  0.5913
 7504TIP3   OH244002   0.971   4.899  15.773 -0.1821 -0.5369 -0.2146
 7504TIP3    H144003   0.986   4.934  15.861  1.4649  2.6651 -1.6868
 7504TIP3    H244004   1.030   4.824  15.767 -0.2901 -0.7579  1.4064
 7505TIP3   OH244005   0.157   2.384  14.719  0.1701 -0.7315  0.1304
 7505TIP3    H144006   0.070   2.401  14.755  0.7121  1.6308  0.3719
 7505TIP3    H244007   0.217   2.414  14.787  1.1937 -2.2611 -0.0781
 7506TIP3   OH244008   2.873   2.445  15.425  0.0844 -0.2049 -0.3593
 7506TIP3    H144009   2.870   2.483  15.513  0.3880 -0.4603 -0.2353
 7506TIP3    H244010   2.820   2.366  15.432  1.2037 -0.9435 -0.0447
 7507TIP3   OH244011   2.940   3.535  14.796 -0.1120 -0.2665 -0.1991
 7507TIP3    H144012   2.956   3.444  14.772 -0.6069 -0.2469 -0.6025
 7507TIP3    H244013   2.846   3.540  14.813 -0.0701  0.1407 -0.0742
 7508TIP3   OH244014   1.172   3.904  11.601  0.5958  0.2439 -0.3735
 7508TIP3    H144015   1.092   3.928  11.556  1.6268  0.7922 -1.9643
 7508TIP3    H244016   1.185   3.812  11.580 -0.2508 -0.1839  0.9055
 7509TIP3   OH244017   0.919   2.606  12.750 -0.3100  0.0867 -0.2234
 7509TIP3    H144018   0.867   2.633  12.826 -0.8567 -1.7070  0.0505
 7509TIP3    H244019   0.930   2.686  12.699 -0.9523  1.0616  1.1370
 7510TIP3   OH244020   5.875   0.493  15.720  0.0657 -0.3132 -0.1453
 7510TIP3    H144021   5.969   0.486  15.735 -0.1300 -1.0973  0.7479
 7510TIP3    H244022   5.836   0.494  15.808 -0.7742 -0.2218 -0.5057
 7511TIP3   OH244023   0.427   1.406  15.750  0.0431  0.1585  0.5983
 7511TIP3    H144024   0.488   1.480  15.746 -1.1747  1.1255 -0.3977
 7511TIP3    H244025   0.437   1.363  15.665  2.0888 -1.9450  1.8425
 7512TIP3   OH244026   4.797   6.676  15.848  0.3124 -0.1330  0.8499
 7512TIP3    H144027   4.812   6.767  15.874  0.7904 -0.1082  0.5040
 7512TIP3    H244028   4.854   6.664  15.772  0.4568 -0.7989  1.0603
 7513TIP3   OH244029   2.271   3.636  12.960 -0.4090  0.2976  0.0417
 7513TIP3    H144030   2.232   3.614  12.876 -0.2271 -0.2411  0.1001
 7513TIP3    H244031   2.264   3.732  12.965 -1.6991  0.2176  0.0390
 7514TIP3   OH244032   7.284   1.390  13.023 -0.5119  0.0277  0.3645
 7514TIP3    H144033   7.286   1.326  12.952 -0.3565 -0.2093  0.5845
 7514TIP3    H244034   7.314   1.471  12.982 -0.8042 -0.0121  0.0608
 7515TIP3   OH244035   1.859   3.359  13.919 -0.1589 -0.4098 -0.1831
 7515TIP3    H144036   1.867   3.359  14.015 -1.8652  0.0458 -0.0284
 7515TIP3    H244037   1.765   3.358  13.903  0.0783  1.1203 -1.8442
 7516TIP3   OH244038   2.846   2.699  14.828 -0.0669  0.1147 -0.0333
 7516TIP3    H144039   2.791   2.716  14.903 -0.2983 -2.2214  0.3789
 7516TIP3    H244040   2.789   2.711  14.752 -0.2709  0.8565  0.2392
 7517TIP3   OH244041   2.408   1.801   0.531 -0.2115 -0.5981 -0.5239
 7517TIP3    H144042   2.355   1.724   0.509  1.6257 -2.8913  2.5534
 7517TIP3    H244043   2.496   1.779   0.500  0.4448 -0.0107  0.8644
 7518TIP3   OH244044   6.823   1.009  14.551 -0.1218 -0.3862  0.0898
 7518TIP3    H144045   6.792   1.085  14.600 -0.2132  0.6492 -1.5095
 7518TIP3    H244046   6.746   0.979  14.502 -0.2426 -1.9011  1.1725
 7519TIP3   OH244047   6.943   2.068  10.363  0.7473 -0.1321 -0.6745
 7519TIP3    H144048   6.995   2.034  10.436  0.0620 -0.5812 -0.3899
 7519TIP3    H244049   6.996   2.139  10.328  2.0783 -1.3035 -1.1049
 7520TIP3   OH244050   0.426   4.220  14.440 -0.2447 -0.4849  0.2947
 7520TIP3    H144051   0.473   4.211  14.523 -0.2387 -0.6640  0.2707
 7520TIP3    H244052   0.488   4.191  14.374  0.8218  2.4504 -0.0716
 7521TIP3   OH244053   2.003   3.430  13.484 -0.1334  0.1952 -0.2646
 7521TIP3    H144054   1.983   3.341  13.458  1.4330 -0.0999 -0.5444
 7521TIP3    H244055   2.050   3.421  13.568 -0.3441  0.7729 -0.0827
 7522TIP3   OH244056   0.825   2.810  15.255 -0.2266  0.4481  0.3091
 7522TIP3    H144057   0.845   2.871  15.326 -1.8952 -1.0034  2.0590
 7522TIP3    H244058   0.731   2.817  15.242  0.1999  1.6574 -2.7219
 7523TIP3   OH244059   0.696   0.965   1.353 -0.2870  0.0970 -0.0999
 7523TIP3    H144060   0.685   0.905   1.427 -0.0592 -0.5719 -0.6090
 7523TIP3    H244061   0.648   0.923   1.281 -1.5559  1.3373 -0.0074
 7524TIP3   OH244062   2.367   3.410  14.412  0.2171  0.6556  0.3037
 7524TIP3    H144063   2.414   3.476  14.361  1.5128 -0.0244  0.5926
 7524TIP3    H244064   2.377   3.329  14.361 -0.0923  0.3698  0.6899
 7525TIP3   OH244065   0.923   6.486  13.037 -0.1080 -0.1658 -0.1076
 7525TIP3    H144066   0.842   6.537  13.038  1.3153  2.1923 -1.0905
 7525TIP3    H244067   0.922   6.438  13.119 -0.9996  2.2957  1.3918
 7526TIP3   OH244068   2.101   7.318  15.792 -0.2820 -0.1780  0.0125
 7526TIP3    H144069   2.120   7.227  15.811 -0.7981 -0.4899 -0.9357
 7526TIP3    H244070   2.181   7.365  15.817  0.9684 -1.2120 -1.9801
 7527TIP3   OH244071   3.438   4.068  14.940 -0.7892 -0.4313 -0.5126
 7527TIP3    H144072   3.411   4.158  14.922 -0.5608  0.1034  1.7627
 7527TIP3    H244073   3.514   4.054  14.882 -0.7243  0.8819 -0.7461
 7528TIP3   OH244074   4.195   3.423  11.671  0.2423 -0.0055 -0.3702
 7528TIP3    H144075   4.244   3.478  11.610  0.2530  0.2898 -0.0989
 7528TIP3    H244076   4.224   3.334  11.651  0.9410  0.1706 -0.1717
 7529TIP3   OH244077   2.946   3.015  15.095 -0.2825 -0.3996 -0.1783
 7529TIP3    H144078   3.032   2.973  15.096  0.7297  1.5379 -2.2240
 7529TIP3    H244079   2.947   3.074  15.170  0.5282  0.2975 -0.7377
 7530TIP3   OH244080   2.726   2.795  15.919  0.1623  0.0189  0.1752
 7530TIP3    H144081   2.657   2.729  15.930 -0.7075  0.4964 -2.2468
 7530TIP3    H244082   2.683   2.878  15.938  0.2485  0.2535 -0.6535
 7531TIP3   OH244083   2.818   4.658  15.732  0.6156 -0.0127 -0.7164
 7531TIP3    H144084   2.846   4.745  15.761  0.2702  0.4119 -1.6439
 7531TIP3    H244085   2.769   4.622  15.806  1.7737  0.0987  0.1231
 7532TIP3   OH244086   1.543   3.865  12.943 -0.2534  0.0435  0.0769
 7532TIP3    H144087   1.491   3.915  13.006  0.5639 -0.6009  1.2782
 7532TIP3    H244088   1.616   3.923  12.921  0.5043 -0.4683  1.2023
 7533TIP3   OH244089   7.089   2.400  12.586 -0.1523 -0.1333 -0.6115
 7533TIP3    H144090   6.996   2.398  12.608 -0.2111  0.6140 -0.7842
 7533TIP3    H244091   7.099   2.333  12.518  0.0928 -2.7222  1.8671
 7534TIP3   OH244092   3.965   1.748  14.586 -0.4165  0.2990  0.1804
 7534TIP3    H144093   3.946   1.794  14.504  0.4822  0.1422 -0.1135
 7534TIP3    H244094   3.916   1.797  14.653  0.1592  1.3956 -0.2031
 7535TIP3   OH244095   3.983   3.590  15.627  0.2176  0.2949  0.4548
 7535TIP3    H144096   3.897   3.613  15.664  0.6943  1.2180  1.0194
 7535TIP3    H244097   3.997   3.656  15.559  1.2484  1.2302  1.5472
 7536TIP3   OH244098   2.681   1.758  14.352 -1.1254  0.0703  0.6324
 7536TIP3    H144099   2.651   1.673  14.318 -0.3480 -0.0137  0.1675
 7536TIP3    H244100   2.687   1.744  14.447 -0.3629 -0.5957  0.4911
 7537TIP3   OH244101   3.611   2.729   0.290 -0.2748 -0.3176  0.0528
 7537TIP3    H144102   3.559   2.717   0.370  0.7022  1.5261  0.9859
 7537TIP3    H244103   3.547   2.723   0.219 -1.6372  0.9358  1.1351
 7538TIP3   OH244104   5.732   3.918  13.987 -0.7477 -0.5831 -0.1110
 7538TIP3    H144105   5.818   3.961  13.981 -0.7565 -0.4755  0.5205
 7538TIP3    H244106   5.669   3.990  13.976 -0.7584 -0.6673 -0.6104
 7539TIP3   OH244107   3.020   2.452  13.636 -0.1202  0.3174 -0.3202
 7539TIP3    H144108   3.028   2.539  13.599  1.6057  0.8047  1.1237
 7539TIP3    H244109   3.098   2.441  13.690 -1.0199 -1.5579  0.6783
 7540TIP3   OH244110   1.800   3.966  15.915 -0.4924  0.5145 -0.6345
 7540TIP3    H144111   1.815   4.058  15.937  0.4818  0.4273 -0.9251
 7540TIP3    H244112   1.888   3.929  15.907 -0.8827 -0.3607 -0.8528
 7541TIP3   OH244113   0.973   2.138  14.410 -0.0654 -0.2453  0.1343
 7541TIP3    H144114   0.961   2.219  14.360  0.4458 -0.9278 -1.1049
 7541TIP3    H244115   0.935   2.070  14.355  3.1797 -1.4544 -0.7335
 7542TIP3   OH244116   1.436   3.276  15.465  0.6165  0.4847  0.2702
 7542TIP3    H144117   1.403   3.210  15.405 -0.7645  1.0105  0.4252
 7542TIP3    H244118   1.418   3.360  15.422  0.3452  0.8349  1.0374
 7543TIP3   OH244119   5.712   2.791  14.763 -0.4179  0.0796  0.1308
 7543TIP3    H144120   5.703   2.758  14.852 -1.2428  0.9627  0.3817
 7543TIP3    H244121   5.626   2.776  14.723 -0.6904  1.5543  0.1361
 7544TIP3   OH244122   0.859   0.649   0.145 -0.4231 -0.7813  0.1844
 7544TIP3    H144123   0.815   0.570   0.178  1.5935 -0.6591  3.3607
 7544TIP3    H244124   0.820   0.720   0.195 -0.6399 -0.0043 -1.0813
 7545TIP3   OH244125   3.568   4.700  13.940 -0.3030  0.7272  0.7419
 7545TIP3    H144126   3.662   4.700  13.953 -0.3163  0.2480  0.8288
 7545TIP3    H244127   3.549   4.785  13.899  0.3872  0.0955 -0.9111
 7546TIP3   OH244128   0.120   4.231  12.470 -0.6734  0.3625  0.0727
 7546TIP3    H144129   0.162   4.201  12.389 -0.6441  0.9063 -0.1215
 7546TIP3    H244130   0.171   4.308  12.495 -1.0999  0.5898  0.2400
 7547TIP3   OH244131   4.484   2.823  13.437 -0.4607  1.1229 -0.5649
 7547TIP3    H144132   4.397   2.864  13.432  0.5670  3.6633  1.1091
 7547TIP3    H244133   4.545   2.897  13.442  1.5794 -0.6065  1.6379
 7548TIP3   OH244134   3.360   2.024  14.429  0.4245 -0.0590  0.2602
 7548TIP3    H144135   3.351   2.111  14.389  0.3565 -0.0083  0.3857
 7548TIP3    H244136   3.379   2.042  14.521 -0.8624 -0.1836  0.5580
 7549TIP3   OH244137   3.125   4.797  15.501  0.0447 -0.2061  0.9897
 7549TIP3    H144138   3.091   4.709  15.516 -0.4364 -0.1285  0.3585
 7549TIP3    H244139   3.213   4.795  15.540  0.7248 -1.5059 -0.5202
 7550TIP3   OH244140   3.226   4.440  11.477  0.0982  0.5035 -0.1253
 7550TIP3    H144141   3.211   4.362  11.423  2.6419 -1.1228  1.3824
 7550TIP3    H244142   3.257   4.405  11.560 -0.0117  3.1089  1.0476
 7551TIP3   OH244143   2.564   4.815  14.412  0.3687  0.0547  0.0938
 7551TIP3    H144144   2.474   4.843  14.394 -0.2263 -1.7064  0.2852
 7551TIP3    H244145   2.590   4.868  14.487 -0.5202  0.5222  0.0908
 7552TIP3   OH244146   2.586   3.140  12.864  0.5337 -0.0327  0.6325
 7552TIP3    H144147   2.576   3.227  12.903 -1.4607 -0.8035  1.9455
 7552TIP3    H244148   2.660   3.148  12.804 -0.5074  2.9581 -0.3350
 7553TIP3   OH244149   1.674   1.959   0.707 -0.4305 -0.0949 -0.2586
 7553TIP3    H144150   1.657   1.930   0.797 -1.1233 -1.8132 -0.9291
 7553TIP3    H244151   1.602   1.923   0.656 -0.7556  1.9810 -1.3162
 7554TIP3   OH244152   2.253   3.283  13.002  0.4632 -0.0819  0.4374
 7554TIP3    H144153   2.200   3.333  13.064 -0.1171 -1.6322  1.2451
 7554TIP3    H244154   2.245   3.192  13.032 -0.3705 -0.9723 -2.3060
 7555TIP3   OH244155   5.079   4.282  15.055 -0.1962  0.4759  0.4578
 7555TIP3    H144156   4.999   4.333  15.044 -1.1531 -1.0127  0.3350
 7555TIP3    H244157   5.119   4.278  14.968  0.3993  1.8237  0.6591
 7556TIP3   OH244158   3.088   3.865  13.661  0.2996 -0.4305  0.0886
 7556TIP3    H144159   3.113   3.779  13.697  0.8249 -0.8845 -1.3175
 7556TIP3    H244160   3.128   3.928  13.721  2.3238 -1.1670 -0.4166
 7557TIP3   OH244161   2.908   1.018  13.880  0.4283 -0.6857 -0.1978
 7557TIP3    H144162   2.934   1.034  13.971  1.4863  0.3004 -0.6665
 7557TIP3    H244163   2.914   0.923  13.870 -3.2796 -1.2236  1.8131
 7558TIP3   OH244164   1.819   3.136  15.001 -0.5911 -0.0898  0.0559
 7558TIP3    H144165   1.768   3.211  15.032  1.5361  0.2848  2.7702
 7558TIP3    H244166   1.814   3.072  15.072  1.0082 -0.8998 -0.5325
 7559TIP3   OH244167   4.565   5.652  12.813  0.3103  0.1231  0.0708
 7559TIP3    H144168   4.490   5.633  12.757  0.2949 -0.8296  0.3876
 7559TIP3    H244169   4.529   5.706  12.883 -0.1309 -0.4574  0.3069
 7560TIP3   OH244170   2.325   3.941  12.552 -0.1031 -0.2085 -0.0478
 7560TIP3    H144171   2.366   3.949  12.466  0.0235  0.3843  0.0646
 7560TIP3    H244172   2.398   3.936  12.614 -0.1811  1.1967  0.1826
 7561TIP3   OH244173   3.167   0.935   1.025  1.6450  0.2561  0.0906
 7561TIP3    H144174   3.181   0.853   1.072  0.7835  0.6444  1.0488
 7561TIP3    H244175   3.210   0.922   0.941  1.0486 -1.3883  0.0160
 7562TIP3   OH244176   1.585   5.130  13.923 -0.9604  0.3473  0.3517
 7562TIP3    H144177   1.622   5.180  13.996 -3.3409 -0.4258  2.1611
 7562TIP3    H244178   1.616   5.175  13.844  1.1827  1.5523  1.8439
 7563TIP3   OH244179   1.379   3.291  13.288 -0.4360  0.4254 -0.0051
 7563TIP3    H144180   1.449   3.333  13.237  0.5880  0.4150  1.3760
 7563TIP3    H244181   1.301   3.303  13.234  0.6347  0.3485 -1.6246
 7564TIP3   OH244182   2.186   2.215  15.778 -0.1192 -0.3058 -0.4203
 7564TIP3    H144183   2.207   2.189  15.688 -0.7249 -0.9343 -0.3834
 7564TIP3    H244184   2.261   2.188  15.829 -0.9312 -2.4233 -0.3064
 7565TIP3   OH244185   1.553   4.256   0.463 -0.2405 -0.0827  0.4984
 7565TIP3    H144186   1.596   4.342   0.459  1.2923 -0.8224  0.6137
 7565TIP3    H244187   1.556   4.223   0.374  0.4424 -0.6221  0.7199
 7566TIP3   OH244188   1.367   0.695   0.587  0.0572 -0.4661 -0.5278
 7566TIP3    H144189   1.276   0.668   0.583 -0.7376  2.2219 -1.8618
 7566TIP3    H244190   1.400   0.682   0.498  0.7747 -0.7445 -0.2266
 7567TIP3   OH244191   5.584   2.621  15.301 -0.7190  0.2478 -0.5385
 7567TIP3    H144192   5.559   2.694  15.244  1.4033 -0.1522 -2.0631
 7567TIP3    H244193   5.505   2.569  15.310 -1.1791  0.4697 -2.9554
 7568TIP3   OH244194   3.049   1.392   0.803  0.1831 -0.0314  0.8496
 7568TIP3    H144195   3.016   1.303   0.798 -1.1002  0.5168 -1.1694
 7568TIP3    H244196   3.112   1.400   0.731 -1.1482  1.2198 -0.2205
 7569TIP3   OH244197   4.141   3.776  11.977  0.0319 -0.4667 -0.2749
 7569TIP3    H144198   4.134   3.754  12.070 -0.3833 -0.3897 -0.2895
 7569TIP3    H244199   4.234   3.762  11.956  0.1901 -0.1889  0.2266
 7570TIP3   OH244200   2.948   3.962   0.690  0.0831 -0.0284 -0.4982
 7570TIP3    H144201   2.909   3.893   0.637  1.6177 -1.2891  0.0118
 7570TIP3    H244202   3.000   3.917   0.756 -0.5914  1.5600  1.1769
 7571TIP3   OH244203   3.844   2.897  13.316 -0.2548 -0.1213 -0.2821
 7571TIP3    H144204   3.752   2.876  13.303 -0.1382 -0.3420 -0.7592
 7571TIP3    H244205   3.866   2.854  13.399 -0.7896  0.6173  0.2450
 7572TIP3   OH244206   3.132   1.891  11.541  0.3722  0.2899  0.0368
 7572TIP3    H144207   3.045   1.864  11.512  0.3708  1.2976 -0.9420
 7572TIP3    H244208   3.162   1.820  11.598 -1.0807 -0.0740  0.3725
 7573TIP3   OH244209   3.552   3.514  13.595  0.0780  0.5490 -0.5415
 7573TIP3    H144210   3.567   3.550  13.508 -0.1176  0.9424 -0.4117
 7573TIP3    H244211   3.522   3.588  13.648  0.5049  0.3849 -0.0553
 7574TIP3   OH244212   3.478   2.750   0.938 -0.4475  0.3818 -0.0150
 7574TIP3    H144213   3.401   2.728   0.886 -0.6653  0.3494  0.3152
 7574TIP3    H244214   3.452   2.728   1.028  0.6168 -1.4156 -0.1309
 7575TIP3   OH244215   2.056   5.027  13.659 -0.1972  0.3053  0.4729
 7575TIP3    H144216   2.111   4.993  13.588 -2.0371 -1.2109 -0.2518
 7575TIP3    H244217   2.011   4.950  13.693 -2.0762  1.5612  0.8868
 7576TIP3   OH244218   4.583   4.900  14.031 -0.2959  0.1921  0.2770
 7576TIP3    H144219   4.517   4.952  13.984 -1.7169 -1.1239  0.7640
 7576TIP3    H244220   4.576   4.930  14.121 -0.9030 -0.6183  0.5019
 7577TIP3   OH244221   2.100   4.273  15.308 -0.2160 -0.5130  0.3135
 7577TIP3    H144222   2.174   4.330  15.329 -0.6007 -0.0458  0.4070
 7577TIP3    H244223   2.097   4.272  15.212  0.6568 -1.5058  0.2832
 7578TIP3   OH244224   1.628   3.049  12.479  0.4838 -0.4598  0.4819
 7578TIP3    H144225   1.672   2.970  12.448  2.3190  0.8386 -0.3737
 7578TIP3    H244226   1.700   3.110  12.495 -1.0038  1.6326 -0.6160
 7579TIP3   OH244227   0.938   0.709  12.908  0.4894 -0.3580 -0.0424
 7579TIP3    H144228   0.858   0.709  12.960  1.7464 -2.2121  1.9326
 7579TIP3    H244229   0.917   0.766  12.834 -2.4713 -0.3777  0.6945
 7580TIP3   OH244230   2.943   5.678  11.524  0.3314 -0.0618 -0.3838
 7580TIP3    H144231   2.856   5.648  11.498  1.2702 -3.9182  0.6182
 7580TIP3    H244232   2.958   5.756  11.470 -3.4863  0.4038 -0.9480
 7581TIP3   OH244233   2.172   4.112  14.893 -0.0140 -0.4057 -0.2134
 7581TIP3    H144234   2.219   4.031  14.918 -0.7053 -0.8873 -0.4662
 7581TIP3    H244235   2.081   4.084  14.884 -0.2789  0.4457 -0.1497
 7582TIP3   OH244236   5.433   2.542  14.110  0.5154  0.8862  0.0897
 7582TIP3    H144237   5.505   2.576  14.164  1.3814 -0.2601 -0.3113
 7582TIP3    H244238   5.422   2.451  14.139  0.0487  0.6875 -0.6981
 7583TIP3   OH244239   7.130   1.999  13.504 -0.0036 -0.4263  0.3853
 7583TIP3    H144240   7.075   2.076  13.520 -1.1242 -1.1657  0.1678
 7583TIP3    H244241   7.165   1.976  13.590  0.2745  0.2729  0.4625
 7584TIP3   OH244242   2.400   2.764  14.317  0.1690 -0.0593 -0.0744
 7584TIP3    H144243   2.362   2.723  14.239 -1.0166  0.2667  0.3150
 7584TIP3    H244244   2.339   2.743  14.387  0.3657  1.0344  0.4328
 7585TIP3   OH244245   4.146   3.589  14.681  0.2521  0.4249  0.4065
 7585TIP3    H144246   4.198   3.663  14.649 -1.0341 -0.0577 -2.9461
 7585TIP3    H244247   4.169   3.517  14.622 -2.0596 -0.5527  0.6783
 7586TIP3   OH244248   4.226   0.367   0.071 -0.5626 -0.0498 -0.1004
 7586TIP3    H144249   4.215   0.407  -0.015 -1.7561  0.8884  0.4614
 7586TIP3    H244250   4.146   0.315   0.083 -1.6552  1.9308  1.5181
 7587TIP3   OH244251   3.360   2.059  14.686 -0.3717 -0.0978  0.1948
 7587TIP3    H144252   3.378   1.981  14.738 -1.5783 -0.2655  0.3870
 7587TIP3    H244253   3.296   2.108  14.737 -0.5720  0.3941 -0.5161
 7588TIP3   OH244254   1.886   1.726  14.973  0.1524 -0.1887  0.0626
 7588TIP3    H144255   1.921   1.674  15.046 -1.4681 -2.7070 -0.8686
 7588TIP3    H244256   1.793   1.733  14.991  0.1598  1.4453 -0.4531
 7589TIP3   OH244257   0.380   0.244   0.781  0.9483 -0.0409  0.0744
 7589TIP3    H144258   0.311   0.301   0.746 -0.6475 -2.1158 -0.2777
 7589TIP3    H244259   0.367   0.247   0.876 -0.7384 -1.7134 -0.0703
 7590TIP3   OH244260   0.234   1.464   0.247  0.1620 -0.1619 -0.3533
 7590TIP3    H144261   0.176   1.403   0.201  0.9516  0.0089 -1.5894
 7590TIP3    H244262   0.275   1.515   0.178  0.2239  1.1390  0.6256
 7591TIP3   OH244263   3.504   3.736  13.793  0.7872  0.3319  0.1333
 7591TIP3    H144264   3.463   3.779  13.718 -0.4162 -1.1384 -0.0833
 7591TIP3    H244265   3.462   3.775  13.869  0.0548 -0.0967 -0.0477
 7592TIP3   OH244266   0.817   3.226  15.602 -0.6048 -0.6157 -0.0816
 7592TIP3    H144267   0.752   3.254  15.668 -0.1640 -1.9292  0.9369
 7592TIP3    H244268   0.797   3.279  15.525  0.5470  2.8917  1.9311
 7593TIP3   OH244269   5.087   4.008  13.810  0.4989 -0.3981 -0.3860
 7593TIP3    H144270   5.017   4.052  13.858 -0.1479 -1.6700 -0.1263
 7593TIP3    H244271   5.069   3.915  13.823  2.3651 -0.7381 -0.1487
 7594TIP3   OH244272   2.273   1.359   0.569  0.0317 -0.0735  0.1843
 7594TIP3    H144273   2.206   1.312   0.619 -0.3192  1.9247  1.6610
 7594TIP3    H244274   2.341   1.380   0.634  0.0969  1.5923 -0.3900
 7595TIP3   OH244275   3.380   3.848  13.586  0.7528 -0.1774  0.0941
 7595TIP3    H144276   3.285   3.866  13.586  0.8657  0.4614 -1.3579
 7595TIP3    H244277   3.396   3.800  13.505  2.1275  2.3032 -1.1564
 7596TIP3   OH244278   1.220   2.653  12.878 -0.6866 -0.2191 -0.3156
 7596TIP3    H144279   1.180   2.583  12.826 -1.1199  0.4273 -0.8749
 7596TIP3    H244280   1.263   2.608  12.950 -1.3147 -1.0323 -0.4371
 7597TIP3   OH244281   3.325   3.088  15.436 -0.0412 -0.2913  0.2786
 7597TIP3    H144282   3.351   3.049  15.519 -1.0561 -0.1711  0.6520
 7597TIP3    H244283   3.231   3.101  15.443 -0.0195  0.4196 -0.6020
 7598TIP3   OH244284   3.189   4.471  13.041  0.8717  0.1381  0.4506
 7598TIP3    H144285   3.281   4.445  13.049  0.7951 -2.1088 -4.1426
 7598TIP3    H244286   3.140   4.390  13.053 -0.2288  0.5402 -1.2026
 7599TIP3   OH244287   1.753   4.495   1.055  0.0360  0.1311 -0.7167
 7599TIP3    H144288   1.823   4.449   1.102  1.1595  0.9644 -1.5299
 7599TIP3    H244289   1.674   4.473   1.103  0.8271 -0.9926  0.1204
 7600TIP3   OH244290   1.055   1.433  15.606  0.1012 -0.5035  0.3188
 7600TIP3    H144291   1.096   1.368  15.549 -0.6809 -1.0922  0.4262
 7600TIP3    H244292   1.111   1.437  15.683  0.1405 -1.0705  0.3215
 7601TIP3   OH244293   2.097   1.204  14.824  0.5111  0.1909  0.1200
 7601TIP3    H144294   2.106   1.119  14.781  1.3781  0.0842  0.5043
 7601TIP3    H244295   2.168   1.206  14.888  1.0363  1.5604 -0.4793
 7602TIP3   OH244296   2.560   1.680   0.749  0.0901  0.1323 -0.4932
 7602TIP3    H144297   2.617   1.728   0.809 -1.4246 -0.0068  1.1057
 7602TIP3    H244298   2.488   1.742   0.730 -0.1634 -0.3278 -1.0402
 7603TIP3   OH244299   0.631   2.394  12.169  0.5603  0.4571  0.8303
 7603TIP3    H144300   0.595   2.359  12.088 -1.0615  2.9320  0.4663
 7603TIP3    H244301   0.636   2.318  12.227 -2.1845 -0.5669 -0.1918
 7604TIP3   OH244302   5.048   0.913  15.994  0.5878 -0.3777  0.0179
 7604TIP3    H144303   5.047   0.861  16.074  1.9047 -1.0230 -0.3717
 7604TIP3    H244304   5.013   0.998  16.021 -0.0968 -0.9590  1.0053
 7605TIP3   OH244305   1.873   2.908  15.780 -0.2943  0.2875  0.1362
 7605TIP3    H144306   1.837   2.970  15.844  0.3135  1.2376 -0.4225
 7605TIP3    H244307   1.956   2.947  15.754  0.4056 -1.1103  0.2643
 7606TIP3   OH244308   2.671   5.125  12.939  0.4779  0.7210  0.3077
 7606TIP3    H144309   2.631   5.113  12.853 -0.9522  1.7378  0.8163
 7606TIP3    H244310   2.716   5.042  12.956 -0.6963 -0.1327 -0.6694
 7607TIP3   OH244311   1.613   1.756  15.033  0.6069 -0.0752 -0.3664
 7607TIP3    H144312   1.538   1.706  15.064  0.1431  0.2609 -0.9245
 7607TIP3    H244313   1.596   1.846  15.063  0.6255  0.0647 -0.7701
 7608TIP3   OH244314   1.609   1.131   0.524  0.1491 -0.4035 -0.1314
 7608TIP3    H144315   1.700   1.159   0.514  0.4923 -1.5791 -0.4037
 7608TIP3    H244316   1.598   1.062   0.459 -0.5410 -1.2012  0.8143
 7609TIP3   OH244317   2.975   3.082  13.337  0.0831 -0.5703 -0.4783
 7609TIP3    H144318   3.004   3.172  13.323 -0.6672 -0.5042 -1.6493
 7609TIP3    H244319   2.907   3.068  13.271  1.2537 -2.5116 -1.2891
 7610TIP3   OH244320   3.141   4.014  13.904 -0.5044  0.4728 -0.0176
 7610TIP3    H144321   3.131   4.014  13.999 -1.4368 -0.1089 -0.1051
 7610TIP3    H244322   3.149   4.106  13.880  3.8222  0.4948  1.0100
 7611TIP3   OH244323   2.602   2.102  11.183  0.2710  0.0479  0.2855
 7611TIP3    H144324   2.518   2.056  11.188 -0.0736  0.6820  0.3837
 7611TIP3    H244325   2.667   2.036  11.209 -0.1031 -0.6913 -0.5918
 7612TIP3   OH244326   1.380   3.147  14.282 -0.3440  0.2105 -0.0274
 7612TIP3    H144327   1.360   3.056  14.259  0.3416 -0.2577  1.1866
 7612TIP3    H244328   1.315   3.198  14.233 -2.5168 -1.0906  1.4005
 7613TIP3   OH244329   3.859   1.743  13.640 -0.5969  0.2726 -0.3876
 7613TIP3    H144330   3.865   1.685  13.716 -1.9630  0.6463  0.0162
 7613TIP3    H244331   3.785   1.710  13.590 -1.1269  1.4168 -0.3670
 7614TIP3   OH244332   0.873   4.586  12.827  0.6348  0.2256 -0.8350
 7614TIP3    H144333   0.817   4.509  12.832  0.7061  0.2930  1.9670
 7614TIP3    H244334   0.813   4.659  12.815  0.2394  0.0893  0.2062
 7615TIP3   OH244335   1.689   3.571  15.240  0.5972  0.0295  0.0640
 7615TIP3    H144336   1.638   3.568  15.320  0.5967 -1.2945  0.0218
 7615TIP3    H244337   1.768   3.520  15.259  1.1431  0.6874 -0.3961
 7616TIP3   OH244338   2.099   3.042  15.611 -0.1357 -0.4336  0.0123
 7616TIP3    H144339   2.145   2.962  15.587  0.1726 -0.2920  0.1294
 7616TIP3    H244340   2.162   3.091  15.664 -0.3341 -0.1277 -0.0354
 7617TIP3   OH244341   2.664   2.101  15.981 -0.4631 -0.2847 -0.7807
 7617TIP3    H144342   2.605   2.176  15.973 -0.8756 -0.3165  1.6041
 7617TIP3    H244343   2.698   2.087  15.892 -1.6965  1.6392 -1.5769
 7618TIP3   OH244344   3.584   4.636  15.408 -0.1812 -0.0728  0.8251
 7618TIP3    H144345   3.545   4.659  15.492 -1.3317  2.4769 -0.3315
 7618TIP3    H244346   3.511   4.600  15.358 -0.6525  2.6447 -0.5800
 7619TIP3   OH244347   4.116   3.427  14.900 -0.2381 -0.5994 -0.1957
 7619TIP3    H144348   4.199   3.419  14.947 -0.4914 -1.6446  0.0865
 7619TIP3    H244349   4.141   3.449  14.810  0.4106 -2.3080 -0.4477
 7620TIP3   OH244350   5.106   6.034  13.363  0.3862 -0.1487 -0.3385
 7620TIP3    H144351   5.105   5.999  13.452  2.3722  1.5419  0.3865
 7620TIP3    H244352   5.189   6.003  13.325  0.0590  0.0373 -1.2232
 7621TIP3   OH244353   3.327   6.474  14.881  0.0881  0.0253 -0.2164
 7621TIP3    H144354   3.256   6.465  14.944  0.7911  0.0857  0.5920
 7621TIP3    H244355   3.337   6.569  14.869  0.2229  0.0263 -0.1045
 7622TIP3   OH244356   6.391   3.847  15.265 -0.1287 -1.0936  0.3241
 7622TIP3    H144357   6.415   3.766  15.221  1.4326 -0.2714 -0.3689
 7622TIP3    H244358   6.379   3.911  15.195 -4.0935 -1.3405  0.6348
 7623TIP3   OH244359   4.338   4.232  14.071  0.5512 -0.1985 -0.4419
 7623TIP3    H144360   4.321   4.326  14.066  0.2144 -0.2886 -1.1879
 7623TIP3    H244361   4.251   4.192  14.076  0.6537 -0.5069 -1.0070
 7624TIP3   OH244362   2.815   3.964  12.614 -0.1566  0.1199 -0.0226
 7624TIP3    H144363   2.842   3.876  12.638 -2.3761 -0.7434 -0.6001
 7624TIP3    H244364   2.815   3.963  12.518 -0.9111  0.5200 -0.0262
 7625TIP3   OH244365   2.161   2.707  14.505 -0.3223 -0.0157  0.3720
 7625TIP3    H144366   2.068   2.683  14.507 -0.0036 -1.2223  2.9303
 7625TIP3    H244367   2.171   2.768  14.579  0.7045  1.0507 -0.6123
 7626TIP3   OH244368   1.099   3.844  13.433 -0.0662 -0.0241 -0.2977
 7626TIP3    H144369   1.146   3.859  13.351 -0.4941 -0.0773 -0.5512
 7626TIP3    H244370   1.162   3.798  13.489  0.1500 -0.1722 -0.6669
 7627TIP3   OH244371   3.297   5.534  13.598  0.5756 -0.0226 -0.5908
 7627TIP3    H144372   3.356   5.588  13.651 -0.6327  0.2723  0.4733
 7627TIP3    H244373   3.269   5.592  13.527  0.0145  0.4724  0.0238
 7628TIP3   OH244374   3.556   4.615  15.701  0.1066 -0.0695  0.1232
 7628TIP3    H144375   3.625   4.630  15.765 -0.4324 -0.2025  0.7409
 7628TIP3    H244376   3.528   4.524  15.716  1.3367 -0.7622 -1.6317
 7629TIP3   OH244377   4.689   5.130  12.828  0.0742  0.2492 -0.1034
 7629TIP3    H144378   4.773   5.084  12.828 -0.4755 -0.7833  2.0628
 7629TIP3    H244379   4.630   5.073  12.779  0.0552 -0.0859  0.3161
 7630TIP3   OH244380   2.445   4.729  15.734 -0.0066  0.4429 -0.2631
 7630TIP3    H144381   2.517   4.792  15.728 -1.4582  2.1037 -0.7745
 7630TIP3    H244382   2.402   4.750  15.817  0.6766 -1.2200  0.5465
 7631TIP3   OH244383   4.034   3.720  12.791  0.3489 -0.3425 -0.0057
 7631TIP3    H144384   3.967   3.788  12.799 -0.1595 -0.7402 -0.8066
 7631TIP3    H244385   4.092   3.752  12.722 -0.7782 -1.4285 -1.5018
 7632TIP3   OH244386   1.783   2.743  14.471 -0.5269 -0.0494 -0.1413
 7632TIP3    H144387   1.821   2.800  14.538 -0.8860  1.6316 -1.3366
 7632TIP3    H244388   1.715   2.694  14.518 -1.1850  1.5434  0.5974
 7633TIP3   OH244389   4.347   1.760  14.627 -0.2035  0.0566 -0.9737
 7633TIP3    H144390   4.284   1.696  14.659 -0.0388  0.5099  0.2872
 7633TIP3    H244391   4.418   1.707  14.590 -0.7041 -0.4695 -1.1874
 7634TIP3   OH244392   2.193   2.771   0.098  0.0702  0.5766  0.4310
 7634TIP3    H144393   2.196   2.726   0.014  0.9496 -1.0440  1.2782
 7634TIP3    H244394   2.271   2.739   0.144 -0.8725  0.7262  2.1864
 7635TIP3   OH244395   3.556   3.607  12.715  0.2057 -0.2805 -0.7280
 7635TIP3    H144396   3.504   3.527  12.711 -0.8411  0.3914 -0.6510
 7635TIP3    H244397   3.563   3.626  12.809 -2.4764  1.5959 -0.8616
 7636TIP3   OH244398   2.533   3.836  13.166  0.0269  0.6004 -0.6501
 7636TIP3    H144399   2.600   3.808  13.104  0.5027  1.1513 -0.3825
 7636TIP3    H244400   2.576   3.833  13.251 -0.0347  1.7678 -0.5741
 7637TIP3   OH244401   3.853   3.868  13.839 -0.3057  0.1954 -0.5038
 7637TIP3    H144402   3.792   3.886  13.911 -1.4306  0.4629 -1.4981
 7637TIP3    H244403   3.821   3.922  13.767  1.6608  1.0318 -0.7785
 7638TIP3   OH244404   5.176   4.696  15.669  0.3740 -0.1327  0.0695
 7638TIP3    H144405   5.162   4.765  15.734 -0.5063 -0.6216  0.4000
 7638TIP3    H244406   5.088   4.675  15.637  0.5904 -1.4456  0.3303
 7639TIP3   OH244407   4.749   1.526  15.206 -0.2689 -0.8388 -0.4624
 7639TIP3    H144408   4.754   1.621  15.211 -0.0374 -0.8008 -1.4081
 7639TIP3    H244409   4.784   1.496  15.290 -3.9237 -0.0010  1.4596
 7640TIP3   OH244410   2.369   4.107  11.750 -0.0683  0.5366 -0.0189
 7640TIP3    H144411   2.358   4.123  11.844  1.5285  0.1761  0.2345
 7640TIP3    H244412   2.280   4.086  11.719 -0.4079 -0.5112  1.6287
 7641TIP3   OH244413   2.477   4.708  13.159 -0.1379 -0.0953 -0.6088
 7641TIP3    H144414   2.469   4.673  13.248  0.1794  1.6868  0.1563
 7641TIP3    H244415   2.564   4.749  13.158 -1.4191  2.7472 -0.6563
 7642TIP3   OH244416   3.365   3.170  14.789  0.4253  1.1971  0.7264
 7642TIP3    H144417   3.456   3.153  14.766 -0.0688  0.6767 -0.8830
 7642TIP3    H244418   3.353   3.263  14.772 -0.4808  0.4433 -3.1869
 7643TIP3   OH244419   5.061   1.148  15.671  0.0945  0.4731 -0.6179
 7643TIP3    H144420   5.105   1.074  15.629  0.3605  0.0928  0.3356
 7643TIP3    H244421   5.132   1.203  15.703 -0.0523  2.2136 -3.1267
 7644TIP3   OH244422   1.222   2.889  14.176 -0.2989 -0.0556  0.2651
 7644TIP3    H144423   1.293   2.872  14.113  1.3268  2.3279  1.3778
 7644TIP3    H244424   1.234   2.822  14.243  0.7272  0.1304  0.2788
 7645TIP3   OH244425   2.852   1.881  11.409 -0.4320 -0.6672 -0.0704
 7645TIP3    H144426   2.765   1.919  11.397  0.3141  0.7818 -1.0750
 7645TIP3    H244427   2.896   1.894  11.324  0.0234 -3.3580 -0.2961
 7646TIP3   OH244428   2.889   2.642  14.268 -0.2691 -0.1203 -0.0026
 7646TIP3    H144429   2.832   2.570  14.294 -1.3698  0.6738 -0.1523
 7646TIP3    H244430   2.924   2.676  14.350 -1.0726  0.2379  0.1947
 7647TIP3   OH244431   2.298   3.975  12.920  0.9045 -0.1545  0.2427
 7647TIP3    H144432   2.322   4.023  13.000  0.5552  0.1860  0.1459
 7647TIP3    H244433   2.380   3.935  12.890  0.7975 -1.3495  1.4819
 7648TIP3   OH244434   1.971   2.717  14.960  0.2271  0.1406  0.3477
 7648TIP3    H144435   1.925   2.644  14.919 -1.0379  1.5906 -0.8624
 7648TIP3    H244436   1.997   2.683  15.046  1.7302 -2.4764 -1.0942
 7649TIP3   OH244437   2.439   3.202  15.181  0.6505  0.4303  0.9294
 7649TIP3    H144438   2.391   3.173  15.259  0.7871  0.6072  1.0785
 7649TIP3    H244439   2.476   3.122  15.144 -2.4322 -0.1679 -1.0126
 7650TIP3   OH244440   4.170   5.344  14.203  0.5021 -0.4123  0.1887
 7650TIP3    H144441   4.106   5.412  14.227 -0.3154 -1.4628  1.0413
 7650TIP3    H244442   4.232   5.389  14.147 -1.4223  0.4749 -1.2943
 7651TIP3   OH244443   2.959   3.329  13.576 -0.2072  0.5195 -0.3044
 7651TIP3    H144444   2.983   3.331  13.483 -0.4500 -0.1551 -0.3840
 7651TIP3    H244445   2.881   3.272  13.580  0.6651 -0.6450  0.5066
 7652TIP3   OH244446   2.333   4.495  14.524  0.1714 -0.1746 -0.0068
 7652TIP3    H144447   2.284   4.417  14.549  0.8706 -1.0305 -1.2945
 7652TIP3    H244448   2.396   4.465  14.459  2.3552  0.9199  1.5293
 7653TIP3   OH244449   3.915   3.406  15.117 -0.1392 -0.7915 -0.4830
 7653TIP3    H144450   3.870   3.421  15.200 -0.0367  0.7861 -0.7030
 7653TIP3    H244451   4.000   3.447  15.127  0.3222 -1.6167 -0.9543
 7654TIP3   OH244452   2.506   3.663  15.067 -0.1858  0.2121  0.4481
 7654TIP3    H144453   2.447   3.620  15.129 -0.2003  1.2600  1.1918
 7654TIP3    H244454   2.581   3.689  15.121 -1.1813  3.1142  0.5350
 7655TIP3   OH244455   3.882   3.963  12.851 -0.0682 -0.4169 -0.5611
 7655TIP3    H144456   3.953   4.019  12.880 -0.7579 -0.2242  0.8227
 7655TIP3    H244457   3.847   4.006  12.773  0.0521  0.5596 -0.0853
 7656TIP3   OH244458   4.653   2.846   1.164  0.5716  0.1757  0.2339
 7656TIP3    H144459   4.739   2.819   1.132  0.4677  2.7897 -2.5351
 7656TIP3    H244460   4.633   2.925   1.114 -2.6947  0.6036  2.0719
 7657TIP3   OH244461   1.412   2.896  12.619  0.1625  0.6197  0.3006
 7657TIP3    H144462   1.460   2.970  12.582  0.6138  0.9799  1.5651
 7657TIP3    H244463   1.464   2.819  12.595 -0.5210  0.6592 -1.3612
 7658TIP3   OH244464   0.804   1.838   0.273  0.6136  0.4041 -0.0218
 7658TIP3    H144465   0.861   1.915   0.259  1.6625 -0.7193 -2.2659
 7658TIP3    H244466   0.724   1.860   0.226 -0.6046  1.6812  2.5363
 7659TIP3   OH244467   2.635   2.957  12.523  0.0741 -0.0542 -0.4353
 7659TIP3    H144468   2.661   3.046  12.501 -0.0898  0.0941 -0.0455
 7659TIP3    H244469   2.539   2.962  12.531 -0.1922 -0.8024 -2.8125
 7660TIP3   OH244470   4.989   3.215  14.511  0.0718 -0.2376  0.9863
 7660TIP3    H144471   4.991   3.253  14.599  3.2306  0.3826  0.6817
 7660TIP3    H244472   4.940   3.279  14.458 -0.0649  0.3648  1.8265
 7661TIP3   OH244473   1.022   3.072  13.521  0.1695  0.8650 -0.1521
 7661TIP3    H144474   1.009   3.158  13.482 -0.1157  0.2656 -1.3828
 7661TIP3    H244475   1.031   3.090  13.615  0.4390  2.2609 -0.4354
 7662TIP3   OH244476   4.237   3.975  13.976 -0.0670 -0.4661  0.0285
 7662TIP3    H144477   4.188   3.892  13.970 -1.0336  0.0921  0.1145
 7662TIP3    H244478   4.282   3.970  14.060 -2.6318  0.4337  1.4935
 7663TIP3   OH244479   0.508   3.514  14.578  0.1424 -0.8142  0.1248
 7663TIP3    H144480   0.443   3.446  14.596 -0.4713  0.1080  1.4958
 7663TIP3    H244481   0.466   3.570  14.512 -1.1990  0.7347  2.2113
 7664TIP3   OH244482   4.707   5.800  12.144 -0.0828 -0.1816 -0.1500
 7664TIP3    H144483   4.749   5.875  12.187  0.7278 -1.2804  1.0057
 7664TIP3    H244484   4.730   5.725  12.199 -2.1751 -1.0534 -0.4220
 7665TIP3   OH244485   1.060   4.313  13.839  0.5069  0.2880  0.0072
 7665TIP3    H144486   1.027   4.345  13.922 -0.1448  0.2880 -0.2494
 7665TIP3    H244487   1.087   4.392  13.792 -0.1021  0.3770 -0.1978
 7666TIP3   OH244488   2.027   3.261  13.732  0.3369 -0.1477  0.0257
 7666TIP3    H144489   2.067   3.249  13.818 -0.1870  3.9184  0.9215
 7666TIP3    H244490   1.956   3.323  13.746 -1.9289 -1.9645 -2.7899
 7667TIP3   OH244491   2.195   4.026   0.336  0.3445 -0.7868  0.1939
 7667TIP3    H144492   2.167   3.995   0.422 -1.0150  3.9357  1.5811
 7667TIP3    H244493   2.287   4.050   0.347 -0.0652  0.6374  0.6145
 7668TIP3   OH244494   3.281   2.364  12.637 -0.3582  0.0439  0.4884
 7668TIP3    H144495   3.375   2.345  12.640 -0.6983 -2.2538 -1.5784
 7668TIP3    H244496   3.241   2.280  12.614 -2.6118  1.7524 -2.1671
 7669TIP3   OH244497   3.952   2.336   1.375 -0.3323 -0.6838  0.0434
 7669TIP3    H144498   3.969   2.292   1.459  1.0936 -4.5559 -2.1488
 7669TIP3    H244499   3.882   2.284   1.335 -1.2535  1.3428 -1.0549
 7670TIP3   OH244500   3.802   2.469  15.453 -0.0232  0.3092  0.2328
 7670TIP3    H144501   3.896   2.458  15.470  0.2067 -0.1277 -1.2553
 7670TIP3    H244502   3.791   2.564  15.444  0.1115  0.4336  1.2069
 7671TIP3   OH244503   1.200   0.577  14.694 -0.3686  0.3072 -0.3790
 7671TIP3    H144504   1.267   0.547  14.755 -1.0341  1.1301  0.7874
 7671TIP3    H244505   1.128   0.514  14.705 -0.3836  0.3039 -0.4966
 7672TIP3   OH244506   3.290   2.278  15.526  0.5359  0.4159 -0.2868
 7672TIP3    H144507   3.385   2.286  15.529  0.5191  1.0847 -1.3788
 7672TIP3    H244508   3.259   2.367  15.509 -0.3007  0.2331  0.2470
 7673TIP3   OH244509   3.126   5.754   0.033  0.0354 -0.0626 -0.0153
 7673TIP3    H144510   3.141   5.662   0.015  1.1229  0.0769  0.1231
 7673TIP3    H244511   3.171   5.800  -0.038 -0.5781  0.3545 -0.1345
 7674TIP3   OH244512   1.925   2.249   0.319 -0.1850  0.4702 -0.0734
 7674TIP3    H144513   1.994   2.278   0.379  1.1305 -1.6612 -0.5118
 7674TIP3    H244514   1.854   2.312   0.332  2.5231  3.8923 -0.9897
 7675TIP3   OH244515   2.624   3.377  13.859  0.3929  0.4553  0.1640
 7675TIP3    H144516   2.717   3.395  13.871  0.3621  1.0196 -0.4068
 7675TIP3    H244517   2.580   3.456  13.888  0.1622  0.6483 -0.6959
 7676TIP3   OH244518   4.502   2.044  15.312 -0.2519 -0.9814 -0.3447
 7676TIP3    H144519   4.572   1.995  15.269 -0.6645 -0.4090 -1.6764
 7676TIP3    H244520   4.507   2.132  15.275 -2.5359 -1.2866 -1.4901
 7677TIP3   OH244521   1.804   3.464   1.621  0.3036 -0.5920  0.2869
 7677TIP3    H144522   1.881   3.509   1.585  0.3415 -0.3806  0.6291
 7677TIP3    H244523   1.739   3.533   1.633  0.2285 -0.6902  0.4483
 7678TIP3   OH244524   1.969   2.582  13.125  0.2045 -0.2392 -0.0019
 7678TIP3    H144525   1.980   2.521  13.198 -0.5164 -0.7768 -0.3340
 7678TIP3    H244526   2.038   2.559  13.063  1.1859  0.6084  0.7762
 7679TIP3   OH244527   1.237   0.972  15.560  0.3115  0.3721 -0.9192
 7679TIP3    H144528   1.188   0.924  15.494 -0.2809 -0.3945  0.0645
 7679TIP3    H244529   1.329   0.953  15.541  0.0850 -1.2437 -0.4899
 7680TIP3   OH244530   0.840   2.007  15.678  0.2454 -0.2455 -0.1708
 7680TIP3    H144531   0.931   1.976  15.683  0.8028  1.3212 -0.1128
 7680TIP3    H244532   0.836   2.054  15.595 -0.8930 -1.3999 -0.7800
 7681TIP3   OH244533   1.895   1.517  15.464  0.1090 -0.7513 -0.0586
 7681TIP3    H144534   1.973   1.556  15.424 -0.8437  0.1956 -1.0174
 7681TIP3    H244535   1.896   1.426  15.435 -0.3446 -0.1814 -1.8977
 7682TIP3   OH244536   5.499   5.877  12.722  0.8835  0.6835  0.6304
 7682TIP3    H144537   5.570   5.845  12.778 -0.0255 -1.4717  0.6145
 7682TIP3    H244538   5.447   5.799  12.703  0.9379  1.4184 -2.9031
 7683TIP3   OH244539   2.568   1.979  12.392 -0.4711 -0.1773 -0.1997
 7683TIP3    H144540   2.645   1.979  12.449 -0.8465  2.1009  0.3803
 7683TIP3    H244541   2.499   1.939  12.445  0.0907 -1.4361 -0.4086
 7684TIP3   OH244542   1.155   5.673  14.472 -0.0998 -0.4068  0.0739
 7684TIP3    H144543   1.243   5.647  14.500  0.2865 -0.0323 -0.7609
 7684TIP3    H244544   1.164   5.688  14.377 -0.6052  1.4744  0.2976
 7685TIP3   OH244545   0.294   2.862  11.917 -0.2653  0.3635  0.3933
 7685TIP3    H144546   0.231   2.865  11.845  1.6958 -1.1318 -1.4578
 7685TIP3    H244547   0.240   2.857  11.996 -2.4556 -0.0532 -1.0907
 7686TIP3   OH244548   4.311   3.299  14.061 -0.1606 -0.3234 -0.5078
 7686TIP3    H144549   4.293   3.393  14.071 -2.0176 -0.5719 -1.3011
 7686TIP3    H244550   4.327   3.287  13.968 -0.8113 -0.9300 -0.5494
 7687TIP3   OH244551   4.884   3.924  15.716 -0.3690 -0.9474  0.1140
 7687TIP3    H144552   4.972   3.887  15.715  0.4988  1.0295  0.2869
 7687TIP3    H244553   4.855   3.914  15.807  0.0674 -0.7029  0.2795
 7688TIP3   OH244554   3.779   2.026   2.187 -0.2184 -0.2414 -0.2320
 7688TIP3    H144555   3.866   1.990   2.203  0.0034  0.3852 -0.0441
 7688TIP3    H244556   3.789   2.080   2.108 -0.1896  0.7053  0.4157
 7689TIP3   OH244557   6.488   3.596  14.613  0.5258  0.2048  0.0918
 7689TIP3    H144558   6.491   3.525  14.677  1.2982  0.2986  0.1618
 7689TIP3    H244559   6.571   3.642  14.624  0.3314  0.6924 -0.4442
 7690TIP3   OH244560   3.836   5.477  13.662  0.4873 -0.2393  0.0164
 7690TIP3    H144561   3.917   5.522  13.685 -0.0597  0.5917  0.3032
 7690TIP3    H244562   3.772   5.507  13.726  0.0437 -1.1999  0.0335
 7691TIP3   OH244563   4.320   5.159  12.573 -0.2926 -0.2100 -0.3609
 7691TIP3    H144564   4.266   5.099  12.624  0.4719  0.8693  1.8152
 7691TIP3    H244565   4.257   5.205  12.517 -1.0254 -2.1471 -1.1779
 7692TIP3   OH244566   2.781   2.407   0.164  0.2447  0.2133  0.2827
 7692TIP3    H144567   2.869   2.429   0.195 -0.0416  0.5254  0.8855
 7692TIP3    H244568   2.784   2.312   0.149 -0.0168 -0.2229  2.6996
 7693TIP3   OH244569   4.038   2.965  14.608  0.7354  0.1039 -0.2106
 7693TIP3    H144570   4.056   2.880  14.648 -0.9739 -0.4257 -0.5221
 7693TIP3    H244571   3.964   3.001  14.658  0.0497  0.4396 -1.4269
 7694TIP3   OH244572   0.719   2.938  15.497 -0.1289  0.5103  0.3140
 7694TIP3    H144573   0.753   2.989  15.571  1.4538 -0.1282  0.0525
 7694TIP3    H244574   0.701   2.852  15.534  0.3132  0.2996  0.0397
 7695TIP3   OH244575   1.962   4.551  13.058  0.1985  0.3711  0.1218
 7695TIP3    H144576   1.997   4.601  12.985  0.8705 -0.9635 -0.4763
 7695TIP3    H244577   1.868   4.570  13.057  0.2334  0.4984 -0.9690
 7696TIP3   OH244578   1.386   2.695   0.675  0.2219  0.0758 -0.0984
 7696TIP3    H144579   1.465   2.711   0.624  0.7451 -0.9308  0.3760
 7696TIP3    H244580   1.404   2.613   0.722 -0.3449  0.8527  1.5152
 7697TIP3   OH244581   4.989   5.526  14.622 -0.1086  0.5465 -0.1211
 7697TIP3    H144582   4.933   5.588  14.575  0.4524  1.6832  0.6777
 7697TIP3    H244583   5.042   5.484  14.554 -0.8861  0.5312 -0.7219
 7698TIP3   OH244584   2.191   2.421  14.842 -0.6034 -0.1471  0.1551
 7698TIP3    H144585   2.203   2.359  14.770 -1.7404 -1.4564  1.0704
 7698TIP3    H244586   2.105   2.461  14.825  0.7019  2.2456 -1.1848
 7699TIP3   OH244587   4.999   2.867  14.189 -0.2177 -0.0443 -0.0263
 7699TIP3    H144588   5.067   2.804  14.165  0.5958  0.7081  0.2802
 7699TIP3    H244589   5.025   2.948  14.145 -0.6565  0.3772  0.4824
 7700TIP3   OH244590   1.669   3.340  15.097 -0.3583 -0.6503  0.6077
 7700TIP3    H144591   1.599   3.357  15.034  1.2234  2.7081 -0.3691
 7700TIP3    H244592   1.684   3.425  15.139  2.3561 -1.5674  1.5881
 7701TIP3   OH244593   3.612   5.643  15.576 -0.5760  0.2003 -0.8363
 7701TIP3    H144594   3.664   5.659  15.655  1.2230  0.6616 -2.0803
 7701TIP3    H244595   3.522   5.639  15.607  0.1459 -0.1310  1.3107
 7702TIP3   OH244596   3.138   2.412  14.333 -0.3045  0.2767 -0.0838
 7702TIP3    H144597   3.137   2.480  14.400 -1.5161 -0.5062  0.7116
 7702TIP3    H244598   3.219   2.363  14.350 -0.4683  0.2513  0.6548
 7703TIP3   OH244599   6.884   1.160   1.666  0.5021 -0.1248  0.2839
 7703TIP3    H144600   6.795   1.190   1.649  0.2042 -0.2243  1.5649
 7703TIP3    H244601   6.876   1.103   1.743  1.9130  1.3627  1.5927
 7704TIP3   OH244602   6.288   1.186   0.099  0.1224  0.0820  0.7480
 7704TIP3    H144603   6.326   1.274   0.101 -1.3851  0.7624  0.9800
 7704TIP3    H244604   6.321   1.144   0.178  0.4963  0.6180  0.8787
 7705TIP3   OH244605   6.311   4.064  14.073 -0.6317 -0.6548  0.0492
 7705TIP3    H144606   6.345   4.026  14.154 -0.7852  1.9070  1.3543
 7705TIP3    H244607   6.216   4.066  14.085 -0.7592 -1.5362 -0.7742
 7706TIP3   OH244608   3.273   4.058  14.472  0.2135  0.8045  0.3764
 7706TIP3    H144609   3.230   3.995  14.530  0.3411  1.5417  1.2751
 7706TIP3    H244610   3.230   4.141  14.490  0.6504  1.1495 -0.1686
 7707TIP3   OH244611   3.156   4.421  13.380 -0.1837  0.6290  0.2911
 7707TIP3    H144612   3.083   4.433  13.319  0.2612  0.0274 -0.3681
 7707TIP3    H244613   3.173   4.508  13.415 -1.8428  0.6266  1.1718
 7708TIP3   OH244614   3.823   3.642  13.522 -0.5285  0.2405  0.0475
 7708TIP3    H144615   3.788   3.566  13.567  1.1195 -0.2422  0.5366
 7708TIP3    H244616   3.816   3.713  13.586 -0.2849  0.0718  0.2588
 7709TIP3   OH244617   4.589   3.057  13.369  0.3592 -0.1674 -1.1721
 7709TIP3    H144618   4.632   3.079  13.287 -0.6784 -0.0194 -1.6926
 7709TIP3    H244619   4.507   3.107  13.367  0.0293 -0.6550 -0.3357
 7710TIP3   OH244620   1.255   2.062  15.120  0.4984  0.5972  0.2169
 7710TIP3    H144621   1.341   2.058  15.162  0.8432  0.9298 -0.4404
 7710TIP3    H244622   1.193   2.045  15.190  1.1827 -1.7195  0.3285
 7711TIP3   OH244623   4.456   4.627   0.519  0.6258  0.2650 -0.1880
 7711TIP3    H144624   4.491   4.543   0.491 -0.2233 -0.1666  0.0381
 7711TIP3    H244625   4.533   4.677   0.546  1.1780 -0.2726 -0.7566
 7712TIP3   OH244626   1.957   7.121  15.002  0.7477 -0.3056  0.2558
 7712TIP3    H144627   1.980   7.046  15.057  0.0027  0.4327  1.6022
 7712TIP3    H244628   1.896   7.085  14.937 -0.5894 -0.6540  1.6606
 7713TIP3   OH244629   2.791   3.116  15.640  0.5807 -0.3404 -0.0650
 7713TIP3    H144630   2.725   3.174  15.677  1.1282 -0.1196  0.5795
 7713TIP3    H244631   2.833   3.076  15.717  1.2749 -0.3877 -0.4635
 7714TIP3   OH244632   2.653   4.737  12.883 -0.3098 -0.0627  0.7777
 7714TIP3    H144633   2.660   4.697  12.797 -0.4446  0.8004  0.3599
 7714TIP3    H244634   2.561   4.727  12.907 -0.4579  0.4790  0.4365
 7715TIP3   OH244635   2.467   3.148   0.516  0.5837  0.4417  0.1696
 7715TIP3    H144636   2.503   3.206   0.449 -0.0335  1.1744  0.4526
 7715TIP3    H244637   2.517   3.169   0.595  0.4366  0.5158  0.2441
 7716TIP3   OH244638   3.203   5.113  15.913  0.3002 -0.3763  0.0885
 7716TIP3    H144639   3.190   5.181  15.846  1.2460 -1.5565 -1.3146
 7716TIP3    H244640   3.298   5.108  15.924  0.1769 -0.6791  1.0250
 7717TIP3   OH244641   5.110   1.463  15.304 -0.0499 -0.0199 -0.2286
 7717TIP3    H144642   5.191   1.508  15.332 -0.5473  1.1806 -0.6810
 7717TIP3    H244643   5.050   1.476  15.377  0.5374 -1.9342  0.6107
 7718TIP3   OH244644   2.331   3.563  15.875 -0.1172  0.0120 -0.6245
 7718TIP3    H144645   2.265   3.496  15.887  0.5459 -0.6611 -0.6953
 7718TIP3    H244646   2.282   3.643  15.859 -0.9579 -0.0782  1.3244
 7719TIP3   OH244647   4.174   2.336   1.085 -0.0344 -0.4495  0.2737
 7719TIP3    H144648   4.157   2.243   1.073 -2.5521  0.0213 -0.1750
 7719TIP3    H244649   4.121   2.361   1.160  1.6341  0.3708  1.1969
 7720TIP3   OH244650   3.088   3.789  15.463  0.1441  0.1240  0.1142
 7720TIP3    H144651   3.080   3.704  15.421 -1.4565  0.6277 -0.6334
 7720TIP3    H244652   3.085   3.769  15.557 -0.7908 -0.5978 -0.0591
 7721TIP3   OH244653   3.058   6.052  14.946  0.1877  0.4158  0.5881
 7721TIP3    H144654   3.025   6.140  14.962  1.7017  1.2124 -0.6677
 7721TIP3    H244655   2.987   5.995  14.976 -1.0666  2.0533  0.8040
 7722TIP3   OH244656   3.197   3.713  14.416 -0.0251 -0.1609 -0.2379
 7722TIP3    H144657   3.266   3.687  14.476  0.1028 -0.0534 -0.3404
 7722TIP3    H244658   3.141   3.771  14.468 -1.4326 -2.2195  0.6056
 7723TIP3   OH244659   1.660   2.519  15.683 -0.1376  0.2682 -0.1185
 7723TIP3    H144660   1.748   2.555  15.693 -0.5499  1.2133  0.0687
 7723TIP3    H244661   1.647   2.515  15.588 -0.1640  0.7618 -0.1335
 7724TIP3   OH244662   1.605   2.960  14.150 -0.3704 -0.4631  0.1682
 7724TIP3    H144663   1.552   2.977  14.073  0.4611  0.8248 -0.1255
 7724TIP3    H244664   1.608   3.044  14.196  0.7541 -0.7311  0.5852
 7725TIP3   OH244665   2.313   1.333  14.230 -0.1046  0.0358 -0.0689
 7725TIP3    H144666   2.328   1.283  14.150 -0.2180 -0.7896  0.4083
 7725TIP3    H244667   2.219   1.327  14.245 -0.1298  0.4602 -0.0486
 7726TIP3   OH244668   1.934   3.548  14.767  0.8166  0.2526  0.0780
 7726TIP3    H144669   1.861   3.512  14.715  0.2863  1.3139  0.0699
 7726TIP3    H244670   2.011   3.501  14.736  0.3937  0.3583 -1.1762
 7727TIP3   OH244671   1.283   2.540  13.714 -0.5452 -0.2519 -0.1508
 7727TIP3    H144672   1.350   2.543  13.645 -1.1568 -0.1774 -0.7434
 7727TIP3    H244673   1.331   2.563  13.794  0.0669  0.1681 -0.6258
 7728TIP3   OH244674   6.149   0.107  12.249  0.0858  0.5117 -0.2056
 7728TIP3    H144675   6.216   0.176  12.239  2.3742 -1.7536 -1.1229
 7728TIP3    H244676   6.197   0.033  12.286 -2.4946 -0.3559  1.4715
 7729TIP3   OH244677   1.597   4.773  12.801 -0.4235 -0.3256  0.5032
 7729TIP3    H144678   1.674   4.817  12.765 -1.1050 -0.3227 -0.9842
 7729TIP3    H244679   1.599   4.685  12.762 -1.5368 -0.1020 -0.0789
 7730TIP3   OH244680   1.880   1.933  15.547 -0.0693 -0.4374  0.2338
 7730TIP3    H144681   1.914   1.859  15.597  0.1090 -0.0453  0.6953
 7730TIP3    H244682   1.943   1.945  15.476 -0.3419 -1.0197 -0.1037
 7731TIP3   OH244683   2.102   0.932   0.832 -0.0529  0.3051 -0.2084
 7731TIP3    H144684   2.112   0.884   0.750 -0.5674 -1.6038  0.8078
 7731TIP3    H244685   2.174   0.901   0.887 -0.4752  0.5826  0.5178
 7732TIP3   OH244686   1.507   2.061  15.234  0.6782 -0.4405 -0.1741
 7732TIP3    H144687   1.588   2.108  15.254  0.9265 -1.1393  0.5048
 7732TIP3    H244688   1.515   2.038  15.142  0.4916  0.9440 -0.5533
 7733TIP3   OH244689   3.136   3.169  15.913 -0.2200  0.2372 -0.1687
 7733TIP3    H144690   3.057   3.116  15.923 -0.9589  1.0964 -1.2431
 7733TIP3    H244691   3.196   3.114  15.864 -0.8441  0.2262 -0.9471
 7734TIP3   OH244692   1.321   4.680  11.911 -0.4646  0.0345 -0.0808
 7734TIP3    H144693   1.306   4.656  11.819  0.6261 -1.7486  0.1861
 7734TIP3    H244694   1.241   4.652  11.956 -0.6298  0.0889 -0.3341
 7735TIP3   OH244695   2.523   2.334  15.933  0.5043  0.1540  0.5081
 7735TIP3    H144696   2.542   2.425  15.957  0.9392  0.0155  0.6869
 7735TIP3    H244697   2.489   2.339  15.844 -0.2976  0.5856  0.8258
 7736TIP3   OH244698   3.554   0.714   0.418  0.5590 -0.6397  0.3801
 7736TIP3    H144699   3.484   0.657   0.384 -1.1299 -0.3151  3.1817
 7736TIP3    H244700   3.557   0.787   0.357 -0.7705 -1.2203 -0.4097
 7737TIP3   OH244701   1.270   4.998  10.928 -0.2142  0.1807 -0.0567
 7737TIP3    H144702   1.310   5.062  10.987 -1.6308  0.6723  0.3864
 7737TIP3    H244703   1.246   5.049  10.850  0.1592 -0.1361 -0.3773
 7738TIP3   OH244704   4.429   4.047  15.591  0.2222  0.1162  0.1918
 7738TIP3    H144705   4.511   3.998  15.582  0.3822 -0.0622  2.3836
 7738TIP3    H244706   4.445   4.110  15.660 -1.6754 -0.3411  1.0961
 7739TIP3   OH244707   2.486   0.881   1.445  0.3494  0.0532 -0.3009
 7739TIP3    H144708   2.543   0.890   1.368 -0.3683 -1.1589 -0.9841
 7739TIP3    H244709   2.400   0.909   1.414  0.4252  1.3015  0.5685
 7740TIP3   OH244710   2.949   2.840  15.331  0.1590 -0.1245  0.2138
 7740TIP3    H144711   2.936   2.806  15.243 -0.4976  2.4466 -0.7165
 7740TIP3    H244712   2.862   2.839  15.371  0.0459  0.9460  0.0001
 7741TIP3   OH244713   6.933   3.178  12.163 -0.5262 -0.4543 -0.3112
 7741TIP3    H144714   6.905   3.240  12.095 -0.4070 -0.0438  0.0080
 7741TIP3    H244715   6.971   3.105  12.115  0.4511  0.2694 -0.6727
 7742TIP3   OH244716   2.507   0.704  15.316 -0.4663 -0.4772 -0.1161
 7742TIP3    H144717   2.431   0.745  15.358 -0.5782 -1.1375  0.3267
 7742TIP3    H244718   2.470   0.656  15.242 -0.2520  0.8076 -1.0739
 7743TIP3   OH244719   3.258   5.363  14.918 -0.3594 -0.2111 -0.0013
 7743TIP3    H144720   3.246   5.276  14.879  0.8292 -0.8015  0.9265
 7743TIP3    H244721   3.217   5.422  14.855 -0.4115 -1.3537 -1.0782
 7744TIP3   OH244722   5.659   1.881  14.738 -0.5194  0.0624  0.1517
 7744TIP3    H144723   5.635   1.919  14.822  1.1823  2.0513 -0.2152
 7744TIP3    H244724   5.750   1.854  14.749  0.0340  1.2174 -1.2993
 7745TIP3   OH244725   5.707   1.170  14.243 -0.1133  0.1589 -0.1528
 7745TIP3    H144726   5.732   1.258  14.216  0.7841  0.2805  1.0428
 7745TIP3    H244727   5.632   1.183  14.302 -0.3209  0.0782 -0.3964
 7746TIP3   OH244728   5.023   2.767  13.865 -0.1521  0.2284  0.0189
 7746TIP3    H144729   5.062   2.684  13.839 -0.2898  0.2469 -0.2499
 7746TIP3    H244730   5.044   2.775  13.959  0.5658  0.2851 -0.1406
 7747TIP3   OH244731   5.611   3.018  12.643 -0.4849 -0.0452 -0.1169
 7747TIP3    H144732   5.531   3.059  12.675  0.6305  0.9453  1.5294
 7747TIP3    H244733   5.647   2.973  12.720 -0.8912 -2.8915 -1.5103
 7748TIP3   OH244734   6.496   5.491  15.311 -0.4383  0.1077  0.5691
 7748TIP3    H144735   6.521   5.427  15.377  1.4247 -0.3589 -0.5323
 7748TIP3    H244736   6.561   5.560  15.319 -1.2475  0.8995  0.3971
 7749TIP3   OH244737   5.603   3.063  15.287 -0.2127 -0.0267 -0.7942
 7749TIP3    H144738   5.672   3.044  15.351 -0.6405  2.3184  0.4418
 7749TIP3    H244739   5.643   3.047  15.202  0.0487 -4.2703  0.0280
 7750TIP3   OH244740   3.393   3.052  15.728  0.4770  0.1485 -0.0596
 7750TIP3    H144741   3.447   2.998  15.671 -0.8346 -1.3778  0.1126
 7750TIP3    H244742   3.450   3.073  15.802  1.2121 -0.4374 -0.4473
 7751TIP3   OH244743   5.967   5.360  14.633  0.4772  0.5970  0.4249
 7751TIP3    H144744   5.894   5.422  14.640 -0.5216 -0.5132  0.0048
 7751TIP3    H244745   6.019   5.375  14.712 -1.3490 -0.0508  1.7670
 7752TIP3   OH244746   5.598   1.922  15.003  0.3222 -0.1219  0.6079
 7752TIP3    H144747   5.692   1.920  15.019  0.3193  0.2155  0.6723
 7752TIP3    H244748   5.572   1.830  15.001  0.8508 -0.2443 -0.5819
 7753TIP3   OH244749   6.887   2.153  11.935  0.4219 -0.3558 -0.5103
 7753TIP3    H144750   6.956   2.086  11.940  1.1998  0.5500  1.6716
 7753TIP3    H244751   6.932   2.235  11.957 -0.9446  0.5608 -1.0934
 7754TIP3   OH244752   5.795   5.131  14.605 -0.2031 -0.2684  0.5208
 7754TIP3    H144753   5.861   5.065  14.625 -1.7078 -1.6121  1.1491
 7754TIP3    H244754   5.842   5.215  14.611  1.2667 -1.1470  1.6345
 7755TIP3   OH244755   4.829   3.625  14.691  0.1634 -0.3084 -0.2087
 7755TIP3    H144756   4.778   3.656  14.617  0.2211 -0.7978 -0.4580
 7755TIP3    H244757   4.790   3.541  14.714 -0.4694  0.2995  0.9463
 7756TIP3   OH244758   3.985   2.408  14.744  0.1053  0.2364 -0.4861
 7756TIP3    H144759   3.967   2.336  14.684 -0.0419 -1.3381  1.4063
 7756TIP3    H244760   3.905   2.461  14.743  0.4923  0.8094 -2.4581
 7757TIP3   OH244761   3.592   2.303   1.023  0.1793 -0.1629 -0.2070
 7757TIP3    H144762   3.625   2.333   1.107 -0.0844 -0.9109  0.1745
 7757TIP3    H244763   3.513   2.253   1.045 -1.2601  1.6740 -1.1167
 7758TIP3   OH244764   3.900   2.198  14.153  0.1796  0.5411 -0.4541
 7758TIP3    H144765   3.948   2.189  14.070  1.6031  0.6238  0.3515
 7758TIP3    H244766   3.833   2.129  14.149  1.6567 -0.9178 -0.7217
 7759TIP3   OH244767   0.290   1.450  13.915  0.1505  0.8314  0.1162
 7759TIP3    H144768   0.321   1.482  14.000 -0.8758  1.5606  0.2171
 7759TIP3    H244769   0.195   1.447  13.924  0.1471 -1.1373 -0.2918
 7760TIP3   OH244770   5.104   7.233  15.943  0.2484 -0.6559 -0.4066
 7760TIP3    H144771   5.177   7.189  15.988 -1.3076 -1.7371  1.1473
 7760TIP3    H244772   5.144   7.271  15.865  2.7503 -0.0873  1.0623
 7761TIP3   OH244773   7.072   2.218  11.652  0.5867  0.3373  0.0130
 7761TIP3    H144774   7.054   2.126  11.634  1.5697  0.1177  0.1386
 7761TIP3    H244775   6.986   2.259  11.655  0.0517 -0.8648  1.5181
 7762TIP3   OH244776   4.338   2.978  14.348  0.3135 -0.5773  0.1362
 7762TIP3    H144777   4.282   2.908  14.315  0.2825 -1.3776  1.8123
 7762TIP3    H244778   4.403   2.932  14.402  1.2882  0.5437 -0.0697
 7763TIP3   OH244779   4.715   2.310  13.322  0.4848  0.0994 -0.1106
 7763TIP3    H144780   4.675   2.321  13.408  2.2758 -0.9105  0.8825
 7763TIP3    H244781   4.699   2.219  13.299  2.2218 -0.3252  0.3177
 7764TIP3   OH244782   2.641   3.300  15.801 -0.4791 -0.6462 -0.2480
 7764TIP3    H144783   2.685   3.358  15.863  1.3436  0.7795 -2.7572
 7764TIP3    H244784   2.580   3.357  15.754 -2.1443 -1.7921  0.4999
 7765TIP3   OH244785   2.513   3.643  13.859  0.2675  0.5433 -0.5107
 7765TIP3    H144786   2.443   3.690  13.813 -2.4967  0.7958  3.6847
 7765TIP3    H244787   2.587   3.703  13.855 -0.9169  2.0073 -1.7001
 7766TIP3   OH244788   3.404   4.372  15.446 -0.7406  0.2160  0.0944
 7766TIP3    H144789   3.445   4.366  15.360  0.5623 -1.3091  0.8040
 7766TIP3    H244790   3.311   4.386  15.426 -0.6522 -1.3025 -1.5928
 7767TIP3   OH244791   6.607   3.496  13.534 -0.4422  0.3843 -0.2426
 7767TIP3    H144792   6.531   3.447  13.565  1.4842 -1.5421  1.6889
 7767TIP3    H244793   6.620   3.565  13.598  1.0344 -1.0149  1.0351
 7768TIP3   OH244794   4.712   3.469   0.826  0.2618 -0.0168  0.2281
 7768TIP3    H144795   4.696   3.393   0.770  0.7094 -1.8397  2.4915
 7768TIP3    H244796   4.633   3.521   0.819  0.4004 -0.0487 -2.2751
 7769TIP3   OH244797   4.670   3.177  15.159 -0.4637 -0.1163  0.3909
 7769TIP3    H144798   4.688   3.174  15.065 -1.5366 -1.4451  0.2099
 7769TIP3    H244799   4.592   3.122  15.171  0.9758 -1.8112  2.3594
 7770TIP3   OH244800   4.797   3.866  13.389 -0.3182 -0.2637 -0.1433
 7770TIP3    H144801   4.890   3.847  13.379  0.1363  1.9373 -0.1682
 7770TIP3    H244802   4.759   3.841  13.305  0.0300 -2.3402  0.2900
 7771TIP3   OH244803   6.755   3.219  13.981  0.7371  0.0838  0.3314
 7771TIP3    H144804   6.715   3.224  13.894  2.6490  0.0895 -0.5567
 7771TIP3    H244805   6.763   3.125  13.997  2.3535  0.0920 -0.4160
 7772TIP3   OH244806   5.363   3.232  15.860 -0.8681  0.2900  0.2321
 7772TIP3    H144807   5.351   3.302  15.795 -1.0179  1.0982  1.1168
 7772TIP3    H244808   5.314   3.262  15.937  0.4578  0.0020  1.2041
 7773TIP3   OH244809   4.800   2.929  13.796  0.5373  0.2640  0.3454
 7773TIP3    H144810   4.810   2.974  13.711 -0.9350  0.3541  0.2041
 7773TIP3    H244811   4.878   2.874  13.803 -0.1191 -1.0495 -1.8783
 7774TIP3   OH244812   6.659   2.950  11.818 -0.1512  0.3138 -0.0181
 7774TIP3    H144813   6.723   2.901  11.870  0.6946  2.7543  1.3029
 7774TIP3    H244814   6.622   3.014  11.878 -0.5244  1.9665 -1.9467
 7775TIP3   OH244815   3.580   3.009  14.024  0.3017  0.0839  0.0681
 7775TIP3    H144816   3.602   2.985  14.114 -1.5097 -0.3236  0.4212
 7775TIP3    H244817   3.616   2.939  13.971 -0.0973 -0.5484  0.6255
 7776TIP3   OH244818   5.678   3.668  14.066 -0.5580  0.7458 -0.4477
 7776TIP3    H144819   5.639   3.642  13.983 -1.4099  3.6774 -1.0161
 7776TIP3    H244820   5.727   3.748  14.046 -2.3394  2.6055  2.1958
 7777TIP3   OH244821   4.752   2.809  14.236 -0.2422  0.7415 -0.2375
 7777TIP3    H144822   4.847   2.817  14.242  0.0010 -1.2773 -1.0103
 7777TIP3    H244823   4.725   2.884  14.183  0.7560  2.0469  1.0603
 7778TIP3   OH244824   3.316   5.028  14.901 -0.5353  0.5348  0.3944
 7778TIP3    H144825   3.339   4.940  14.871 -1.2558  0.3447  0.3950
 7778TIP3    H244826   3.229   5.018  14.940 -0.4148  1.1554  0.8189
 7779TIP3   OH244827   3.686   3.821  15.862 -0.8153  0.6292 -0.1285
 7779TIP3    H144828   3.757   3.817  15.925 -0.6090  1.1974 -0.3210
 7779TIP3    H244829   3.687   3.736  15.818 -1.6906 -0.1949  1.4266
 7780TIP3   OH244830   5.358   2.239  14.607  0.2357 -0.6523  0.4783
 7780TIP3    H144831   5.284   2.279  14.653 -0.1208  0.7474 -1.2531
 7780TIP3    H244832   5.435   2.284  14.641  0.0952 -0.5755  0.6949
 7781TIP3   OH244833   5.001   2.331  10.388  0.1934  0.7871  0.6019
 7781TIP3    H144834   5.095   2.329  10.367 -0.4536 -0.1712 -2.4213
 7781TIP3    H244835   4.977   2.423  10.378  0.2535  0.6095 -1.4264
 7782TIP3   OH244836   4.533   4.645  13.923  0.0603  0.3334 -0.4973
 7782TIP3    H144837   4.609   4.598  13.958 -0.0107 -0.5747 -1.5193
 7782TIP3    H244838   4.546   4.736  13.950  0.8297 -0.0539  0.4664
 7783TIP3   OH244839   4.430   5.234  13.262 -0.7957  0.2421 -0.0169
 7783TIP3    H144840   4.425   5.188  13.178 -1.9465  0.0669  0.1290
 7783TIP3    H244841   4.360   5.300  13.257 -0.4883  0.6170  0.5697
 7784TIP3   OH244842   5.534   4.691  13.367 -0.8596  0.4661  0.1061
 7784TIP3    H144843   5.533   4.760  13.301 -0.1724  0.5957  0.2288
 7784TIP3    H244844   5.625   4.686  13.395 -1.1742  0.4972  1.1471
 7785TIP3   OH244845   6.514   2.460   0.163 -0.7801 -0.5004 -0.0174
 7785TIP3    H144846   6.427   2.496   0.183 -0.4251  0.0411  0.5879
 7785TIP3    H244847   6.525   2.389   0.226 -0.9433 -0.8286 -0.3558
 7786TIP3   OH244848   4.817   3.214  14.243 -0.2101 -0.1680  0.4287
 7786TIP3    H144849   4.859   3.244  14.162 -2.2092 -1.6185 -1.1739
 7786TIP3    H244850   4.732   3.182  14.215 -1.2888  0.1606  3.2667
 7787TIP3   OH244851   5.872   1.959  15.005 -0.2082  0.3850 -0.8864
 7787TIP3    H144852   5.885   1.936  14.913  0.7628  0.1941 -0.7043
 7787TIP3    H244853   5.948   1.922  15.050 -1.3519 -0.6969  0.1972
 7788TIP3   OH244854   5.116   2.112   0.149 -0.5281  0.1309  0.0077
 7788TIP3    H144855   5.141   2.029   0.109 -0.8070  0.8051 -1.6049
 7788TIP3    H244856   5.024   2.101   0.173 -0.9263  0.4018 -1.3643
 7789TIP3   OH244857   5.560   3.733  12.851  0.1241  0.2320  0.0786
 7789TIP3    H144858   5.535   3.673  12.921  2.9427  0.2639  1.1578
 7789TIP3    H244859   5.555   3.820  12.891  0.4768  0.3534 -0.1385
 7790TIP3   OH244860   3.475   3.972  15.766  0.3451 -0.5602  0.0271
 7790TIP3    H144861   3.556   3.925  15.787  0.3601 -0.6766 -0.2830
 7790TIP3    H244862   3.435   3.920  15.695  2.7921  2.4538 -3.7789
 7791TIP3   OH244863   5.317   4.967  15.299 -0.1251  0.2199  0.1008
 7791TIP3    H144864   5.290   4.894  15.243 -0.2720 -0.3167  0.8523
 7791TIP3    H244865   5.332   5.040  15.239 -0.2149 -0.3625 -0.6363
 7792TIP3   OH244866   5.086   3.228   1.096  0.2839 -0.1127  0.1158
 7792TIP3    H144867   4.992   3.243   1.110  0.4588  0.8491  0.2909
 7792TIP3    H244868   5.097   3.234   1.001  0.2907  0.5403  0.1548
 7793TIP3   OH244869   5.620   2.512  15.988  0.2604 -0.4859  0.2546
 7793TIP3    H144870   5.613   2.476  16.077  1.9642  1.4846  1.2491
 7793TIP3    H244871   5.602   2.606  16.000 -1.5885 -0.5494 -1.8432
 7794TIP3   OH244872   4.985   4.368  10.901  0.4359  0.1405  0.2794
 7794TIP3    H144873   4.939   4.315  10.836  0.9877 -0.1876  0.1545
 7794TIP3    H244874   4.987   4.314  10.979  1.4039 -0.2076  0.0133
 7795TIP3   OH244875   5.578   3.908  13.461  0.4102  0.4584  0.0789
 7795TIP3    H144876   5.592   3.940  13.372  1.3243 -1.5993 -0.5429
 7795TIP3    H244877   5.663   3.918  13.504  0.4244 -0.1247  0.1944
 7796TIP3   OH244878   4.680   3.959  11.582  0.3039 -0.1201  0.1699
 7796TIP3    H144879   4.692   4.052  11.563 -0.3092  0.1001  0.8336
 7796TIP3    H244880   4.595   3.954  11.627  0.8621 -0.8627  1.1550
 7797TIP3   OH244881   4.036   5.638  14.578  0.1512  0.9192 -0.1531
 7797TIP3    H144882   4.130   5.650  14.591  0.2575 -0.7754  0.8422
 7797TIP3    H244883   4.003   5.616  14.666 -1.0611  0.8525 -0.6189
 7798TIP3   OH244884   3.771   2.905  14.516 -0.1378 -0.1630 -0.0426
 7798TIP3    H144885   3.866   2.897  14.523 -0.1637  1.0046  1.7444
 7798TIP3    H244886   3.740   2.815  14.509  1.0700 -0.5660 -0.3177
 7799TIP3   OH244887   1.132   3.999  13.909  0.3617  0.0143 -0.4277
 7799TIP3    H144888   1.055   4.055  13.902  0.2031 -0.3566 -1.6295
 7799TIP3    H244889   1.199   4.055  13.950  0.2672  1.1451 -1.7947
 7800TIP3   OH244890   0.983   2.774   0.917  0.3359  1.0597 -0.4116
 7800TIP3    H144891   1.017   2.716   0.985 -1.7530  0.1676 -0.0990
 7800TIP3    H244892   1.029   2.747   0.837  3.1406  2.4184  0.6901
 7801TIP3   OH244893   4.259   1.991  15.065 -0.0068 -0.0676  0.1337
 7801TIP3    H144894   4.253   1.989  14.970  1.6727  1.8629 -0.0409
 7801TIP3    H244895   4.343   1.951  15.085 -0.5124 -0.7943  0.8457
 7802TIP3   OH244896   3.467   4.741   1.386 -0.6082  0.2705 -0.6613
 7802TIP3    H144897   3.433   4.653   1.403 -0.4826 -0.2229 -2.8099
 7802TIP3    H244898   3.562   4.731   1.387 -0.5908  0.4222 -0.7072
 7803TIP3   OH244899   5.681   1.144  13.191  0.1595  0.0115 -0.1384
 7803TIP3    H144900   5.747   1.195  13.144  0.0406 -0.2461 -0.5841
 7803TIP3    H244901   5.622   1.112  13.123  0.0520 -0.4553  0.1715
 7804TIP3   OH244902   4.974   4.261  12.479 -0.7004  0.1158 -0.4645
 7804TIP3    H144903   4.880   4.249  12.494 -0.7335 -0.1293 -0.8542
 7804TIP3    H244904   4.985   4.246  12.385 -0.1312 -0.7671 -0.2629
 7805TIP3   OH244905   4.904   4.895   0.474 -0.4681  0.0271  0.5081
 7805TIP3    H144906   4.898   4.918   0.566 -2.2061  4.2095 -0.5523
 7805TIP3    H244907   4.960   4.963   0.436  0.2586 -1.6586 -1.5417
 7806TIP3   OH244908   3.797   4.116  12.636 -0.0832 -0.3644 -0.2945
 7806TIP3    H144909   3.855   4.066  12.579  0.5346 -0.9406  0.8405
 7806TIP3    H244910   3.802   4.206  12.602  0.3446 -0.6848 -1.0882
 7807TIP3   OH244911   2.801   1.485  14.456  0.4174  0.4664  0.0786
 7807TIP3    H144912   2.875   1.494  14.396 -0.0428  0.4856 -0.4885
 7807TIP3    H244913   2.770   1.396  14.442 -0.4894  0.8858 -0.6428
 7808TIP3   OH244914   5.705   5.778  15.635 -0.2059  0.7511 -0.7207
 7808TIP3    H144915   5.760   5.702  15.616 -1.0638  0.2341 -1.1777
 7808TIP3    H244916   5.767   5.848  15.656  0.6509  0.3902 -2.0090
 7809TIP3   OH244917   6.111   2.783  13.435 -0.1371 -0.2978 -0.3842
 7809TIP3    H144918   6.054   2.832  13.496 -0.9504 -0.0075 -1.3627
 7809TIP3    H244919   6.186   2.841  13.422 -1.4338  1.0347 -2.1025
 7810TIP3   OH244920   5.347   5.614  12.112  0.4553  0.1004  0.1582
 7810TIP3    H144921   5.314   5.658  12.190 -1.9474  0.0219 -0.7780
 7810TIP3    H244922   5.282   5.632  12.045  0.9877 -2.2758 -1.0554
 7811TIP3   OH244923   4.595   5.724  13.181  0.0516  0.0670  0.4225
 7811TIP3    H144924   4.612   5.635  13.212  3.2043 -0.2534 -1.9671
 7811TIP3    H244925   4.524   5.715  13.117 -0.4664 -0.5369  1.0786
 7812TIP3   OH244926   3.509   0.086  12.373  0.5704 -0.3223 -0.2516
 7812TIP3    H144927   3.562   0.154  12.332  1.8292 -1.0178  0.1920
 7812TIP3    H244928   3.562   0.056  12.447  0.0163 -1.7756 -0.4302
 7813TIP3   OH244929   3.391   4.920  11.392 -0.0350 -0.7372 -0.1116
 7813TIP3    H144930   3.400   4.925  11.487 -3.0044 -0.6045  0.2048
 7813TIP3    H244931   3.353   4.834  11.375  1.4634 -1.1933 -1.2959
 7814TIP3   OH244932   6.666   1.349   1.033  0.1302 -0.2331  0.6011
 7814TIP3    H144933   6.608   1.275   1.050 -0.3121  0.2052  1.0351
 7814TIP3    H244934   6.632   1.419   1.089  0.1734  0.4834 -0.2658
 7815TIP3   OH244935   4.564   3.825  12.832  0.1214  0.6352  0.0738
 7815TIP3    H144936   4.537   3.744  12.875 -0.9243  0.8062 -0.2413
 7815TIP3    H244937   4.650   3.806  12.795 -0.0099 -0.2432  0.2251
 7816TIP3   OH244938   3.342   4.289  13.556 -0.1094  0.1854 -0.1268
 7816TIP3    H144939   3.254   4.313  13.529  0.4527  0.8629 -1.4042
 7816TIP3    H244940   3.391   4.281  13.474  1.1274  0.2508  0.5866
 7817TIP3   OH244941   7.225   4.302  13.716  0.6536  0.6182 -0.4481
 7817TIP3    H144942   7.180   4.329  13.635 -0.8545 -1.3928 -0.3199
 7817TIP3    H244943   7.288   4.236  13.687  1.5358  1.3563 -0.2330
 7818TIP3   OH244944   4.505   2.725  15.999  0.0188 -0.5661 -0.6395
 7818TIP3    H144945   4.519   2.818  15.979  0.3012 -0.5128 -0.1961
 7818TIP3    H244946   4.467   2.724  16.086 -0.5325 -0.8414 -0.8788
 7819TIP3   OH244947   4.101   4.282  12.396  0.0334 -0.2411 -0.0742
 7819TIP3    H144948   4.035   4.215  12.411  0.2062  0.1433  2.6669
 7819TIP3    H244949   4.118   4.320  12.482  0.3396  2.9460 -1.4312
 7820TIP3   OH244950   4.930   4.368  13.710  0.2600 -0.2405 -0.3186
 7820TIP3    H144951   4.933   4.425  13.634  0.1083  1.1269  0.6778
 7820TIP3    H244952   5.011   4.388  13.757 -0.9703  0.9966  1.3316
 7821TIP3   OH244953   4.593   4.733  12.977  0.0292 -0.0544 -0.1327
 7821TIP3    H144954   4.524   4.671  12.999 -1.7352  1.4399 -1.2879
 7821TIP3    H244955   4.577   4.755  12.885  3.0298 -0.8975 -0.9098
 7822TIP3   OH244956   6.575   2.704  13.884 -0.5427  0.3912  0.4936
 7822TIP3    H144957   6.573   2.697  13.789 -0.9199 -0.9549  0.5777
 7822TIP3    H244958   6.631   2.631  13.912  1.2233  1.9973  1.2153
 7823TIP3   OH244959   4.978   5.128  13.847  0.5376 -0.1157 -0.3547
 7823TIP3    H144960   5.063   5.115  13.805  0.3860 -0.0184 -0.6923
 7823TIP3    H244961   4.919   5.152  13.776  0.1396 -0.5619 -0.1756
 7824TIP3   OH244962   3.505   2.795  14.505 -0.1010 -0.2289  0.0331
 7824TIP3    H144963   3.459   2.879  14.508 -0.2166 -0.2175 -1.5543
 7824TIP3    H244964   3.497   2.760  14.593 -0.2865  1.3067  0.6426
 7825TIP3   OH244965   4.960   4.285  13.146 -0.3074 -0.1532 -0.1131
 7825TIP3    H144966   4.969   4.231  13.068 -0.3666 -1.4080  0.7292
 7825TIP3    H244967   4.931   4.370  13.114 -1.3785 -0.9783 -1.3559
 7826TIP3   OH244968   4.097   4.167  15.716 -0.0907  0.0636  0.9151
 7826TIP3    H144969   4.079   4.212  15.633  0.9802  1.1064  1.2364
 7826TIP3    H244970   4.122   4.079  15.690 -0.8770  0.0427  0.1955
 7827TIP3   OH244971   3.067   1.289  13.845 -0.0112  0.2931 -0.4391
 7827TIP3    H144972   2.986   1.239  13.839 -0.3581  0.7177  0.5752
 7827TIP3    H244973   3.059   1.337  13.928  2.2091 -1.3080  0.7506
 7828TIP3   OH244974   3.486   3.633   0.080  0.4778 -0.4418  0.5952
 7828TIP3    H144975   3.523   3.644   0.168  3.2578  0.0334 -0.5576
 7828TIP3    H244976   3.524   3.551   0.048  0.6059  0.0895 -0.6530
 7829TIP3   OH244977   3.764   4.033  13.662  0.1727 -0.0805  0.7507
 7829TIP3    H144978   3.806   4.116  13.638 -0.9757 -0.1899 -1.7589
 7829TIP3    H244979   3.674   4.058  13.683 -0.2810 -0.7217 -0.3921
 7830TIP3   OH244980   5.214   2.114  13.514  0.5920  0.5240  0.0374
 7830TIP3    H144981   5.278   2.081  13.450  1.7735  0.5853  1.1583
 7830TIP3    H244982   5.161   2.037  13.537  0.2027  0.4903 -0.9630
 7831TIP3   OH244983   4.529   3.189  14.538  0.4558 -0.1038 -0.2287
 7831TIP3    H144984   4.487   3.213  14.456 -1.9209  2.4642  1.6384
 7831TIP3    H244985   4.569   3.104  14.521 -0.1335  0.2789 -3.9435
 7832TIP3   OH244986   5.002   4.096  15.984  0.3652 -0.0751 -0.3798
 7832TIP3    H144987   4.937   4.028  16.001  0.7209 -0.0167  1.3389
 7832TIP3    H244988   5.076   4.048  15.946  0.8034 -0.7618  1.2638
 7833TIP3   OH244989   5.079   7.314  15.012  0.2487 -0.2573  0.5027
 7833TIP3    H144990   5.008   7.269  15.059  0.9784 -0.3577  1.5476
 7833TIP3    H244991   5.035   7.367  14.946 -0.9017  0.9952  2.2381
 7834TIP3   OH244992   3.850   3.602   0.264  0.5451  0.3193 -0.0396
 7834TIP3    H144993   3.803   3.519   0.254  0.8545  0.1322  0.0404
 7834TIP3    H244994   3.806   3.646   0.337  1.4079 -0.4950  0.9833
 7835TIP3   OH244995   6.910   0.745  13.523 -0.4080  0.3376  0.7700
 7835TIP3    H144996   6.857   0.760  13.445 -3.1333 -0.4711  2.4268
 7835TIP3    H244997   6.961   0.667  13.503  1.7146  2.2177 -1.5767
 7836TIP3   OH244998   0.025   3.363  13.428 -0.1980  0.0287  0.4375
 7836TIP3    H144999   0.057   3.449  13.454 -0.5139  0.1976  0.2732
 7836TIP3    H245000  -0.004   3.375  13.337  1.4066 -0.6849 -0.1884
 7837TIP3   OH245001   4.346   4.461  12.851  0.7695 -0.1206 -0.1070
 7837TIP3    H145002   4.326   4.553  12.832  0.9179 -0.3276 -1.3050
 7837TIP3    H245003   4.389   4.463  12.937  1.1915  0.9699 -0.3382
 7838TIP3   OH245004   5.986   1.271  12.162  0.2443  0.2136  0.0725
 7838TIP3    H145005   5.952   1.181  12.162  0.1516  0.2480  0.0741
 7838TIP3    H245006   5.909   1.325  12.144  0.1267  0.3586  0.9673
 7839TIP3   OH245007   4.204   2.859  15.707 -0.2293 -0.1633  0.5329
 7839TIP3    H145008   4.265   2.883  15.638 -2.0978 -1.2794 -1.5735
 7839TIP3    H245009   4.122   2.903  15.684 -0.7224 -0.0785  2.3592
 7840TIP3   OH245010   2.940   1.987  13.320  0.7749 -0.1997 -0.3326
 7840TIP3    H145011   2.874   1.931  13.360 -0.0488  0.0573 -1.3123
 7840TIP3    H245012   2.976   2.038  13.393 -0.3202 -0.1284  0.1562
 7841TIP3   OH245013   4.934   5.489  13.675  0.0844  0.7027 -0.1355
 7841TIP3    H145014   4.842   5.472  13.698  0.0431  0.3969 -0.5250
 7841TIP3    H245015   4.975   5.403  13.678  0.3789  0.8508  0.1096
 7842TIP3   OH245016   3.754   1.577  15.843 -0.1029  0.0883 -0.4547
 7842TIP3    H145017   3.663   1.564  15.867 -0.3961  0.0325 -1.5882
 7842TIP3    H245018   3.766   1.672  15.844  0.4968  0.0390  2.0885
 7843TIP3   OH245019   6.222   3.886  14.942  0.8457  0.1499 -0.2791
 7843TIP3    H145020   6.262   3.967  14.973 -1.3237  1.1973 -0.1386
 7843TIP3    H245021   6.236   3.888  14.847  2.7630 -0.4324 -0.0325
 7844TIP3   OH245022   6.504   4.014  14.256 -0.0421  0.7997 -0.2722
 7844TIP3    H145023   6.522   4.061  14.337 -0.0283  0.0279  0.1735
 7844TIP3    H245024   6.562   4.055  14.191  0.9871  0.4742  0.4239
 7845TIP3   OH245025   5.344   3.636  11.851 -0.3408  0.4441  0.0482
 7845TIP3    H145026   5.287   3.595  11.786  0.0178  1.2469 -0.7709
 7845TIP3    H245027   5.284   3.679  11.912 -0.7838 -2.0187  1.4575
 7846TIP3   OH245028   5.329   3.357   1.364  0.5920 -0.0040  0.2339
 7846TIP3    H145029   5.239   3.354   1.398  0.7579  0.3442  0.6953
 7846TIP3    H245030   5.333   3.439   1.314  0.9334  0.4350  0.9808
 7847TIP3   OH245031   6.742   2.489  13.981 -0.1064  0.2650 -0.0160
 7847TIP3    H145032   6.826   2.526  13.954 -1.3107  2.7972 -0.4673
 7847TIP3    H245033   6.725   2.529  14.066 -1.2907  0.5488 -0.3740
 7848TIP3   OH245034   3.564   4.313   0.275  0.5345  0.1116 -0.1944
 7848TIP3    H145035   3.616   4.297   0.354 -0.3641 -0.8750  0.2268
 7848TIP3    H245036   3.473   4.304   0.305  0.2258 -2.0806 -1.6990
 7849TIP3   OH245037   4.766   4.987  11.261 -0.4138 -0.2753  0.5045
 7849TIP3    H145038   4.750   5.058  11.198 -0.2636 -2.0409 -1.5811
 7849TIP3    H245039   4.679   4.969  11.298 -0.3608  1.3484  1.4559
 7850TIP3   OH245040   3.891   4.452  15.357 -0.0104 -0.1404 -0.3041
 7850TIP3    H145041   3.869   4.507  15.432 -0.6446 -0.4861 -0.2286
 7850TIP3    H245042   3.987   4.445  15.359 -0.0157 -0.0981  0.4395
 7851TIP3   OH245043   4.436   4.315  12.362 -0.0700  0.5721  0.0406
 7851TIP3    H145044   4.368   4.256  12.395 -0.2651 -0.1470 -1.5946
 7851TIP3    H245045   4.398   4.402  12.371 -0.3706  0.3501  1.0722
 7852TIP3   OH245046   2.837   3.275  14.675  0.7026  0.0163  0.1120
 7852TIP3    H145047   2.810   3.236  14.592 -1.3909 -0.2899  0.9127
 7852TIP3    H245048   2.856   3.200  14.732 -0.6014  0.1796  0.7757
 7853TIP3   OH245049   5.384   4.189  14.235  0.0444  0.1520 -0.2508
 7853TIP3    H145050   5.451   4.124  14.211  0.7527  1.2124 -1.2058
 7853TIP3    H245051   5.304   4.138  14.247  0.8690 -1.0461  0.1911
 7854TIP3   OH245052   5.457   2.789  14.726 -0.1018  0.0906  0.0865
 7854TIP3    H145053   5.416   2.868  14.760 -0.3572 -0.4300  1.0021
 7854TIP3    H245054   5.385   2.739  14.687 -0.3321 -0.7372  1.5302
 7855TIP3   OH245055   4.321   1.833  14.354  0.4569  0.0907  0.1815
 7855TIP3    H145056   4.237   1.875  14.337  0.3876  0.8135  2.1896
 7855TIP3    H245057   4.335   1.844  14.448  0.1873 -4.8324  0.9646
 7856TIP3   OH245058   5.802   2.180  14.531 -0.3749  0.0553 -0.0007
 7856TIP3    H145059   5.739   2.224  14.588 -0.9227  0.9900 -1.3134
 7856TIP3    H245060   5.875   2.242  14.525 -0.0706 -0.2873  0.1185
 7857TIP3   OH245061   5.048   4.113  11.874  0.5123 -0.0504  0.4666
 7857TIP3    H145062   5.012   4.187  11.923 -0.6643  0.1693 -0.7061
 7857TIP3    H245063   5.095   4.062  11.940  0.8148  1.3971  1.4094
 7858TIP3   OH245064   3.779   3.755  15.191  0.4579  0.3781 -0.1883
 7858TIP3    H145065   3.716   3.822  15.163  2.2853  2.4762  0.5542
 7858TIP3    H245066   3.821   3.726  15.110 -0.9223 -0.5082 -0.6077
 7859TIP3   OH245067   5.055   2.303  14.830 -0.1659 -0.4362 -0.4614
 7859TIP3    H145068   5.087   2.263  14.911 -0.2602  1.5138  0.5840
 7859TIP3    H245069   4.996   2.238  14.792 -0.9235 -0.9859  1.5881
 7860TIP3   OH245070   4.331   5.662  12.640  0.2210 -0.0256  0.0427
 7860TIP3    H145071   4.348   5.686  12.549  0.8530 -0.2468  0.1013
 7860TIP3    H245072   4.329   5.567  12.640  0.9292 -0.0381  0.3914
 7861TIP3   OH245073   4.018   2.135  13.914  0.3772 -0.0522  0.1434
 7861TIP3    H145074   4.104   2.133  13.873 -0.3063 -0.9398 -1.2882
 7861TIP3    H245075   3.965   2.073  13.863 -2.1238  3.1299 -1.2930
 7862TIP3   OH245076   4.459   0.833   0.022 -0.3282 -0.7043 -0.2669
 7862TIP3    H145077   4.389   0.816   0.086 -0.5679  2.5223  0.4347
 7862TIP3    H245078   4.532   0.866   0.075 -0.8195  2.8005 -1.6555
 7863TIP3   OH245079   2.871   3.524  14.528 -0.6986  0.6776  0.1723
 7863TIP3    H145080   2.899   3.562  14.611 -1.6989 -0.0091  0.8318
 7863TIP3    H245081   2.898   3.432  14.533 -0.7294  0.6419 -0.2734
 7864TIP3   OH245082   5.285   4.913  13.441  0.2800 -0.5440  0.5849
 7864TIP3    H145083   5.380   4.914  13.448  0.2612 -0.1420  0.7992
 7864TIP3    H245084   5.264   4.828  13.401  0.7841 -0.2138 -0.3777
 7865TIP3   OH245085   4.821   4.146  15.507 -0.6729  0.1295 -0.0476
 7865TIP3    H145086   4.907   4.187  15.498 -1.4752  1.6294 -1.1234
 7865TIP3    H245087   4.834   4.077  15.572  0.9943  1.3104  0.9173
 7866TIP3   OH245088   5.730   4.373  15.288  0.0451 -0.0353  0.0559
 7866TIP3    H145089   5.681   4.454  15.306 -0.2960 -0.6105  1.7622
 7866TIP3    H245090   5.665   4.315  15.247  0.1623  0.3580 -0.7051
 7867TIP3   OH245091   3.117   4.799  14.204 -0.6667 -0.0200 -0.3478
 7867TIP3    H145092   3.056   4.725  14.199  1.0950 -1.4639 -1.4947
 7867TIP3    H245093   3.201   4.758  14.224  0.5556  1.5715 -2.1336
 7868TIP3   OH245094   5.094   3.707  13.784 -0.4712 -0.0335 -0.4714
 7868TIP3    H145095   5.077   3.712  13.690  0.0530  0.3433 -0.5504
 7868TIP3    H245096   5.167   3.646  13.792  1.9877  2.7820 -0.6483
 7869TIP3   OH245097   2.693   3.840   0.933 -0.4517 -0.2279  0.5851
 7869TIP3    H145098   2.765   3.805   0.880 -0.5095  0.0609  0.3186
 7869TIP3    H245099   2.736   3.869   1.014 -0.4019 -0.8976  0.8019
 7870TIP3   OH245100   6.182   3.106  14.751 -0.1755 -0.8961  0.3300
 7870TIP3    H145101   6.259   3.059  14.784 -0.0305 -0.9045 -0.0237
 7870TIP3    H245102   6.181   3.187  14.801 -0.9642 -1.6768  1.6191
 7871TIP3   OH245103   6.152   0.621  10.668 -0.1754 -0.0180 -0.1866
 7871TIP3    H145104   6.195   0.539  10.646 -1.7280 -0.7792 -0.4432
 7871TIP3    H245105   6.198   0.653  10.746  0.4960 -1.0781 -0.1487
 7872TIP3   OH245106   5.950   5.970  15.368 -0.5092  0.8243 -0.0945
 7872TIP3    H145107   5.974   6.063  15.376 -2.5543  1.4125 -0.4144
 7872TIP3    H245108   5.974   5.932  15.452  0.5457  1.6030 -0.0358
 7873TIP3   OH245109   4.164   3.627  13.829 -0.4831 -0.0563  0.1817
 7873TIP3    H145110   4.156   3.553  13.769 -0.0074 -0.8669  1.0912
 7873TIP3    H245111   4.118   3.699  13.785  0.0763 -0.5552 -1.2528
 7874TIP3   OH245112   2.403   4.186  15.810 -0.1311 -0.0647  0.0737
 7874TIP3    H145113   2.433   4.249  15.745 -1.6879  0.9743  0.3270
 7874TIP3    H245114   2.327   4.145  15.770 -1.0240  0.4894  1.1664
 7875TIP3   OH245115   5.866   3.151  13.976 -0.1436  0.1861  0.1471
 7875TIP3    H145116   5.928   3.187  13.912  0.8911 -2.7304 -0.5690
 7875TIP3    H245117   5.913   3.155  14.059  0.7419 -1.3494 -0.2720
 7876TIP3   OH245118   5.009   3.632  14.045  0.0771  0.0760  0.3052
 7876TIP3    H145119   5.060   3.637  13.964  1.0804 -1.3101  0.8165
 7876TIP3    H245120   5.046   3.701  14.100  1.5568 -1.0310  0.7366
 7877TIP3   OH245121   6.213   4.949  12.157  0.0307  0.2830  0.0985
 7877TIP3    H145122   6.293   4.964  12.107  0.0815 -0.7708 -0.1587
 7877TIP3    H245123   6.142   4.981  12.101  0.0312 -1.4795 -0.9333
 7878TIP3   OH245124   5.922   2.187  15.955 -0.2212  0.7148  0.2190
 7878TIP3    H145125   5.904   2.147  16.040 -0.0321 -1.2777 -0.6277
 7878TIP3    H245126   5.994   2.248  15.971  0.1974 -0.0669  1.3864
 7879TIP3   OH245127   4.678   4.150  13.266 -0.1188 -0.3044 -0.6508
 7879TIP3    H145128   4.701   4.198  13.345 -0.3919 -1.4775  0.1568
 7879TIP3    H245129   4.589   4.118  13.283  0.4421 -1.9526 -0.7343
 7880TIP3   OH245130   4.472   4.305  14.426  0.4145 -0.8037 -0.3171
 7880TIP3    H145131   4.567   4.312  14.436  0.5535 -1.1056 -1.3684
 7880TIP3    H245132   4.458   4.214  14.400  0.0600 -0.0883 -2.6528
 7881TIP3   OH245133   4.917   2.484   1.021  0.0369 -0.2187  0.3787
 7881TIP3    H145134   4.890   2.462   1.110 -1.0536  0.1574  0.1519
 7881TIP3    H245135   4.963   2.568   1.030 -1.5019  0.6515  0.3908
 7882TIP3   OH245136   4.713   4.237  10.221 -0.1471  0.2283 -0.7363
 7882TIP3    H145137   4.712   4.329  10.195 -1.5139  0.9341  1.6478
 7882TIP3    H245138   4.783   4.231  10.286 -0.2915 -0.3539 -0.6325
 7883TIP3   OH245139   3.998   3.110  13.338  0.0389  0.3026 -0.4132
 7883TIP3    H145140   3.937   3.040  13.313  0.8649 -0.5009 -0.2227
 7883TIP3    H245141   3.950   3.161  13.404  0.1732 -1.3288  0.9815
 7884TIP3   OH245142   4.996   4.659  12.504  0.3920  0.0572 -0.2724
 7884TIP3    H145143   4.908   4.694  12.519 -0.2006 -0.4933 -2.2787
 7884TIP3    H245144   5.030   4.712  12.431  2.3563  1.3283  1.5112
 7885TIP3   OH245145   5.236   4.010  15.869 -0.1896  0.7693 -0.0451
 7885TIP3    H145146   5.311   4.033  15.815 -0.4344 -1.4489 -1.3793
 7885TIP3    H245147   5.273   3.979  15.951  0.3423  0.1858 -0.5053
 7886TIP3   OH245148   4.764   2.257  14.779 -0.2760 -0.3034  0.2016
 7886TIP3    H145149   4.739   2.206  14.857 -0.6382 -0.0265  0.2675
 7886TIP3    H245150   4.765   2.348  14.810 -2.5659  0.0340 -0.6493
 7887TIP3   OH245151   4.123   1.638   0.058 -0.0343 -0.0277  0.1713
 7887TIP3    H145152   4.209   1.671   0.029  0.4336 -1.7929 -0.5436
 7887TIP3    H245153   4.066   1.715   0.055  1.3843  1.0615  0.1147
 7888TIP3   OH245154   5.104   1.964  14.621 -0.0229 -0.6211 -0.0656
 7888TIP3    H145155   5.104   1.909  14.699  2.6784 -1.2184 -0.4469
 7888TIP3    H245156   5.080   1.905  14.550  1.1191 -0.9061 -0.2154
 7889TIP3   OH245157   4.850   2.106  15.011  0.5979 -0.2636 -0.2637
 7889TIP3    H145158   4.820   2.063  15.091  1.0393 -1.2873 -0.6455
 7889TIP3    H245159   4.886   2.035  14.958  0.2249  0.3906 -1.4071
 7890TIP3   OH245160   5.578   4.325  15.607  0.4259  0.7476  0.1267
 7890TIP3    H145161   5.644   4.278  15.556  0.2223  0.5170  0.0724
 7890TIP3    H245162   5.550   4.396  15.550 -0.3512  0.0386 -0.3963
 7891TIP3   OH245163   5.299   2.447   0.012 -0.4327  0.3604  0.2939
 7891TIP3    H145164   5.383   2.443  -0.034  0.5132  2.6359  1.7324
 7891TIP3    H245165   5.234   2.459  -0.056  0.7259  1.6025 -0.6147
 7892TIP3   OH245166   4.191   0.716   1.361  0.3712 -0.0926 -0.0277
 7892TIP3    H145167   4.138   0.675   1.292 -1.4947  1.8248  0.2208
 7892TIP3    H245168   4.191   0.652   1.432 -0.8210 -0.5102 -0.3930
 7893TIP3   OH245169   4.763   2.662   1.395 -0.1964  0.3697 -0.0311
 7893TIP3    H145170   4.813   2.734   1.434 -0.5811  0.2217  0.7533
 7893TIP3    H245171   4.674   2.674   1.429 -0.5323  0.2025 -0.8263
 7894TIP3   OH245172   5.443   1.855  15.612 -0.0362  0.3516  0.0368
 7894TIP3    H145173   5.394   1.893  15.539 -0.3355 -0.8929 -0.4377
 7894TIP3    H245174   5.533   1.853  15.583 -0.2329 -0.6324 -0.5247
 7895TIP3   OH245175   3.798   0.161   1.235 -0.6463 -0.5093  0.5471
 7895TIP3    H145176   3.797   0.069   1.209  1.4781 -0.8945  1.7060
 7895TIP3    H245177   3.844   0.162   1.319 -1.4120  1.5121  0.9758
 7896TIP3   OH245178   3.494   1.047  14.166  0.3927 -0.1851  0.5408
 7896TIP3    H145179   3.427   1.095  14.117  0.5238 -0.8886 -0.3371
 7896TIP3    H245180   3.457   0.959  14.176  1.1899 -0.5801  0.0420
 7897TIP3   OH245181   6.392   1.771  14.521 -0.2913 -0.3414 -0.4249
 7897TIP3    H145182   6.367   1.838  14.457 -2.8541 -2.0701 -1.3318
 7897TIP3    H245183   6.487   1.765  14.514 -0.2514  1.6571 -1.9078
 7898TIP3   OH245184   4.801   4.762  13.513 -0.1339 -0.3499  0.2159
 7898TIP3    H145185   4.839   4.736  13.598  2.1662  2.5413  0.1575
 7898TIP3    H245186   4.832   4.695  13.452 -0.5483 -1.6238  1.3763
 7899TIP3   OH245187   5.003   3.619  11.343 -0.2240 -0.0367 -0.2437
 7899TIP3    H145188   4.909   3.629  11.327 -0.2261  0.5231  0.1207
 7899TIP3    H245189   5.044   3.686  11.289  0.0399 -0.9983 -1.2545
 7900TIP3   OH245190   3.921   6.541  12.563  0.1255 -0.7942 -0.1267
 7900TIP3    H145191   3.867   6.537  12.643  1.3486 -2.4554  0.6490
 7900TIP3    H245192   3.891   6.467  12.511  0.5642 -0.7737 -0.4061
 7901TIP3   OH245193   5.474   6.239  11.904  0.1032 -0.0944 -0.1460
 7901TIP3    H145194   5.400   6.202  11.953  0.6265 -0.4675  0.3652
 7901TIP3    H245195   5.435   6.310  11.853 -0.2164  1.1515  1.8113
 7902TIP3   OH245196   3.710   2.524  14.983  0.3796 -0.3966  0.0684
 7902TIP3    H145197   3.763   2.604  14.978 -2.4101  1.6170  1.2315
 7902TIP3    H245198   3.753   2.471  15.050  2.1652  0.1956 -0.5713
 7903TIP3   OH245199   6.039   2.324  14.519 -0.1972  0.0817 -0.6435
 7903TIP3    H145200   6.071   2.410  14.545  1.8464 -0.8497  0.0343
 7903TIP3    H245201   6.108   2.289  14.461 -0.2767 -1.6813  0.2878
 7904TIP3   OH245202   3.663   1.950   1.068  0.3240  0.1712 -0.3256
 7904TIP3    H145203   3.706   1.984   1.147  0.3507 -2.2154  0.7516
 7904TIP3    H245204   3.571   1.970   1.080 -0.0446 -2.4176  1.5949
 7905TIP3   OH245205   5.066   3.911  11.415  0.1443 -0.1511  0.0798
 7905TIP3    H145206   5.072   3.861  11.334  3.4886 -0.5300  0.4741
 7905TIP3    H245207   5.071   4.003  11.388 -1.3261 -0.1665 -0.2946
 7906TIP3   OH245208   5.805   4.200  15.503  0.2480 -0.1798  0.2507
 7906TIP3    H145209   5.812   4.287  15.464 -0.9881 -0.8308 -1.4885
 7906TIP3    H245210   5.885   4.191  15.555  1.5596  1.0369 -1.4903
 7907TIP3   OH245211   3.855   1.239  13.728  0.3188  0.0269 -0.4641
 7907TIP3    H145212   3.829   1.165  13.674 -2.1622  1.2072 -1.0046
 7907TIP3    H245213   3.812   1.224  13.812  1.8246 -0.3694  0.2453
 7908TIP3   OH245214   0.205   1.743  14.332 -0.4290 -0.1141  0.0418
 7908TIP3    H145215   0.195   1.663  14.280 -0.1794  0.2282 -0.5367
 7908TIP3    H245216   0.267   1.719  14.401 -1.7350 -0.9424  0.9581
 7909TIP3   OH245217   5.919   2.598  15.648 -0.8524  0.0273  0.3712
 7909TIP3    H145218   5.907   2.628  15.558  0.2712  0.1854  0.2767
 7909TIP3    H245219   5.831   2.569  15.675 -1.3994  0.8999 -0.4312
 7910TIP3   OH245220   4.473   1.555  12.275  0.2228  0.1996  0.1389
 7910TIP3    H145221   4.511   1.510  12.200 -1.5563 -1.3775  0.1306
 7910TIP3    H245222   4.466   1.488  12.342 -2.1477  0.5223  0.2578
 7911TIP3   OH245223   6.324   1.982  13.639  0.0594 -0.4914 -0.2128
 7911TIP3    H145224   6.322   1.911  13.704 -1.0210  0.7676  1.1552
 7911TIP3    H245225   6.390   2.043  13.672  1.4094 -1.1202 -1.6949
 7912TIP3   OH245226   4.176   4.460  15.338  0.7276  0.0640  0.3000
 7912TIP3    H145227   4.198   4.432  15.249 -0.0395  1.5565 -0.3848
 7912TIP3    H245228   4.234   4.409  15.394  1.2971 -0.8275 -1.0584
 7913TIP3   OH245229   6.076   2.906  14.142  0.2022 -0.8849  0.2129
 7913TIP3    H145230   6.040   2.988  14.177  0.4298 -2.2103  3.7698
 7913TIP3    H245231   6.145   2.882  14.203 -0.0505 -3.8892 -0.6118
 7914TIP3   OH245232   5.699   0.594  13.363 -0.1956  0.2186 -0.4313
 7914TIP3    H145233   5.686   0.509  13.407 -0.7148  1.0051  0.9658
 7914TIP3    H245234   5.794   0.601  13.354 -0.1738 -0.7536 -1.0361
 7915TIP3   OH245235   4.733   6.941  14.948  0.0468 -0.3288 -0.4675
 7915TIP3    H145236   4.829   6.945  14.945  0.0420  1.1128  0.6886
 7915TIP3    H245237   4.714   6.854  14.983  0.9757 -0.1739  0.4541
 7916TIP3   OH245238   7.231   1.853   0.328  0.1466 -0.0764  0.0717
 7916TIP3    H145239   7.287   1.865   0.250  0.8153 -0.2889  0.5165
 7916TIP3    H245240   7.147   1.825   0.292  0.8186 -1.4151 -0.5088
 7917TIP3   OH245241   5.099   3.734   0.773  0.3663  0.2980  0.5909
 7917TIP3    H145242   5.072   3.646   0.744  0.4492  0.3710  0.2933
 7917TIP3    H245243   5.017   3.784   0.774  0.7502  1.0691 -2.2302
 7918TIP3   OH245244   4.297   1.979  14.784 -0.0078  0.0888 -0.2356
 7918TIP3    H145245   4.331   1.904  14.736 -1.1104 -0.1911 -0.6045
 7918TIP3    H245246   4.213   1.998  14.742 -0.8717  0.0018  1.4164
 7919TIP3   OH245247   6.311   3.051  15.434  0.1956 -0.2455 -0.5832
 7919TIP3    H145248   6.329   3.032  15.526 -0.9661 -0.1083 -0.3130
 7919TIP3    H245249   6.243   3.119  15.437 -0.2251 -0.6202 -1.5375
 7920TIP3   OH245250   4.861   2.434   1.285 -0.6582 -0.0766  0.6311
 7920TIP3    H145251   4.827   2.515   1.323  0.5977  1.2596 -1.0204
 7920TIP3    H245252   4.940   2.415   1.336  0.0964  0.7960 -0.1932
 7921TIP3   OH245253   4.745   1.937  13.783 -0.0349  0.5098 -0.6612
 7921TIP3    H145254   4.815   1.950  13.719  1.9120 -1.1153  1.0844
 7921TIP3    H245255   4.774   1.986  13.861 -0.5450 -0.6649  0.2845
 7922TIP3   OH245256   2.701   2.051   0.280  0.5256  0.7259 -0.3779
 7922TIP3    H145257   2.610   2.058   0.308  0.5529 -0.3086 -0.0192
 7922TIP3    H245258   2.696   2.039   0.185  0.3709  2.5003 -0.6135
 7923TIP3   OH245259   4.225   4.509  15.682 -0.3681 -0.3244 -0.2805
 7923TIP3    H145260   4.210   4.441  15.616  0.3381  0.4363 -1.2405
 7923TIP3    H245261   4.142   4.557  15.687 -0.8166 -1.1531  0.2851
 7924TIP3   OH245262   5.195   3.561   2.033  0.2409  0.1921  0.4987
 7924TIP3    H145263   5.115   3.580   2.082  0.2111  1.1662  0.0833
 7924TIP3    H245264   5.254   3.522   2.098 -0.2307  0.3677  1.0332
 7925TIP3   OH245265   4.049   1.357  12.751 -0.0359  0.0336  0.0467
 7925TIP3    H145266   4.093   1.324  12.830  0.8468 -0.9738 -0.8363
 7925TIP3    H245267   4.102   1.432  12.725  1.4682 -1.4248 -1.2479
 7926TIP3   OH245268   4.898   4.366  14.731 -0.1760 -0.7481  0.3937
 7926TIP3    H145269   4.982   4.408  14.749 -0.0045 -0.4590 -1.0318
 7926TIP3    H245270   4.845   4.435  14.691 -0.4588 -1.4082 -0.3980
 7927TIP3   OH245271   5.471   2.836  14.053 -0.3719  0.3169 -0.1587
 7927TIP3    H145272   5.535   2.803  13.991 -0.3141  2.5068 -1.3109
 7927TIP3    H245273   5.523   2.863  14.129 -0.3393 -1.3663  0.4387
 7928TIP3   OH245274   3.365   2.110   0.314  0.0887 -0.4688  0.1201
 7928TIP3    H145275   3.397   2.135   0.401  0.2960  0.6482 -0.2723
 7928TIP3    H245276   3.286   2.162   0.302  0.2029 -0.4270 -0.4701
 7929TIP3   OH245277   2.668   1.444  14.174  0.2136 -0.1946 -0.5504
 7929TIP3    H145278   2.716   1.435  14.257  1.6435  0.6816 -1.2542
 7929TIP3    H245279   2.716   1.389  14.112 -0.4765 -0.3514 -0.9498
 7930TIP3   OH245280   4.035   2.621  15.678 -0.1845  0.4215  0.2518
 7930TIP3    H145281   4.057   2.602  15.586 -1.2252 -0.4544  0.1701
 7930TIP3    H245282   4.120   2.635  15.720  0.5980 -3.0522 -0.0175
 7931TIP3   OH245283   4.692   2.360  14.443  0.5955 -0.0589 -0.1728
 7931TIP3    H145284   4.713   2.280  14.393 -0.2197 -0.4610  0.1303
 7931TIP3    H245285   4.746   2.428  14.402 -1.8525  0.1547 -3.2072
 7932TIP3   OH245286   3.855   3.783  12.506 -0.2725 -0.1757 -0.1137
 7932TIP3    H145287   3.794   3.790  12.579  0.2911 -0.9171  0.4356
 7932TIP3    H245288   3.823   3.709  12.454  0.1103 -0.5264  0.1417
 7933TIP3   OH245289   5.252   6.872  14.759 -0.3142  0.1202  0.0712
 7933TIP3    H145290   5.277   6.947  14.704 -0.6288 -0.9821 -1.5939
 7933TIP3    H245291   5.318   6.872  14.829  1.0766  0.5713 -1.2035
 7934TIP3   OH245292   4.612   4.530  13.287 -0.3303  0.2959 -0.4027
 7934TIP3    H145293   4.552   4.483  13.344  0.9223 -1.3471 -0.3743
 7934TIP3    H245294   4.699   4.504  13.318  0.4266 -2.5466 -4.4964
 7935TIP3   OH245295   5.861   4.475  14.491  1.0224 -0.4989  0.1220
 7935TIP3    H145296   5.831   4.542  14.429  0.3179  0.6315  1.6694
 7935TIP3    H245297   5.956   4.482  14.489  1.0688 -1.2963 -1.7245
 7936TIP3   OH245298   4.746   3.924  14.765 -0.0664  0.2032 -0.2007
 7936TIP3    H145299   4.831   3.934  14.721  0.5167  1.5462  1.1884
 7936TIP3    H245300   4.734   3.829  14.772  1.6408 -0.0051  0.1834
 7937TIP3   OH245301   6.869   3.507  15.332  0.2366 -0.4029 -0.2237
 7937TIP3    H145302   6.827   3.489  15.248  3.7812 -1.7966 -1.7831
 7937TIP3    H245303   6.864   3.424  15.380  1.0123 -0.5219 -0.3409
 7938TIP3   OH245304   6.607   2.009  15.847 -0.3550 -0.3678  0.3078
 7938TIP3    H145305   6.649   2.013  15.762 -0.1159 -2.6308  0.2804
 7938TIP3    H245306   6.672   2.043  15.908  0.8134 -2.0584  0.0283
 7939TIP3   OH245307   2.976   4.204  15.378 -0.0163 -0.0657 -0.1141
 7939TIP3    H145308   2.985   4.298  15.361  1.6239 -0.1796  0.0016
 7939TIP3    H245309   2.931   4.170  15.301 -2.6206  1.1451  0.8206
 7940TIP3   OH245310   4.551   5.600  15.845 -0.2654  0.4121 -0.3079
 7940TIP3    H145311   4.618   5.660  15.813  1.2200 -0.5932  0.8618
 7940TIP3    H245312   4.472   5.625  15.797  0.7480  2.1172 -1.1422
 7941TIP3   OH245313   4.060   2.331  11.328 -0.4073 -0.3486 -0.4340
 7941TIP3    H145314   4.113   2.346  11.250  0.8917 -1.0014  0.2965
 7941TIP3    H245315   3.970   2.330  11.297  0.0170  0.6486 -1.7253
 7942TIP3   OH245316   2.901   3.025  14.808  0.6640 -0.2227 -0.6143
 7942TIP3    H145317   2.859   2.947  14.769 -0.5643 -0.0591  0.3433
 7942TIP3    H245318   2.938   2.993  14.890  0.1879  0.1908 -0.2379
 7943TIP3   OH245319   4.465   2.213  13.910  0.1669  0.0820  0.1244
 7943TIP3    H145320   4.452   2.204  14.005 -0.3613 -0.3997  0.0078
 7943TIP3    H245321   4.503   2.300  13.900 -1.7492  1.0223  0.6171
 7944TIP3   OH245322   3.381   1.809  13.497  0.0186 -0.0937  0.3427
 7944TIP3    H145323   3.300   1.827  13.545  0.4384 -0.7641  1.3256
 7944TIP3    H245324   3.355   1.745  13.430 -0.7589  1.5308 -0.9564
 7945TIP3   OH245325   1.156   3.989  11.019 -0.1842  0.0014 -0.4806
 7945TIP3    H145326   1.062   4.001  11.030 -0.2863  0.2475 -1.5400
 7945TIP3    H245327   1.175   3.903  11.056 -1.1234 -0.8301 -1.9342
 7946TIP3   OH245328   3.070   5.015  14.352 -1.2429 -0.4216 -0.1798
 7946TIP3    H145329   3.089   4.952  14.282  1.6194 -0.0951  0.2453
 7946TIP3    H245330   3.125   4.986  14.425 -2.3866  0.6629  1.1114
 7947TIP3   OH245331   3.830   1.298  14.177 -0.1460  0.2556  0.5868
 7947TIP3    H145332   3.844   1.393  14.184 -0.0107  0.3144 -0.4031
 7947TIP3    H245333   3.755   1.280  14.234 -0.3047  0.9954  0.6110
 7948TIP3   OH245334   5.611   7.167  12.604 -0.3368  0.4573  0.1411
 7948TIP3    H145335   5.594   7.078  12.574  1.0442  0.1205  0.3083
 7948TIP3    H245336   5.569   7.223  12.539  0.7160 -0.2959 -1.2193
 7949TIP3   OH245337   4.218   0.588  14.142 -0.6069 -0.6832  0.6490
 7949TIP3    H145338   4.202   0.512  14.086 -0.1749  0.0191 -0.4339
 7949TIP3    H245339   4.175   0.660  14.097 -2.0868 -0.4939  2.2896
 7950TIP3   OH245340   4.548   2.100  13.520  0.2378 -0.0875 -0.5127
 7950TIP3    H145341   4.540   2.058  13.434  1.5707 -0.1462 -0.6076
 7950TIP3    H245342   4.573   2.029  13.579  1.7861  0.4114 -0.5438
 7951TIP3   OH245343   2.941   2.719  12.741  0.0301 -0.4696  0.2161
 7951TIP3    H145344   3.025   2.689  12.708  0.2222  0.3954 -0.1059
 7951TIP3    H245345   2.890   2.741  12.663  0.3833  1.3090  0.4471
 7952TIP3   OH245346   4.789   5.350  14.725 -0.3294 -0.2711 -0.0742
 7952TIP3    H145347   4.838   5.336  14.806 -0.0762 -2.4821 -0.5846
 7952TIP3    H245348   4.827   5.430  14.688 -0.0000  0.3851  1.6341
 7953TIP3   OH245349   5.356   4.476  14.207  0.0608  0.7209 -0.0675
 7953TIP3    H145350   5.375   4.383  14.211 -1.7153  0.3300  0.0182
 7953TIP3    H245351   5.432   4.519  14.246  1.2250 -0.6365 -0.8111
 7954TIP3   OH245352   5.359   3.102  13.397  0.5888 -0.3315  0.0529
 7954TIP3    H145353   5.335   3.011  13.382 -2.6556  0.6867 -1.2958
 7954TIP3    H245354   5.354   3.112  13.492 -3.1800 -0.5642 -0.0378
 7955TIP3   OH245355   4.043   0.187  14.701  0.0721  0.3741  0.3154
 7955TIP3    H145356   4.065   0.213  14.612 -0.4145  0.6518  0.2742
 7955TIP3    H245357   3.948   0.173  14.700  0.3972 -2.0359  0.1931
 7956TIP3   OH245358   3.636   1.685  13.900 -0.2053 -0.6164  0.2393
 7956TIP3    H145359   3.557   1.736  13.882 -0.6054 -1.4829 -0.5334
 7956TIP3    H245360   3.682   1.681  13.816  1.5877  1.3716  1.0764
 7957TIP3   OH245361   3.134   5.405  14.159 -0.1475  0.0872  0.3729
 7957TIP3    H145362   3.222   5.376  14.133  0.1956  0.7574  0.7744
 7957TIP3    H245363   3.129   5.496  14.130 -0.0829  0.5768  1.8598
 7958TIP3   OH245364   6.276   1.018   2.424  0.5356  0.2222 -0.1949
 7958TIP3    H145365   6.242   1.045   2.339  0.5171  0.5237 -0.0932
 7958TIP3    H245366   6.361   1.062   2.430  0.9237 -0.4882 -0.4302
 7959TIP3   OH245367   0.482   2.434  13.394 -0.6697  0.1089  0.2967
 7959TIP3    H145368   0.389   2.455  13.405 -0.8645 -1.2288  1.2455
 7959TIP3    H245369   0.528   2.495  13.452 -1.0864 -0.5648  1.3375
 7960TIP3   OH245370   1.249   2.967   0.976  0.4912 -0.0875  0.3553
 7960TIP3    H145371   1.186   3.039   0.985 -0.0538 -0.3043 -1.4270
 7960TIP3    H245372   1.202   2.900   0.927 -0.4455 -3.5011  5.4912
 7961TIP3   OH245373   7.283   1.096  11.173  0.1417 -0.2646 -0.4467
 7961TIP3    H145374   7.348   1.134  11.232 -1.8422  2.4026  0.0645
 7961TIP3    H245375   7.239   1.029  11.226 -0.5139  0.9793  0.5888
 7962TIP3   OH245376   6.921   2.283  14.735  0.0511 -0.3541 -0.4757
 7962TIP3    H145377   6.888   2.349  14.674  0.3818  1.4999  1.3019
 7962TIP3    H245378   6.845   2.260  14.788  0.0222 -1.1545 -0.8635
 7963TIP3   OH245379   6.877   2.481  15.600 -0.4642  0.3695  0.4123
 7963TIP3    H145380   6.805   2.430  15.562 -0.4253  0.8778 -0.3614
 7963TIP3    H245381   6.948   2.473  15.536  0.5907 -1.1086  1.7263
 7964TIP3   OH245382   1.242   1.706  13.944 -0.0862 -0.1474  0.2054
 7964TIP3    H145383   1.157   1.681  13.980 -0.8606  0.5678 -1.0874
 7964TIP3    H245384   1.275   1.775  14.002 -0.8735  0.3218  0.0927
 7965TIP3   OH245385   6.621   1.193  12.818  0.4469 -0.0022  0.1123
 7965TIP3    H145386   6.573   1.252  12.759  0.7087 -1.3627 -1.4902
 7965TIP3    H245387   6.683   1.250  12.863 -0.9904  1.3673  0.4223
 7966TIP3   OH245388   5.541   1.332  13.369 -0.2270  0.0083 -0.4040
 7966TIP3    H145389   5.551   1.319  13.274 -0.9667 -0.5186 -0.4126
 7966TIP3    H245390   5.556   1.425  13.382  0.7017 -0.0576 -0.9296
 7967TIP3   OH245391   0.780   1.589  13.210  0.0113 -0.0983 -0.0902
 7967TIP3    H145392   0.733   1.659  13.165  1.3200 -0.6854 -2.4313
 7967TIP3    H245393   0.872   1.610  13.198  0.4188 -0.0040  2.8123
 7968TIP3   OH245394   5.622   2.570  14.949 -0.0459 -0.2157 -0.8226
 7968TIP3    H145395   5.532   2.561  14.918 -0.1028  0.2849 -0.8174
 7968TIP3    H245396   5.613   2.617  15.032  0.1393 -1.1040 -0.2882
 7969TIP3   OH245397   5.191   1.827   0.089 -0.1662  0.0764  0.4005
 7969TIP3    H145398   5.156   1.737   0.087  0.0154 -0.0345  1.7160
 7969TIP3    H245399   5.286   1.815   0.086 -0.1601  0.2838 -0.5757
 7970TIP3   OH245400   6.853   3.271  15.080  0.2720 -0.2436 -0.8376
 7970TIP3    H145401   6.775   3.323  15.099  0.5391  0.1952 -0.9203
 7970TIP3    H245402   6.872   3.290  14.988 -0.3659 -1.4828 -1.2409
 7971TIP3   OH245403   0.282   2.374  14.314 -0.7513 -0.1426 -0.4257
 7971TIP3    H145404   0.344   2.429  14.266 -1.1837  1.3654  0.7157
 7971TIP3    H245405   0.327   2.290  14.322  0.3827  0.3714 -1.2244
 7972TIP3   OH245406   5.765   0.800  12.587  0.5196 -0.4797 -0.5907
 7972TIP3    H145407   5.841   0.831  12.636 -0.0441  0.6993 -0.4647
 7972TIP3    H245408   5.693   0.800  12.651  0.1178 -0.3703 -1.0402
 7973TIP3   OH245409   5.315   1.871  12.658 -0.1099  0.2604  0.0910
 7973TIP3    H145410   5.281   1.958  12.635  1.7675  1.7823  2.7658
 7973TIP3    H245411   5.388   1.857  12.599 -0.0585  0.7660  0.0320
 7974TIP3   OH245412   6.441   1.481  12.778 -0.0575 -0.4733 -0.8005
 7974TIP3    H145413   6.507   1.526  12.831 -0.3518 -1.1894  0.1875
 7974TIP3    H245414   6.434   1.534  12.699  1.6650 -0.3657 -0.8978
 7975TIP3   OH245415   0.019   0.756  14.473  0.5634  0.1880 -0.3135
 7975TIP3    H145416   0.090   0.781  14.413  0.5312  0.5514 -0.2024
 7975TIP3    H245417   0.021   0.661  14.474  4.0173  0.1555  3.1163
 7976TIP3   OH245418   3.946   3.650  14.075 -0.1071  0.2638 -0.3456
 7976TIP3    H145419   3.968   3.672  13.984  2.0600 -0.1770  0.0502
 7976TIP3    H245420   3.924   3.734  14.115  1.7070  0.8649 -0.5601
 7977TIP3   OH245421   4.471   2.854   0.295 -0.5023  0.2803  0.1453
 7977TIP3    H145422   4.494   2.930   0.241 -0.6721  1.4825  1.7248
 7977TIP3    H245423   4.477   2.886   0.385  2.6114 -2.4422  1.0185
 7978TIP3   OH245424   0.197   2.574  14.519  0.0741  0.1331 -0.1184
 7978TIP3    H145425   0.226   2.506  14.458 -1.6825 -0.0797 -0.7680
 7978TIP3    H245426   0.182   2.529  14.601  0.1394 -0.0387 -0.2005
 7979TIP3   OH245427   0.597   5.210  14.147 -0.4348  0.3631 -0.4477
 7979TIP3    H145428   0.602   5.172  14.060  2.7304 -1.1925  0.2961
 7979TIP3    H245429   0.568   5.138  14.203 -0.1465  0.6592  0.0953
 7980TIP3   OH245430   4.029   2.773  12.878 -0.5312  0.1534  0.2916
 7980TIP3    H145431   3.964   2.723  12.828 -0.9071 -0.1435  1.0651
 7980TIP3    H245432   4.015   2.864  12.853 -2.8257  0.3699  2.1754
 7981TIP3   OH245433   6.640   4.461  13.491 -0.1104  0.3072  0.0647
 7981TIP3    H145434   6.630   4.556  13.489  1.5236  0.5449  1.2484
 7981TIP3    H245435   6.612   4.436  13.579  0.2652 -0.1884  0.0452
 7982TIP3   OH245436   6.345   1.852  14.770  0.1539 -0.3165  0.4820
 7982TIP3    H145437   6.314   1.941  14.786 -1.9740 -1.1196  0.9282
 7982TIP3    H245438   6.361   1.849  14.675 -2.4531 -0.2686  0.0087
 7983TIP3   OH245439   6.092   1.396  15.874  0.0470  0.2519 -0.0660
 7983TIP3    H145440   6.094   1.368  15.783 -0.8160  0.4445 -0.1542
 7983TIP3    H245441   6.075   1.316  15.923 -2.4576  0.5583 -0.3218
 7984TIP3   OH245442   7.223   2.956  14.226 -0.1008 -0.6642  0.0478
 7984TIP3    H145443   7.146   2.905  14.253  0.2125 -0.6790  0.9456
 7984TIP3    H245444   7.193   3.047  14.231 -0.3996 -0.7151 -0.7162
 7985TIP3   OH245445   1.222   4.632   0.838 -0.3095 -0.2899  0.0354
 7985TIP3    H145446   1.315   4.657   0.839  0.0444 -1.5945  0.7189
 7985TIP3    H245447   1.223   4.536   0.838 -1.6649 -0.3102  0.2946
 7986TIP3   OH245448   7.255   3.114  13.184 -0.0194 -0.0178  0.4573
 7986TIP3    H145449   7.200   3.185  13.216  1.4532  1.2080  0.3026
 7986TIP3    H245450   7.224   3.098  13.095  1.4264  2.3179 -0.5145
 7987TIP3   OH245451   6.549   3.955  15.479 -0.1560  0.2471  0.1193
 7987TIP3    H145452   6.601   3.876  15.495  0.0249  0.6743  1.7664
 7987TIP3    H245453   6.504   3.938  15.396 -1.5303 -2.3469  1.3297
 7988TIP3   OH245454   4.620   3.220  13.974 -0.3885 -0.1878 -0.0565
 7988TIP3    H145455   4.596   3.230  13.882  1.1147 -0.2086 -0.4611
 7988TIP3    H245456   4.614   3.308  14.011 -1.7460 -0.3032  0.0313
 7989TIP3   OH245457   6.502   0.591  14.724 -0.2368 -1.0037  0.1268
 7989TIP3    H145458   6.468   0.561  14.640  1.2201 -0.3817 -0.7064
 7989TIP3    H245459   6.425   0.617  14.774 -1.0857 -1.0794 -1.1323
 7990TIP3   OH245460   0.728   3.680  14.126  0.0819 -0.5138 -0.4336
 7990TIP3    H145461   0.645   3.716  14.096 -0.1024 -0.1561  0.5003
 7990TIP3    H245462   0.792   3.710  14.062 -0.5628 -1.1045 -1.3728
 7991TIP3   OH245463   5.945   0.364  13.601  0.1144  0.0958  0.4460
 7991TIP3    H145464   6.018   0.396  13.548 -0.0226 -2.1190 -1.1120
 7991TIP3    H245465   5.888   0.441  13.610  1.9374  1.4742  0.5090
 7992TIP3   OH245466   6.940   2.039  12.633 -0.5968 -0.5275 -0.6427
 7992TIP3    H145467   6.867   1.997  12.679 -0.8169 -0.3874 -0.8612
 7992TIP3    H245468   6.909   2.127  12.614 -0.6358 -0.6860 -1.3423
 7993TIP3   OH245469   5.807   3.006  15.494  0.0356 -0.8067 -0.1539
 7993TIP3    H145470   5.865   2.934  15.470 -0.6669 -1.4446  0.0383
 7993TIP3    H245471   5.723   2.964  15.512 -0.2682  0.0123  0.3744
 7994TIP3   OH245472   0.646   4.703  15.967  0.0300  0.1006  0.0969
 7994TIP3    H145473   0.563   4.663  15.993 -0.2443 -0.3020 -1.3498
 7994TIP3    H245474   0.696   4.632  15.927 -0.1759  1.0185 -1.8417
 7995TIP3   OH245475   6.057   2.774  14.962  0.4120 -0.8094 -0.0676
 7995TIP3    H145476   6.034   2.683  14.982  0.4440 -0.4629  1.6592
 7995TIP3    H245477   5.974   2.816  14.939  0.4958 -1.4287 -1.5437
 7996TIP3   OH245478   7.102   7.153  12.757  0.4754 -0.4240 -0.1680
 7996TIP3    H145479   7.012   7.152  12.790  0.4231  2.0887 -0.1345
 7996TIP3    H245480   7.096   7.112  12.671 -0.5439 -1.1004  0.2229
 7997TIP3   OH245481   7.120   2.271   0.031 -0.3968 -0.4050  0.2997
 7997TIP3    H145482   7.082   2.357   0.014  0.2209 -0.4668 -1.4982
 7997TIP3    H245483   7.215   2.283   0.020 -0.2792 -1.2609  0.2842
 7998TIP3   OH245484   5.921   2.002  13.138  0.5959 -0.0491  0.0251
 7998TIP3    H145485   5.885   1.916  13.118 -1.6935  0.7903  0.3634
 7998TIP3    H245486   5.903   2.054  13.059  2.4259  0.0223 -0.3838
 7999TIP3   OH245487   6.619   5.090  14.584  1.0190  0.2190  0.1832
 7999TIP3    H145488   6.580   5.160  14.531 -0.6684  0.4444  1.7051
 7999TIP3    H245489   6.545   5.037  14.613  1.9219  0.0523  2.2462
 8000TIP3   OH245490   0.750   0.986  14.680  0.1330  0.0637  0.0074
 8000TIP3    H145491   0.843   0.990  14.659 -0.3501  2.9983 -1.8818
 8000TIP3    H245492   0.746   0.996  14.775  1.7173  0.3398  0.0541
 8001TIP3   OH245493   0.367   0.813  12.749  0.3887 -1.1020  0.2485
 8001TIP3    H145494   0.415   0.858  12.818  1.2451 -0.1381 -0.9515
 8001TIP3    H245495   0.324   0.740  12.793  1.3751 -0.8216  1.6947
 8002TIP3   OH245496   0.683   1.036  15.405 -0.0516  0.0776 -0.3909
 8002TIP3    H145497   0.641   1.039  15.319  0.0466  0.5340 -0.4262
 8002TIP3    H245498   0.751   1.103  15.401 -0.4934  0.5841  0.2696
 8003TIP3   OH245499   5.299   2.327  14.348  0.0597  0.7095 -0.3752
 8003TIP3    H145500   5.307   2.421  14.367 -1.3855  0.5905  0.8934
 8003TIP3    H245501   5.333   2.284  14.426 -1.6049  0.1926  0.0716
 8004TIP3   OH245502   6.937   3.900  15.500  0.6242  0.2765  0.3601
 8004TIP3    H145503   6.954   3.894  15.594  1.6629 -1.2140  0.1054
 8004TIP3    H245504   6.853   3.855  15.489 -0.4227  2.0850  0.8026
 8005TIP3   OH245505   0.026   3.719  14.754  0.5183  0.1099 -0.7018
 8005TIP3    H145506   0.031   3.666  14.674  0.6456  0.2160 -0.7645
 8005TIP3    H245507   0.054   3.806  14.727  0.5344  0.1530 -0.5472
 8006TIP3   OH245508   0.654   2.369  14.950  0.0289  0.4960 -0.8101
 8006TIP3    H145509   0.693   2.318  14.879 -0.4667 -0.2569 -0.5563
 8006TIP3    H245510   0.662   2.460  14.923 -0.3924  0.1969 -1.9514
 8007TIP3   OH245511   7.302   0.902  14.017  0.0722  0.5173 -0.0566
 8007TIP3    H145512   7.325   0.990  13.988  0.8560  0.3511  0.0656
 8007TIP3    H245513   7.323   0.845  13.943  1.1005  0.2270  0.4539
 8008TIP3   OH245514   6.725   4.239  15.870  0.2896 -0.1479 -0.0714
 8008TIP3    H145515   6.645   4.238  15.923  0.5889  1.4811  0.4106
 8008TIP3    H245516   6.711   4.168  15.806 -1.8069  0.5178 -0.3876
 8009TIP3   OH245517   1.881   0.669  15.687  0.3462 -0.4172 -0.2415
 8009TIP3    H145518   1.801   0.677  15.739  0.1501  1.3571 -0.7804
 8009TIP3    H245519   1.952   0.672  15.751  0.0541  0.2358  0.0601
 8010TIP3   OH245520   6.147   2.201  15.559  0.0143  0.1846 -0.6844
 8010TIP3    H145521   6.101   2.118  15.544  1.3951 -0.7837  0.3938
 8010TIP3    H245522   6.081   2.268  15.541 -2.0005 -1.1849  1.3466
 8011TIP3   OH245523   4.148   2.122  11.942  0.1598 -0.5888 -0.0537
 8011TIP3    H145524   4.238   2.155  11.949 -0.6132  1.1473  2.5490
 8011TIP3    H245525   4.158   2.028  11.927  2.4084 -0.2111 -1.0758
 8012TIP3   OH245526   0.057   1.880   0.099 -0.4913 -0.4200 -0.3015
 8012TIP3    H145527   0.096   1.907   0.016 -0.4076 -2.2910 -0.8904
 8012TIP3    H245528   0.042   1.786   0.089  0.4514 -0.8638  2.1688
 8013TIP3   OH245529   6.551   1.064  12.280 -0.1337  0.0753 -0.1272
 8013TIP3    H145530   6.555   1.055  12.185  1.1818  0.1862 -0.0862
 8013TIP3    H245531   6.546   1.159  12.295  1.4650  0.1558 -0.0339
 8014TIP3   OH245532   2.038   3.324  11.777  0.4609  0.2821 -0.1532
 8014TIP3    H145533   2.118   3.300  11.731  0.5057 -0.9902  0.5572
 8014TIP3    H245534   1.976   3.346  11.708  1.3810  1.1632 -0.7099
 8015TIP3   OH245535   5.498   2.170   0.934  0.1870 -0.4736 -0.4046
 8015TIP3    H145536   5.506   2.087   0.886 -0.7848 -0.1050 -1.2051
 8015TIP3    H245537   5.421   2.212   0.897 -0.6940 -0.2722  1.6363
 8016TIP3   OH245538   6.049   3.252  14.544 -0.2508 -0.0607 -0.4026
 8016TIP3    H145539   6.107   3.326  14.559 -0.7423  0.1783  0.3392
 8016TIP3    H245540   6.074   3.188  14.611 -1.6686  0.5403  0.7170
 8017TIP3   OH245541   5.522   0.816  14.705 -0.8666 -0.2975 -0.1332
 8017TIP3    H145542   5.609   0.788  14.675 -0.6269 -0.5982  0.8288
 8017TIP3    H245543   5.475   0.734  14.719 -1.1304 -0.1456 -0.1460
 8018TIP3   OH245544   0.208   2.429  12.759  0.2285  0.1426  0.0090
 8018TIP3    H145545   0.113   2.432  12.770 -0.0450  0.1778 -2.1351
 8018TIP3    H245546   0.220   2.398  12.670  2.2297  1.6687 -0.2755
 8019TIP3   OH245547   7.121   1.821   0.993  0.0214  0.0928  0.1135
 8019TIP3    H145548   7.130   1.783   1.080  1.8447  0.3894  0.0689
 8019TIP3    H245549   7.116   1.915   1.008  5.1811  0.5571 -0.3419
 8020TIP3   OH245550   0.636   2.898  14.985  0.4715 -0.0680  0.3358
 8020TIP3    H145551   0.699   2.967  15.004  2.0370 -1.1783 -0.6845
 8020TIP3    H245552   0.685   2.835  14.932 -1.6950 -0.6207 -1.0604
 8021TIP3   OH245553   6.151   2.040  12.246  0.0473 -0.4961  0.5113
 8021TIP3    H145554   6.110   1.967  12.201 -0.7628  0.8418 -0.9831
 8021TIP3    H245555   6.148   2.016  12.338 -0.7871 -2.0518  0.0966
 8022TIP3   OH245556   6.004   1.644  12.556  0.2760 -0.0061 -0.1013
 8022TIP3    H145557   6.097   1.666  12.567  0.8653 -2.2660 -0.3009
 8022TIP3    H245558   5.965   1.661  12.642  1.1601 -0.3518  0.3746
 8023TIP3   OH245559   6.378   6.861  14.803  0.7431 -0.0503  0.4121
 8023TIP3    H145560   6.299   6.897  14.764  0.0528 -0.3831  1.4945
 8023TIP3    H245561   6.433   6.838  14.728 -0.0662  0.4280 -0.3387
 8024TIP3   OH245562   5.138   1.455  11.659  0.4959  0.2416 -0.2739
 8024TIP3    H145563   5.089   1.537  11.662 -2.3161 -1.3705 -0.7816
 8024TIP3    H245564   5.148   1.429  11.751 -0.8995 -0.1669 -0.2371
 8025TIP3   OH245565   6.420   1.660  12.062 -0.5220 -0.1261  0.2392
 8025TIP3    H145566   6.344   1.661  12.121 -0.5983  2.3798  0.1586
 8025TIP3    H245567   6.392   1.605  11.989 -1.7625 -0.3481  0.8520
 8026TIP3   OH245568   5.300   3.722   0.942  0.6836 -0.0692 -0.3692
 8026TIP3    H145569   5.217   3.737   0.898  1.0040  0.4187 -0.8120
 8026TIP3    H245570   5.307   3.626   0.948 -0.2922 -0.0942  0.4187
 8027TIP3   OH245571   4.552   3.864  13.899 -0.5382  0.6287 -0.1435
 8027TIP3    H145572   4.608   3.878  13.822  0.3122  1.2260  0.5811
 8027TIP3    H245573   4.560   3.944  13.950 -0.0898 -0.2394  1.1991
 8028TIP3   OH245574   6.240   2.503  13.104  0.1921 -0.2329 -0.3818
 8028TIP3    H145575   6.192   2.446  13.163  0.7123  0.4116  0.6739
 8028TIP3    H245576   6.330   2.473  13.109 -0.1327 -1.7062 -2.6800
 8029TIP3   OH245577   0.960   3.757  13.960 -0.1199 -0.3303  0.4866
 8029TIP3    H145578   0.984   3.727  13.873  2.5005 -1.4616  1.5607
 8029TIP3    H245579   1.016   3.833  13.977 -1.7468  0.8912  0.5906
 8030TIP3   OH245580   5.455   1.374  13.062  0.0379  0.9085  0.2070
 8030TIP3    H145581   5.541   1.404  13.033 -0.0159 -0.4389 -1.4602
 8030TIP3    H245582   5.442   1.291  13.015 -1.5469  0.3714  1.5466
 8031TIP3   OH245583   6.393   1.764  15.383 -0.3400 -0.1900 -0.1716
 8031TIP3    H145584   6.435   1.726  15.306 -1.2924  0.5000 -1.0481
 8031TIP3    H245585   6.464   1.774  15.447  0.3474 -1.2827 -0.7525
 8032TIP3   OH245586   3.663   4.115  14.607  0.3818  0.0720  0.0995
 8032TIP3    H145587   3.743   4.168  14.612 -0.0338  0.8379 -1.3248
 8032TIP3    H245588   3.595   4.176  14.579 -0.4846 -0.8130  0.2507
 8033TIP3   OH245589   7.047   2.092  13.217 -0.0261 -0.1369 -0.5144
 8033TIP3    H145590   7.138   2.123  13.211 -0.6598  1.4360 -2.7378
 8033TIP3    H245591   7.040   2.054  13.304  2.0782  1.9967  0.6238
 8034TIP3   OH245592   6.154   6.292  13.265 -0.1670 -0.1229 -0.6213
 8034TIP3    H145593   6.121   6.214  13.221 -1.2448 -0.2294  0.3632
 8034TIP3    H245594   6.234   6.263  13.309  0.0969 -0.3659 -1.2398
 8035TIP3   OH245595   6.516   0.619  13.935 -0.4037  0.4781 -0.6322
 8035TIP3    H145596   6.555   0.656  14.014  1.4995 -0.4876 -1.0996
 8035TIP3    H245597   6.501   0.695  13.878  2.3357  0.7210 -1.0929
 8036TIP3   OH245598   0.545   1.336  15.966  0.2463  0.1841 -0.3690
 8036TIP3    H145599   0.629   1.382  15.972  0.7276 -0.4462 -2.0918
 8036TIP3    H245600   0.502   1.375  15.890  0.9500 -2.6532 -2.2728
 8037TIP3   OH245601   2.268   4.233  14.632 -0.4002 -0.1013 -0.3452
 8037TIP3    H145602   2.206   4.200  14.568 -0.6802  0.9190 -0.6041
 8037TIP3    H245603   2.241   4.192  14.715 -0.5718 -0.7300 -0.7120
 8038TIP3   OH245604   6.624   1.377  14.673  0.3318  0.1623  0.1330
 8038TIP3    H145605   6.617   1.450  14.735  0.9115 -1.4195  2.1168
 8038TIP3    H245606   6.535   1.345  14.664  0.5002 -0.7940  1.6643
 8039TIP3   OH245607   7.077   1.041  12.797  0.1899 -0.1773  0.1997
 8039TIP3    H145608   7.132   0.973  12.837  0.7735 -1.6722 -2.9729
 8039TIP3    H245609   7.131   1.076  12.725 -1.8493  0.4272 -1.0691
 8040TIP3   OH245610   6.950   7.008  13.018  0.2266 -0.4886 -0.3282
 8040TIP3    H145611   7.008   7.076  13.053 -1.9020  1.2682 -0.1102
 8040TIP3    H245612   6.916   7.046  12.937  0.1671 -1.9287 -0.9958
 8041TIP3   OH245613   0.201   2.682  14.084 -0.0603  0.2015 -0.3924
 8041TIP3    H145614   0.287   2.684  14.042 -0.4300 -2.9344 -1.4320
 8041TIP3    H245615   0.197   2.597  14.127 -1.0614  1.9566  3.1577
 8042TIP3   OH245616   7.336   1.182  12.761 -0.0632  0.4244  0.3593
 8042TIP3    H145617   7.280   1.193  12.685 -0.3863  1.5695  0.7575
 8042TIP3    H245618   7.425   1.192  12.727 -0.1866  0.5404  0.0693
 8043TIP3   OH245619   7.067   2.047  14.706 -0.1964  0.4276  0.0744
 8043TIP3    H145620   7.154   2.075  14.737  0.6915  2.0457 -3.5617
 8043TIP3    H245621   7.008   2.115  14.737  0.1825  0.4734  0.7111
 8044TIP3   OH245622   7.182   3.025  15.594 -0.1136  0.2227  0.7096
 8044TIP3    H145623   7.202   3.023  15.500 -0.1807 -0.2974  0.7050
 8044TIP3    H245624   7.158   2.935  15.615 -0.3111  0.3863  1.1834
 8045TIP3   OH245625   0.619   4.087  14.263  0.1555  0.7329  0.0218
 8045TIP3    H145626   0.665   4.005  14.280  2.1041  1.3533 -2.0006
 8045TIP3    H245627   0.541   4.062  14.213  1.4272  0.2027 -1.7393
 8046TIP3   OH245628   5.677   2.299  11.036 -0.0881 -0.1499 -0.1633
 8046TIP3    H145629   5.658   2.267  11.124 -2.0232  1.4925  0.0462
 8046TIP3    H245630   5.716   2.385  11.049 -0.7542  0.2725 -0.9223
 8047TIP3   OH245631   0.001   1.651  13.646  0.1237  0.0465  0.3025
 8047TIP3    H145632  -0.068   1.627  13.585  0.0143  1.4854 -0.1733
 8047TIP3    H245633   0.079   1.664  13.591  1.4420 -3.9456  1.1044
 8048TIP3   OH245634   6.520   3.167  14.834 -0.2652  0.4011 -0.2043
 8048TIP3    H145635   6.609   3.137  14.850 -0.3948 -0.8247 -1.5675
 8048TIP3    H245636   6.467   3.087  14.840 -0.8932  0.6446 -2.0090
 8049TIP3   OH245637   6.745   2.788  12.538 -0.4656 -0.4192 -1.0910
 8049TIP3    H145638   6.760   2.852  12.468 -1.8319 -0.1970 -1.1940
 8049TIP3    H245639   6.751   2.839  12.618 -1.5998 -0.1470 -1.1745
 8050TIP3   OH245640   0.690   3.300  13.359  0.1396 -0.1800 -0.1046
 8050TIP3    H145641   0.706   3.242  13.284 -0.2502  2.8556 -2.6723
 8050TIP3    H245642   0.595   3.312  13.360  0.3856  2.2144 -1.1326
 8051TIP3   OH245643   1.203   4.530  14.820 -0.2288  0.3096  0.2504
 8051TIP3    H145644   1.207   4.437  14.842  2.3778 -0.0069 -1.2932
 8051TIP3    H245645   1.248   4.574  14.892  1.4831  0.0051 -0.5871
 8052TIP3   OH245646   6.407   3.698  14.029 -0.1708  0.1395 -0.2837
 8052TIP3    H145647   6.478   3.692  13.965 -0.6000 -0.7209 -0.6820
 8052TIP3    H245648   6.451   3.720  14.111  0.6535 -1.2909 -0.3363
 8053TIP3   OH245649   5.267   2.665  13.509 -0.1866  0.2083 -0.4097
 8053TIP3    H145650   5.175   2.680  13.531 -0.0133  1.5738 -0.5867
 8053TIP3    H245651   5.315   2.706  13.581  0.2825 -0.9415 -0.0604
 8054TIP3   OH245652   0.254   1.596  12.947  0.0563  0.2272  0.1766
 8054TIP3    H145653   0.292   1.637  12.869  1.3597 -1.7192 -0.2411
 8054TIP3    H245654   0.159   1.599  12.932  0.2691  0.4676 -1.1661
 8055TIP3   OH245655   7.180   3.898  14.991  0.3867  0.3021  0.0734
 8055TIP3    H145656   7.137   3.818  14.962  0.7765  0.3914 -0.7850
 8055TIP3    H245657   7.268   3.871  15.017  0.0132  0.2120  1.2648
 8056TIP3   OH245658   4.328   0.578  11.648 -0.7993 -0.3476 -0.1801
 8056TIP3    H145659   4.381   0.499  11.657 -0.3851 -0.1679 -0.9493
 8056TIP3    H245660   4.284   0.568  11.563 -1.8801 -0.4237  0.3801
 8057TIP3   OH245661   0.861   2.802  14.523  0.3024  0.5096 -0.3018
 8057TIP3    H145662   0.787   2.853  14.556  1.4248  0.6400  2.1259
 8057TIP3    H245663   0.828   2.713  14.517 -1.4975  1.3218 -4.0075
 8058TIP3   OH245664   5.661   3.111   0.889  0.1725  0.3738 -0.0708
 8058TIP3    H145665   5.732   3.127   0.950  0.6106  1.0342 -0.7383
 8058TIP3    H245666   5.635   3.021   0.904  2.4406 -0.5036 -1.1372
 8059TIP3   OH245667   6.056   3.674  13.254 -0.3491 -0.8103 -0.4952
 8059TIP3    H145668   6.085   3.746  13.198  1.9615 -1.3397 -0.0526
 8059TIP3    H245669   6.067   3.708  13.343  0.2635 -1.5099 -0.2987
 8060TIP3   OH245670   5.679   4.719  14.389 -0.0035  0.4241 -0.7597
 8060TIP3    H145671   5.651   4.809  14.373  0.4863  0.7373  0.0773
 8060TIP3    H245672   5.602   4.676  14.426  0.2413  0.9500  0.3846
 8061TIP3   OH245673   5.199   4.675  13.300  0.2828 -0.0524 -0.2129
 8061TIP3    H145674   5.158   4.720  13.226 -2.3626 -1.6533  0.2320
 8061TIP3    H245675   5.240   4.597  13.262  1.7722  0.8289 -0.4501
 8062TIP3   OH245676   0.087   2.065  14.365 -0.2820 -0.3101 -0.1297
 8062TIP3    H145677   0.028   2.036  14.295 -0.3258 -0.5272 -0.0051
 8062TIP3    H245678   0.072   2.002  14.436 -0.1330 -0.1752  0.0210
 8063TIP3   OH245679   6.926   1.312  12.510  0.1151 -0.0126 -0.0536
 8063TIP3    H145680   6.863   1.281  12.445  1.0416 -1.1583 -0.4243
 8063TIP3    H245681   6.915   1.408  12.511 -0.6536 -0.0849 -1.1071
 8064TIP3   OH245682   7.260   2.428  13.385 -0.3698 -0.0369 -0.6563
 8064TIP3    H145683   7.278   2.398  13.296  1.9037 -1.3162  0.1954
 8064TIP3    H245684   7.213   2.355  13.426  0.0300 -0.1139 -0.3274
 8065TIP3   OH245685   5.356   3.449  15.672  0.1531  0.0178 -0.6905
 8065TIP3    H145686   5.431   3.509  15.679 -1.5378  2.0275  0.7635
 8065TIP3    H245687   5.286   3.503  15.633 -0.5598 -1.8369 -2.0533
 8066TIP3   OH245688   0.020   0.215   0.276  0.1836  0.1831  0.6255
 8066TIP3    H145689   0.011   0.236   0.369 -2.1011 -0.5933  0.6178
 8066TIP3    H245690  -0.061   0.169   0.254  1.4303 -1.1614 -1.3522
 8067TIP3   OH245691   5.744   2.349  12.908 -0.4327  0.1513  0.1934
 8067TIP3    H145692   5.662   2.390  12.880  0.4762  1.5915 -0.4411
 8067TIP3    H245693   5.801   2.423  12.930  0.2202 -0.8609  2.0158
 8068TIP3   OH245694   6.454   2.029  15.222 -0.1081 -0.4607 -0.5045
 8068TIP3    H145695   6.443   2.019  15.316 -1.9654  0.0558 -0.6415
 8068TIP3    H245696   6.395   1.965  15.183  0.0786 -0.1561 -1.3125
 8069TIP3   OH245697   6.529   3.131  13.202 -0.6097  0.1682  0.3073
 8069TIP3    H145698   6.457   3.109  13.142  0.4676 -2.1138 -0.2103
 8069TIP3    H245699   6.508   3.084  13.282 -0.3154  0.4743  0.5615
 8070TIP3   OH245700   2.188   2.976   1.327 -0.4218 -0.3255 -0.3168
 8070TIP3    H145701   2.231   2.891   1.331 -0.5043 -0.3733 -0.4346
 8070TIP3    H245702   2.260   3.038   1.312 -0.5722 -0.5843 -2.1990
 8071TIP3   OH245703   1.397   2.817  13.959 -0.1996  0.4086 -0.1276
 8071TIP3    H145704   1.480   2.769  13.959  0.7393  1.9831 -0.2356
 8071TIP3    H245705   1.391   2.853  13.870 -0.5802  0.9966  0.1338
 8072TIP3   OH245706   0.536   2.203  13.849  0.2787  0.4326  0.5576
 8072TIP3    H145707   0.511   2.204  13.757  1.3234  3.3449  0.2680
 8072TIP3    H245708   0.454   2.218  13.896  0.2269  2.1450 -0.0530
 8073TIP3   OH245709   4.473   2.980  14.800  0.0563 -0.2218 -0.5277
 8073TIP3    H145710   4.412   3.023  14.860  0.3658  1.8378 -1.6273
 8073TIP3    H245711   4.436   2.996  14.713  0.5216 -1.6604 -1.0028
 8074TIP3   OH245712   7.289   1.911  14.964 -0.2764  0.5971 -0.1302
 8074TIP3    H145713   7.237   1.861  14.902  0.5292 -0.7713  0.2833
 8074TIP3    H245714   7.368   1.935  14.915 -0.9867  2.1195 -0.5584
 8075TIP3   OH245715   6.481   0.583  15.088 -0.4918  0.0763  0.1101
 8075TIP3    H145716   6.453   0.662  15.040 -1.4055 -0.0838  0.3784
 8075TIP3    H245717   6.415   0.518  15.068  1.1387 -1.1554 -1.4479
 8076TIP3   OH245718   3.198   2.573  12.255 -0.2461  0.0736  1.0106
 8076TIP3    H145719   3.160   2.523  12.183 -0.2483 -0.8745  1.6591
 8076TIP3    H245720   3.208   2.662  12.221 -1.5209 -0.0518  0.2926
 8077TIP3   OH245721   6.740   1.946  14.667 -0.2872 -0.2783 -0.1669
 8077TIP3    H145722   6.836   1.940  14.670 -0.2621  0.7704  2.0789
 8077TIP3    H245723   6.722   2.028  14.623 -0.0988  0.5300  1.2298
 8078TIP3   OH245724   6.215   1.846  15.083  0.0073 -0.0377 -0.1202
 8078TIP3    H145725   6.263   1.770  15.051 -0.9969 -0.3193 -0.9664
 8078TIP3    H245726   6.140   1.809  15.130  2.2217  0.2962  3.9478
 8079TIP3   OH245727   6.771   2.949  14.020 -0.5261  0.3125 -0.6133
 8079TIP3    H145728   6.861   2.948  13.987 -0.9099  0.3151 -1.6807
 8079TIP3    H245729   6.731   2.871  13.983 -0.6327 -0.3497  0.8504
 8080TIP3   OH245730   0.083   4.110  14.177  0.5636  0.5427  0.0133
 8080TIP3    H145731   0.122   4.043  14.120 -2.0159 -1.2272  0.2466
 8080TIP3    H245732   0.045   4.174  14.116 -0.2766 -0.1943 -0.2402
 8081TIP3   OH245733   6.781   2.524  14.661  0.3449  0.3727  0.8691
 8081TIP3    H145734   6.799   2.615  14.685  0.0067  0.6154  0.2046
 8081TIP3    H245735   6.686   2.514  14.675  0.2991  0.2610  0.4776
 8082TIP3   OH245736   5.979   1.915  14.125  0.2419 -0.1013  0.4488
 8082TIP3    H145737   6.053   1.902  14.183  0.8616  0.9055 -0.0926
 8082TIP3    H245738   5.914   1.962  14.178  0.2402 -0.4305  0.7382
 8083TIP3   OH245739   6.164   1.952  13.239 -0.4038 -0.2947  0.3137
 8083TIP3    H145740   6.196   1.889  13.175  0.7959  1.0612 -0.4506
 8083TIP3    H245741   6.077   1.977  13.205  0.2312  0.4309 -0.8086
 8084TIP3   OH245742   0.314   4.092  14.951  0.0234  0.8984  0.3955
 8084TIP3    H145743   0.401   4.059  14.975  0.0565  0.7903  0.1281
 8084TIP3    H245744   0.292   4.044  14.871 -0.3161  0.8675  0.5079
 8085TIP3   OH245745   6.019   0.188  13.993  0.1968  0.1398  0.0830
 8085TIP3    H145746   6.007   0.097  14.020 -0.2735  0.5152  1.1819
 8085TIP3    H245747   6.075   0.183  13.916  0.0845 -1.0861  0.0710
 8086TIP3   OH245748   5.937   3.081  15.150 -0.6236  0.0286 -0.1153
 8086TIP3    H145749   5.991   3.135  15.092  1.0200 -1.0748  0.3427
 8086TIP3    H245750   5.898   3.144  15.210 -1.6437  1.0837 -1.8509
 8087TIP3   OH245751   7.118   1.518  14.407 -0.1038 -0.4596  0.3395
 8087TIP3    H145752   7.151   1.545  14.321  0.9309  1.3311  1.2563
 8087TIP3    H245753   7.063   1.443  14.389 -0.4977  0.3412 -1.9910
 8088TIP3   OH245754   3.041   2.321  13.329 -0.1273 -0.0581  0.1158
 8088TIP3    H145755   2.976   2.270  13.376 -0.1642 -0.2100 -0.1015
 8088TIP3    H245756   3.123   2.303  13.375  0.1415 -1.5915 -0.9600
 8089TIP3   OH245757   4.028   2.077   0.447  0.1267 -0.3102 -0.0561
 8089TIP3    H145758   4.049   2.002   0.391  2.1103 -0.1169  0.3883
 8089TIP3    H245759   3.981   2.137   0.389 -0.7025 -1.5161 -0.6509
 8090TIP3   OH245760   6.041   1.337  12.777  0.2121  0.4403  0.6570
 8090TIP3    H145761   5.984   1.337  12.854 -0.9495 -0.3564 -0.1793
 8090TIP3    H245762   5.987   1.298  12.707  1.8075 -0.4048 -0.1337
 8091TIP3   OH245763   5.918   1.953  15.784  0.2888  0.1141 -0.6637
 8091TIP3    H145764   5.823   1.954  15.773  0.2120 -2.1135 -0.3733
 8091TIP3    H245765   5.937   2.036  15.828 -1.5041  0.6055 -0.7478
 8092TIP3   OH245766   3.820   2.988  15.392  0.4361  0.1753  0.1712
 8092TIP3    H145767   3.825   2.981  15.296 -1.9322 -0.0153  0.0115
 8092TIP3    H245768   3.780   3.074  15.407  0.6779  0.1467  0.9871
 8093TIP3   OH245769   0.700   1.187  15.662  0.3576  0.5963  0.4040
 8093TIP3    H145770   0.701   1.109  15.718 -0.0736  1.0806  1.0905
 8093TIP3    H245771   0.756   1.164  15.588 -1.2463 -1.0620 -0.3335
 8094TIP3   OH245772   0.388   3.953   0.598  0.9081 -0.4907 -0.0892
 8094TIP3    H145773   0.457   3.908   0.550  1.7818 -0.5754  1.2393
 8094TIP3    H245774   0.430   4.029   0.638 -0.1330  0.4131 -0.6643
 8095TIP3   OH245775   6.313   2.493  14.704  0.3570 -0.0597  0.6874
 8095TIP3    H145776   6.390   2.437  14.715  0.5753 -0.1810 -1.2957
 8095TIP3    H245777   6.240   2.440  14.735  0.8004 -0.7813  0.5026
 8096TIP3   OH245778   4.646   3.038   1.616 -0.3848  0.1603 -0.2066
 8096TIP3    H145779   4.625   3.124   1.581  2.3153  0.9345 -0.0705
 8096TIP3    H245780   4.668   3.054   1.708 -0.2028 -0.7319 -0.0900
 8097TIP3   OH245781   4.926   2.508  13.345  0.8597 -0.3989 -0.1985
 8097TIP3    H145782   4.855   2.444  13.346  1.3712 -0.9870 -0.7254
 8097TIP3    H245783   5.001   2.461  13.383  0.8350  0.3672  0.7927
 8098TIP3   OH245784   5.073   1.022   0.875 -0.1191  0.5665 -0.1006
 8098TIP3    H145785   5.160   1.062   0.876 -0.1122  0.6394 -1.8757
 8098TIP3    H245786   5.074   0.966   0.798 -2.5990  2.7496 -1.7835
 8099TIP3   OH245787   6.517   2.358  13.499 -0.2886 -0.0790 -0.0486
 8099TIP3    H145788   6.533   2.268  13.469  0.3216 -1.7911  4.9078
 8099TIP3    H245789   6.604   2.395  13.510 -0.5368  1.0878 -1.8847
 8100TIP3   OH245790   1.515   2.890   0.361 -0.7139  0.1540  1.1190
 8100TIP3    H145791   1.579   2.911   0.292 -0.6375  0.1708  1.1947
 8100TIP3    H245792   1.567   2.848   0.430 -1.0321 -1.2246  0.5403
 8101TIP3   OH245793   3.296   2.353   1.082  0.2869  0.3043 -0.1965
 8101TIP3    H145794   3.348   2.429   1.055 -0.6407  1.1419  0.3757
 8101TIP3    H245795   3.339   2.322   1.162 -0.0339  0.9364  0.2215
 8102TIP3   OH245796   6.688   1.371  15.425 -0.4129 -0.1603  0.0889
 8102TIP3    H145797   6.672   1.280  15.451 -0.7627 -0.1493 -0.0790
 8102TIP3    H245798   6.778   1.372  15.394 -1.2847 -1.1003 -2.6698
 8103TIP3   OH245799   5.428   0.955   0.297  0.4822  0.0128  0.1057
 8103TIP3    H145800   5.472   0.884   0.343  0.2159 -1.1427 -1.3844
 8103TIP3    H245801   5.480   0.968   0.218 -0.0144  0.8498 -0.0906
 8104TIP3   OH245802   6.972   2.473  15.891  0.1671 -1.0735  0.3006
 8104TIP3    H145803   6.960   2.456  15.798  2.2282 -1.7188  0.1325
 8104TIP3    H245804   6.883   2.466  15.928 -0.9518  1.0157 -1.8467
 8105TIP3   OH245805   5.262   3.105  13.128 -0.1175 -0.0878 -0.4777
 8105TIP3    H145806   5.282   3.025  13.079  2.1633 -0.3601  0.8300
 8105TIP3    H245807   5.281   3.084  13.219 -1.4819  1.3216  0.1599
 8106TIP3   OH245808   7.046   2.005  12.363  0.4032 -1.0066  0.0525
 8106TIP3    H145809   7.001   2.086  12.337  0.6265 -0.8927  0.0154
 8106TIP3    H245810   6.999   1.976  12.441 -1.3095 -2.2468 -1.4141
 8107TIP3   OH245811   7.127   2.159  14.264 -0.0072  0.3209 -0.2331
 8107TIP3    H145812   7.059   2.226  14.258  0.0768  0.5213  0.9448
 8107TIP3    H245813   7.173   2.163  14.180  0.5875  2.3632  0.1802
 8108TIP3   OH245814   0.918   3.558  13.272 -0.3066  0.3449 -0.1714
 8108TIP3    H145815   0.954   3.596  13.192  2.1500  1.8342  1.5564
 8108TIP3    H245816   0.844   3.614  13.295 -0.8657  0.0557 -1.2760
 8109TIP3   OH245817   6.320   1.974   0.577  0.1214 -0.1317  0.4136
 8109TIP3    H145818   6.225   1.967   0.586  0.3203  0.9324  4.4906
 8109TIP3    H245819   6.353   1.887   0.599  0.1420 -0.1262  0.4052
 8110TIP3   OH245820   2.239   4.764  14.600  0.6701  0.1676  0.3141
 8110TIP3    H145821   2.243   4.796  14.510 -0.4710  0.0905  0.2314
 8110TIP3    H245822   2.278   4.677  14.596 -2.1247 -1.1134 -0.7308
 8111TIP3   OH245823   5.671   2.950  14.186  0.0670  0.1855  0.1101
 8111TIP3    H145824   5.667   2.980  14.095 -1.1714 -1.2094 -0.3268
 8111TIP3    H245825   5.665   3.030  14.238  0.3664  0.9613 -1.0372
 8112TIP3   OH245826   5.916   2.339  13.933 -0.7001  0.2973 -0.3280
 8112TIP3    H145827   5.986   2.274  13.921 -0.3097  0.3328  1.5595
 8112TIP3    H245828   5.959   2.412  13.977 -1.7501  0.6879  0.0543
 8113TIP3   OH245829   5.808   2.456  13.321 -0.2438 -0.1568  0.2162
 8113TIP3    H145830   5.883   2.400  13.298 -0.0374 -0.8322  2.4223
 8113TIP3    H245831   5.788   2.503  13.240  0.8411 -1.9767 -1.1583
 8114TIP3   OH245832   0.021   4.326  15.747  0.6809 -1.2273 -0.6487
 8114TIP3    H145833   0.033   4.237  15.716  0.4702 -1.0444 -1.2614
 8114TIP3    H245834   0.044   4.323  15.840 -0.4512 -2.1589 -0.3956
 8115TIP3   OH245835   5.724   3.012  11.371  0.1481  0.7078  0.1698
 8115TIP3    H145836   5.727   2.981  11.280 -1.7842  1.5010 -0.1872
 8115TIP3    H245837   5.812   3.048  11.386  1.7079 -2.7401 -0.1534
 8116TIP3   OH245838   0.599   3.112  15.311 -0.2081 -0.0922 -0.5270
 8116TIP3    H145839   0.631   3.033  15.355 -0.1097  0.4687  0.4071
 8116TIP3    H245840   0.663   3.127  15.241  1.4119  0.7878  1.0784
 8117TIP3   OH245841   6.400   7.341  14.314 -0.2751 -0.1716  0.0200
 8117TIP3    H145842   6.442   7.401  14.376 -0.8593 -0.3295  0.5774
 8117TIP3    H245843   6.342   7.398  14.263 -1.1415 -0.3078  0.8256
 8118TIP3   OH245844   0.459   3.070  15.686  0.1648  0.3530  0.0202
 8118TIP3    H145845   0.496   2.986  15.714  3.2101  1.4519 -0.5467
 8118TIP3    H245846   0.471   3.128  15.761  0.9762  1.1334 -0.7126
 8119TIP3   OH245847   4.851   0.368  13.240  0.5993 -0.3887 -0.2142
 8119TIP3    H145848   4.868   0.367  13.146  0.9541  0.6313 -0.1742
 8119TIP3    H245849   4.845   0.461  13.262  1.2538 -0.5954  0.8998
 8120TIP3   OH245850   2.104   0.638  14.903 -0.2567  0.1724  0.1545
 8120TIP3    H145851   2.030   0.584  14.932  0.4805 -0.4524  0.8725
 8120TIP3    H245852   2.158   0.650  14.981 -0.3775  1.9162  0.0024
 8121TIP3   OH245853   4.511   2.966  11.967  0.5672  0.3519  0.3823
 8121TIP3    H145854   4.566   2.903  12.014  1.6124  0.4147 -0.7383
 8121TIP3    H245855   4.470   3.019  12.036  2.0739  0.4406  1.2135
 8122TIP3   OH245856   3.792   1.918  15.662 -0.2233  0.1802 -0.0413
 8122TIP3    H145857   3.763   1.847  15.605  1.3723  0.0366 -0.6987
 8122TIP3    H245858   3.754   1.897  15.747  0.4125 -1.5942 -0.1814
 8123TIP3   OH245859   3.789   0.066  11.717 -0.1026 -0.4453 -0.3275
 8123TIP3    H145860   3.865   0.061  11.658 -0.8747  0.1966 -1.3914
 8123TIP3    H245861   3.748  -0.021  11.711 -0.3035 -0.3129 -0.9138
 8124TIP3   OH245862   6.383   1.245  14.625 -1.0041  0.3977 -0.0602
 8124TIP3    H145863   6.311   1.254  14.563 -0.6449  0.7918 -0.4284
 8124TIP3    H245864   6.368   1.161  14.668 -1.1688  0.0435 -0.7966
 8125TIP3   OH245865   6.671   7.298  14.003  0.0522  0.1752 -0.3310
 8125TIP3    H145866   6.587   7.340  13.988 -0.2905 -0.8049 -1.1862
 8125TIP3    H245867   6.669   7.219  13.950  2.1021  0.8945 -1.5761
 8126TIP3   OH245868   5.179   3.677  15.473  0.5933  0.4096 -0.1671
 8126TIP3    H145869   5.237   3.724  15.414  2.6049  0.4013  1.7333
 8126TIP3    H245870   5.155   3.741  15.540  2.5660 -0.9365  1.8926
 8127TIP3   OH245871   0.171   1.446  15.877  0.3571  0.0368  0.1851
 8127TIP3    H145872   0.107   1.466  15.809 -0.2339  0.3471  0.8307
 8127TIP3    H245873   0.256   1.464  15.835 -0.0657  1.8502  0.0556
 8128TIP3   OH245874   7.072   3.775  14.063 -0.4358  0.3063 -0.1414
 8128TIP3    H145875   7.060   3.761  14.158  0.1652  2.3306  0.2501
 8128TIP3    H245876   7.166   3.766  14.050 -0.6022 -0.7407 -0.7092
 8129TIP3   OH245877   0.112   3.689   0.354  0.7842  0.2755  0.0150
 8129TIP3    H145878   0.119   3.726   0.442  1.3125 -1.0649  0.5483
 8129TIP3    H245879   0.083   3.599   0.368 -0.7834  0.5490 -1.2900
 8130TIP3   OH245880   4.067   2.677   1.086 -0.8538  0.1429 -0.1694
 8130TIP3    H145881   4.154   2.683   1.125 -0.5206  1.9414 -1.1043
 8130TIP3    H245882   4.008   2.667   1.161 -0.1971  3.1720  0.8490
 8131TIP3   OH245883   0.518   2.143   0.327 -0.4408  0.4122  0.2870
 8131TIP3    H145884   0.587   2.096   0.373  1.1704  1.5511 -0.9363
 8131TIP3    H245885   0.485   2.080   0.262 -1.9143 -0.7878  2.1572
 8132TIP3   OH245886   6.179   3.742  13.874 -0.4247 -0.3944  0.4694
 8132TIP3    H145887   6.261   3.737  13.924 -1.0521 -0.9632  1.4382
 8132TIP3    H245888   6.202   3.709  13.787  0.7017  0.7177  0.3218
 8133TIP3   OH245889   1.211   2.163   0.268 -0.0104 -0.0855  0.6035
 8133TIP3    H145890   1.297   2.166   0.227  0.3781 -0.6911  1.3530
 8133TIP3    H245891   1.229   2.168   0.362 -0.8002 -0.0060  0.7546
 8134TIP3   OH245892   7.087   6.260  14.412 -0.4457 -0.3180  0.0421
 8134TIP3    H145893   7.100   6.178  14.366 -1.7516 -0.5863  0.1448
 8134TIP3    H245894   7.011   6.300  14.370 -1.4099 -0.3813  1.6669
 8135TIP3   OH245895   6.658   2.643   0.453  0.0459  0.3098 -0.2832
 8135TIP3    H145896   6.744   2.611   0.478  0.1693  0.7447 -0.1411
 8135TIP3    H245897   6.630   2.585   0.383 -1.1343 -2.0969  2.1241
 8136TIP3   OH245898   6.348   1.103  13.889  0.1430  0.8795 -0.1515
 8136TIP3    H145899   6.321   1.193  13.902 -0.1003  1.0345 -1.6968
 8136TIP3    H245900   6.443   1.104  13.906 -0.0500  1.2018  0.9072
 8137TIP3   OH245901   6.475   2.748  14.663 -0.3573  0.2268  0.0123
 8137TIP3    H145902   6.474   2.769  14.570 -0.3313 -0.8343 -0.2383
 8137TIP3    H245903   6.410   2.678  14.672 -0.6463  0.5993  0.8545
 8138TIP3   OH245904   6.256   1.592  14.865  0.0496 -0.0712 -0.3930
 8138TIP3    H145905   6.276   1.681  14.835 -0.9147  1.1508  2.4034
 8138TIP3    H245906   6.195   1.557  14.800 -0.6035  1.8177 -0.8194
 8139TIP3   OH245907   0.704   1.152  13.780 -0.2260  0.3168 -0.0098
 8139TIP3    H145908   0.683   1.071  13.734 -1.6626  0.6408  0.0519
 8139TIP3    H245909   0.721   1.216  13.710  1.0075 -0.0471 -0.0584
 8140TIP3   OH245910   5.929   1.825  14.751 -0.4854 -0.1402 -0.0229
 8140TIP3    H145911   5.971   1.739  14.750  0.0997  0.1283  0.8277
 8140TIP3    H245912   5.974   1.874  14.682  0.3896  0.0368  0.6589
 8141TIP3   OH245913   4.890   0.155  12.687 -0.1456  0.2467  0.7234
 8141TIP3    H145914   4.824   0.106  12.638 -0.1332 -1.0833  1.9719
 8141TIP3    H245915   4.878   0.126  12.778  3.7824 -1.9709  0.6281
 8142TIP3   OH245916   6.283   0.659  14.117 -0.3725  0.1577  0.2645
 8142TIP3    H145917   6.298   0.741  14.164  1.3290 -0.3665  0.6399
 8142TIP3    H245918   6.224   0.684  14.045  0.6955  1.8593 -0.0488
 8143TIP3   OH245919   6.236   2.393  12.853  0.2279  0.4954  0.1920
 8143TIP3    H145920   6.322   2.352  12.860  1.2411  2.2039 -1.7227
 8143TIP3    H245921   6.219   2.430  12.940  1.5997  0.5382  0.4405
 8144TIP3   OH245922   1.386   1.889  13.198  0.4160 -0.0166 -0.1581
 8144TIP3    H145923   1.380   1.812  13.141  0.2874 -0.1043 -0.0288
 8144TIP3    H245924   1.354   1.858  13.283 -0.2066  0.3367 -0.2582
 8145TIP3   OH245925   5.853   2.585  12.975 -0.0410  0.1503 -0.1938
 8145TIP3    H145926   5.909   2.628  13.041  1.0636  0.9458 -1.6065
 8145TIP3    H245927   5.846   2.650  12.905 -3.1470  0.2346  0.1362
 8146TIP3   OH245928   6.668   1.992  13.632  0.0617  0.5632  0.4765
 8146TIP3    H145929   6.763   1.988  13.646  0.3159  1.5230 -0.9645
 8146TIP3    H245930   6.649   1.915  13.578  0.2087  1.0790 -0.3093
 8147TIP3   OH245931   5.700   1.330  14.775 -0.0443 -0.7568  0.2880
 8147TIP3    H145932   5.742   1.270  14.713 -0.6872 -0.7524 -0.1542
 8147TIP3    H245933   5.639   1.381  14.722  0.5899  0.3846  0.6473
 8148TIP3   OH245934   0.184   2.757  12.968 -0.1772 -0.0207  0.0080
 8148TIP3    H145935   0.248   2.688  12.949 -1.6194 -1.4833  0.4082
 8148TIP3    H245936   0.131   2.762  12.889 -1.7177 -1.2075  0.9333
 8149TIP3   OH245937   0.052   0.655  13.549 -0.5330 -0.1028 -0.1597
 8149TIP3    H145938   0.032   0.692  13.464 -0.4859  0.6013  0.1368
 8149TIP3    H245939   0.142   0.622  13.540 -1.0191 -1.2961 -0.8100
 8150TIP3   OH245940   5.863   1.010  13.885  0.8252  0.2349  0.2283
 8150TIP3    H145941   5.930   1.068  13.920 -0.4431  1.0363  1.3954
 8150TIP3    H245942   5.849   0.945  13.954  1.9331 -1.2175 -0.8933
 8151TIP3   OH245943   4.887   1.463  12.375 -0.2525 -0.3181  0.2112
 8151TIP3    H145944   4.960   1.426  12.326 -1.6009 -0.0907 -2.0341
 8151TIP3    H245945   4.882   1.554  12.346  0.4942  0.5444  2.6647
 8152TIP3   OH245946   0.289   2.293   1.889  0.2573  0.4963 -0.1310
 8152TIP3    H145947   0.284   2.202   1.860 -2.0183  0.6274 -0.2096
 8152TIP3    H245948   0.290   2.288   1.984  0.9405  0.3745 -0.1380
 8153TIP3   OH245949   0.354   2.820   0.626 -0.2673 -0.6403  0.1889
 8153TIP3    H145950   0.443   2.790   0.608  0.1911  0.2372  0.9515
 8153TIP3    H245951   0.350   2.908   0.590 -1.1108 -1.0109 -0.6387
 8154TIP3   OH245952   2.821   5.159  15.146  0.2130 -0.6583  0.2414
 8154TIP3    H145953   2.874   5.088  15.183  0.3386 -0.3251  0.7057
 8154TIP3    H245954   2.808   5.220  15.218 -1.2250 -0.9718  0.2664
 8155TIP3   OH245955   2.674   5.633  14.575 -0.4816  0.1189 -0.7587
 8155TIP3    H145956   2.610   5.651  14.507 -1.0570  0.1208 -0.2150
 8155TIP3    H245957   2.623   5.624  14.655  0.1078 -0.7186 -0.4648
 8156TIP3   OH245958   1.333   2.324  15.118  0.5508  0.1966 -0.6689
 8156TIP3    H145959   1.309   2.231  15.118  2.0630 -0.2325  0.9290
 8156TIP3    H245960   1.294   2.358  15.199  1.8398  0.4184 -0.1315
 8157TIP3   OH245961   7.029   3.253  14.835 -0.0129  0.8269 -0.0503
 8157TIP3    H145962   7.120   3.279  14.824  0.2055  0.5044  0.8988
 8157TIP3    H245963   7.033   3.161  14.862 -0.5317  1.1811  1.3194
 8158TIP3   OH245964   6.380   6.394  14.587  0.2496  0.1209 -0.4112
 8158TIP3    H145965   6.342   6.317  14.628  0.6751 -0.3606 -0.9215
 8158TIP3    H245966   6.398   6.454  14.659 -0.1770 -0.2146 -0.0291
 8159TIP3   OH245967   7.187   4.988  12.897 -0.1375 -0.3113 -0.0010
 8159TIP3    H145968   7.231   4.972  12.980  1.0957  0.2650 -0.5294
 8159TIP3    H245969   7.105   4.938  12.903  0.0128 -0.4012  1.4802
 8160TIP3   OH245970   0.260   3.095   0.573 -0.4323 -0.7378  0.8980
 8160TIP3    H145971   0.191   3.115   0.636 -1.3273 -2.1963  0.4142
 8160TIP3    H245972   0.341   3.127   0.614 -1.3431  0.6647  1.6282
 8161TIP3   OH245973   1.273   4.422  12.891 -0.1644  0.4048 -0.0891
 8161TIP3    H145974   1.230   4.508  12.895  0.7757  1.0426 -2.9054
 8161TIP3    H245975   1.321   4.423  12.809  1.7945 -1.9454  0.9830
 8162TIP3   OH245976   1.130   0.013  15.639 -0.5794  0.1029  0.1085
 8162TIP3    H145977   1.218   0.051  15.642 -1.3413  1.8622  1.2481
 8162TIP3    H245978   1.122  -0.023  15.551  1.1608  0.2258 -0.1122
 8163TIP3   OH245979   0.668   4.329  13.661  0.1614  0.4856 -0.4225
 8163TIP3    H145980   0.734   4.265  13.632 -1.0045 -0.3293 -1.3741
 8163TIP3    H245981   0.657   4.387  13.586  0.5584  1.2593  0.1173
 8164TIP3   OH245982   6.884   2.941   0.623  0.1330 -0.1284  0.3255
 8164TIP3    H145983   6.838   2.883   0.563 -1.1035  1.7997 -0.6416
 8164TIP3    H245984   6.934   2.999   0.567  1.5818 -0.4340  1.2895
 8165TIP3   OH245985   1.526   4.376  13.887  0.5654  0.1213 -0.5469
 8165TIP3    H145986   1.490   4.337  13.966  1.9675 -0.6608 -0.2736
 8165TIP3    H245987   1.469   4.450  13.868 -0.5126 -0.4398  0.4815
 8166TIP3   OH245988   3.203   2.435  15.114  0.4911  0.0509 -0.4143
 8166TIP3    H145989   3.189   2.355  15.165  0.1052  0.1771 -0.3159
 8166TIP3    H245990   3.129   2.491  15.138  1.7001  1.1220  0.8500
 8167TIP3   OH245991   1.144   3.208  12.690  0.0739 -0.1490  0.2638
 8167TIP3    H145992   1.228   3.233  12.650  1.4263 -1.7607  2.0452
 8167TIP3    H245993   1.154   3.115  12.711 -1.5492  0.0575  2.0344
 8168TIP3   OH245994   2.101   3.971  14.201  0.6269 -0.0429  0.3560
 8168TIP3    H145995   2.158   3.999  14.130  0.9911 -2.4606 -0.3748
 8168TIP3    H245996   2.159   3.925  14.262 -0.3986 -2.1279 -0.1700
 8169TIP3   OH245997   3.017   4.193   1.319 -0.3253 -0.0586  0.2972
 8169TIP3    H145998   3.082   4.188   1.249  0.3697  1.5715  0.8233
 8169TIP3    H245999   3.065   4.170   1.399 -0.7694 -0.4157  0.4689
 8170TIP3   OH246000   2.016   3.236  15.219  0.2113  0.0276 -0.2917
 8170TIP3    H146001   2.025   3.146  15.189 -0.9574 -0.0120 -0.5467
 8170TIP3    H246002   2.029   3.289  15.140 -2.6800 -0.0694 -0.8828
 8171TIP3   OH246003   1.443   5.139  15.499 -0.1157 -0.3967 -0.3818
 8171TIP3    H146004   1.371   5.171  15.553 -1.9095 -1.5937 -1.9830
 8171TIP3    H246005   1.484   5.070  15.552  1.5130  2.0410  1.5969
 8172TIP3   OH246006   0.298   0.213  13.970 -0.5662  0.4366 -0.8191
 8172TIP3    H146007   0.244   0.258  14.035  1.1822  1.4635 -0.0143
 8172TIP3    H246008   0.291   0.267  13.892  0.3317  1.3106 -0.3099
 8173TIP3   OH246009   2.898   4.041   0.036  0.4974 -0.0068 -0.8036
 8173TIP3    H146010   2.994   4.037   0.033  0.4815 -1.2319  0.1214
 8173TIP3    H246011   2.870   3.950   0.046 -0.6318  0.6287  2.3340
 8174TIP3   OH246012   1.743   4.176  13.304  0.3275  0.6408  0.4679
 8174TIP3    H146013   1.793   4.254  13.329  0.8627  0.7233 -0.8076
 8174TIP3    H246014   1.809   4.113  13.274 -0.2705  0.5706 -0.7532
 8175TIP3   OH246015   0.170   5.022  11.656  0.3881 -0.1378  0.8315
 8175TIP3    H146016   0.183   4.948  11.715  2.2191 -0.5034 -0.0039
 8175TIP3    H246017   0.103   4.992  11.594  0.9008 -0.9989  0.6861
 8176TIP3   OH246018   0.722   5.095  15.300  0.8757  0.1862 -0.1612
 8176TIP3    H146019   0.726   5.143  15.218  0.9218 -1.9255 -1.4279
 8176TIP3    H246020   0.703   5.004  15.275  0.6882 -0.4665  2.1575
 8177TIP3   OH246021   3.123   5.169  13.255  0.1562 -0.5604  0.0563
 8177TIP3    H146022   3.051   5.230  13.240  2.2949  1.5909 -1.9007
 8177TIP3    H246023   3.083   5.096  13.301 -3.1762  0.7999 -0.5215
 8178TIP3   OH246024   1.051   1.311  14.304  0.1439  0.0023  0.7204
 8178TIP3    H146025   1.069   1.322  14.397  1.6801  1.4577  0.2717
 8178TIP3    H246026   1.091   1.387  14.262  2.5720 -2.3726 -1.4862
 8179TIP3   OH246027   6.310   4.309  14.765 -0.6483 -0.9204 -0.4735
 8179TIP3    H146028   6.345   4.396  14.748  0.4043 -1.0119  1.1564
 8179TIP3    H246029   6.376   4.266  14.819 -1.2541 -2.6612 -1.0622
 8180TIP3   OH246030   3.855   5.837  14.487 -0.0468 -0.0567 -0.3643
 8180TIP3    H146031   3.927   5.791  14.530  0.0093  0.8088  0.4821
 8180TIP3    H246032   3.835   5.910  14.545  0.3413  1.4124 -2.0319
 8181TIP3   OH246033   3.234   3.123  15.034  0.0845  0.3414  0.3452
 8181TIP3    H146034   3.264   3.155  14.949  1.9636 -1.8440  0.1371
 8181TIP3    H246035   3.211   3.032  15.019 -0.1858  0.1025  2.0600
 8182TIP3   OH246036   6.864   4.343  11.500 -0.3550 -0.0623  0.3383
 8182TIP3    H146037   6.940   4.397  11.479 -0.0039 -0.9335 -0.6738
 8182TIP3    H246038   6.886   4.301  11.583  0.5951 -0.9198 -0.3446
 8183TIP3   OH246039   2.030   4.884  13.014 -0.2676  0.3282 -0.3188
 8183TIP3    H146040   1.987   4.927  13.087  0.6947 -2.0430  1.7200
 8183TIP3    H246041   2.119   4.867  13.045  0.5111  0.3262 -2.4678
 8184TIP3   OH246042   2.855   4.189  15.639 -0.1279  0.2158  0.2002
 8184TIP3    H146043   2.882   4.166  15.550 -1.5734 -0.5855 -0.0522
 8184TIP3    H246044   2.819   4.108  15.675 -0.8882  0.8929  0.9943
 8185TIP3   OH246045   0.548   2.331  15.495  0.1455  0.2110 -0.0935
 8185TIP3    H146046   0.514   2.261  15.440 -0.4335 -0.0173  0.5503
 8185TIP3    H246047   0.499   2.409  15.468 -1.0780 -0.1700  1.0108
 8186TIP3   OH246048   2.278   4.905  13.124 -0.4713  0.3570 -0.5667
 8186TIP3    H146049   2.289   4.966  13.051 -0.8438 -0.8155 -1.6278
 8186TIP3    H246050   2.355   4.848  13.120  0.6915  1.7304  1.4038
 8187TIP3   OH246051   6.713   3.797   0.388 -0.0088 -0.3571  0.0548
 8187TIP3    H146052   6.751   3.720   0.347 -0.1722 -0.6136  0.3844
 8187TIP3    H246053   6.627   3.769   0.420 -1.2163  0.6609 -2.1584
 8188TIP3   OH246054   1.912   0.242  13.828  0.5874 -0.2911 -0.1418
 8188TIP3    H146055   1.849   0.312  13.844  0.4295 -0.1083 -1.4709
 8188TIP3    H246056   1.873   0.191  13.756  2.6193  0.6907 -1.9988
 8189TIP3   OH246057   2.454   5.473  15.499 -0.3984  0.2442 -0.2513
 8189TIP3    H146058   2.381   5.509  15.449  0.2804  1.0418 -0.6666
 8189TIP3    H246059   2.451   5.519  15.582  0.2229  0.9898 -0.6318
 8190TIP3   OH246060   0.921   5.346  13.971 -0.1108 -0.0162  0.1282
 8190TIP3    H146061   0.898   5.257  13.943  0.6728  0.5433 -2.4090
 8190TIP3    H246062   0.842   5.397  13.954 -0.2125 -0.0059  0.6169
 8191TIP3   OH246063   2.037   5.837  13.776 -0.7384  0.9897  0.3973
 8191TIP3    H146064   1.976   5.872  13.842  0.0701 -0.9101  2.2134
 8191TIP3    H246065   2.123   5.839  13.820 -0.4479 -1.8575  0.0400
 8192TIP3   OH246066   6.838   5.936  13.687 -0.4809  0.1243 -0.4557
 8192TIP3    H146067   6.847   5.844  13.661  1.6823  0.1195  0.1626
 8192TIP3    H246068   6.926   5.973  13.675 -1.3762  2.1826 -0.9139
 8193TIP3   OH246069   0.790   4.607  12.240 -0.0026 -0.4192 -0.1574
 8193TIP3    H146070   0.864   4.629  12.296 -0.5796 -0.2267  0.5494
 8193TIP3    H246071   0.750   4.691  12.219 -1.8481 -0.6970  2.0361
 8194TIP3   OH246072   0.351   5.872  15.638 -0.2477 -0.0019 -0.2786
 8194TIP3    H146073   0.350   5.898  15.730  0.2486  2.5519 -0.9737
 8194TIP3    H246074   0.266   5.829  15.624 -0.0033 -1.1245  1.5301
 8195TIP3   OH246075   6.942   6.373  15.164  0.6055 -0.2558 -0.0653
 8195TIP3    H146076   6.973   6.348  15.251  0.4484 -0.8145 -0.1693
 8195TIP3    H246077   6.857   6.414  15.179 -0.2112 -1.8735 -0.1017
 8196TIP3   OH246078   0.752   2.865  13.073 -0.6472  0.4570  0.1749
 8196TIP3    H146079   0.674   2.856  13.128 -0.7705 -0.8555 -0.2155
 8196TIP3    H246080   0.810   2.923  13.123 -0.8555 -0.5324  1.5706
 8197TIP3   OH246081   0.308   5.960  13.463  0.2420  0.4567  0.1377
 8197TIP3    H146082   0.318   5.879  13.512  0.0617 -0.5092 -1.4144
 8197TIP3    H246083   0.262   5.935  13.383 -1.7844  2.4339  0.5995
 8198TIP3   OH246084   1.035   4.090  13.099  1.0317 -0.3347 -0.2771
 8198TIP3    H146085   1.069   4.001  13.112  0.5986 -0.3873  0.5550
 8198TIP3    H246086   1.058   4.112  13.009  0.6984 -1.4809 -0.6514
 8199TIP3   OH246087   2.955   4.963  15.314  0.3215 -0.2863  0.0439
 8199TIP3    H146088   3.035   4.910  15.320 -0.4503 -1.4585  0.2927
 8199TIP3    H246089   2.958   5.021  15.390  0.8261 -0.4854  0.1746
 8200TIP3   OH246090   1.150   4.664  12.859 -0.0287  0.3918  0.1895
 8200TIP3    H146091   1.162   4.756  12.834 -0.1403  0.5013  0.5325
 8200TIP3    H246092   1.063   4.641  12.825 -0.2354  0.5786  0.5955
 8201TIP3   OH246093   0.998   6.329  14.128 -0.1900  0.1997 -0.5465
 8201TIP3    H146094   0.938   6.337  14.202  1.6080  2.1305  0.7993
 8201TIP3    H246095   1.003   6.235  14.110 -1.1694 -0.2357  1.3636
 8202TIP3   OH246096   1.351   5.120  13.759 -0.2395 -0.2535  0.0747
 8202TIP3    H146097   1.409   5.146  13.832  0.1733 -0.9414 -0.0028
 8202TIP3    H246098   1.334   5.201  13.712 -0.4413  0.1879  0.8936
 8203TIP3   OH246099   5.508   7.324  15.385  0.2652 -0.3608 -0.1609
 8203TIP3    H146100   5.427   7.288  15.422 -1.4779  1.3243 -2.2054
 8203TIP3    H246101   5.507   7.416  15.411  2.1185 -0.5630  0.7247
 8204TIP3   OH246102   1.952   0.206  15.409  0.0376 -0.4090  0.7584
 8204TIP3    H146103   2.026   0.163  15.453  0.5953 -0.2317  0.0159
 8204TIP3    H246104   1.900   0.135  15.373 -0.2614 -0.5435  1.4539
 8205TIP3   OH246105   1.784   4.096  14.338 -0.1127 -0.5632  0.2086
 8205TIP3    H146106   1.771   4.092  14.243 -1.1530 -0.7176  0.3587
 8205TIP3    H246107   1.714   4.043  14.375 -1.0899  1.3535  1.1735
 8206TIP3   OH246108   2.537   6.293  14.302 -0.6689  0.2407 -0.9273
 8206TIP3    H146109   2.596   6.362  14.331 -0.1335 -0.2773 -0.7823
 8206TIP3    H246110   2.593   6.231  14.255 -1.3896  0.6410 -2.3435
 8207TIP3   OH246111   0.934   3.011  12.893 -0.0397  0.3757  0.3659
 8207TIP3    H146112   0.864   3.010  12.958  0.6205 -2.0272  1.0902
 8207TIP3    H246113   1.009   2.973  12.938  2.0770  3.8287 -0.0896
 8208TIP3   OH246114   3.464   5.177  15.475 -0.3292  0.3398  0.0511
 8208TIP3    H146115   3.499   5.225  15.551 -0.1355 -1.3970  1.0846
 8208TIP3    H246116   3.373   5.158  15.499 -0.3853  0.1400 -0.3196
 8209TIP3   OH246117   0.385   4.214  13.175 -0.3113  0.6219  0.4174
 8209TIP3    H146118   0.310   4.156  13.180 -0.2880  0.3715 -1.5632
 8209TIP3    H246119   0.412   4.228  13.266 -0.8737 -1.7146  0.9578
 8210TIP3   OH246120   6.778   1.245  13.250 -0.0412 -0.0737  0.2766
 8210TIP3    H146121   6.838   1.169  13.251  0.8077  0.5403 -1.5516
 8210TIP3    H246122   6.777   1.273  13.158 -0.7868  1.7873  0.8373
 8211TIP3   OH246123   7.154   4.441  14.127  0.1274 -0.0472 -0.4476
 8211TIP3    H146124   7.096   4.386  14.179  1.7333 -0.4788  0.9267
 8211TIP3    H246125   7.228   4.460  14.185  1.2891  0.6264 -2.1029
 8212TIP3   OH246126   0.125   6.437   0.694  0.2728 -0.0886  0.3597
 8212TIP3    H146127   0.086   6.357   0.659 -0.0286  0.8626 -1.5833
 8212TIP3    H246128   0.214   6.412   0.719 -0.7912 -1.7339  2.6386
 8213TIP3   OH246129   2.866   6.580  12.631  0.2066 -0.0255 -0.2580
 8213TIP3    H146130   2.855   6.671  12.658 -1.1852 -0.1878 -0.2517
 8213TIP3    H246131   2.958   6.574  12.605  0.8988  0.8116  1.8769
 8214TIP3   OH246132   0.457   3.729  12.091 -0.6733 -0.1885  0.1195
 8214TIP3    H146133   0.414   3.749  12.174  0.3088  0.9248  0.3805
 8214TIP3    H246134   0.476   3.636  12.096 -1.2069 -0.2595  0.8744
 8215TIP3   OH246135   0.150   5.394  15.947  0.1100 -0.5811  0.0680
 8215TIP3    H146136   0.230   5.401  15.999  0.6219 -1.8942 -0.5166
 8215TIP3    H246137   0.088   5.349  16.005 -0.4621  1.0978  0.7901
 8216TIP3   OH246138   3.420   3.295  15.176 -0.4854 -0.3485 -0.4930
 8216TIP3    H146139   3.456   3.322  15.091  0.1500 -1.9350 -0.7471
 8216TIP3    H246140   3.371   3.216  15.156  3.7314 -3.6054  1.3705
 8217TIP3   OH246141   1.508   4.784  13.747  0.4861 -0.3872 -0.1716
 8217TIP3    H146142   1.499   4.813  13.656 -0.5261 -0.2285 -0.0281
 8217TIP3    H246143   1.476   4.857  13.799 -0.3035 -1.0152  0.2489
 8218TIP3   OH246144   0.601   0.762  15.021  0.2462 -0.1749  0.8094
 8218TIP3    H146145   0.583   0.753  14.928  1.2266  0.7091  0.5159
 8218TIP3    H246146   0.558   0.844  15.046  0.6975  0.0218  0.9454
 8219TIP3   OH246147   1.588   3.029  14.635  0.1340 -0.2320  0.3607
 8219TIP3    H146148   1.604   3.100  14.572 -0.3557 -0.8439 -0.4669
 8219TIP3    H246149   1.637   3.055  14.713 -1.8588  2.1738  0.8900
 8220TIP3   OH246150   1.301   3.145  15.239 -0.7106 -0.0754 -0.2198
 8220TIP3    H146151   1.390   3.114  15.219 -1.0827 -2.2557  1.2515
 8220TIP3    H246152   1.282   3.210  15.172  2.0343  0.4827 -0.5089
 8221TIP3   OH246153   1.561   3.032  13.396  0.1472 -0.4602 -0.1982
 8221TIP3    H146154   1.489   3.076  13.441 -0.8127 -1.8665 -0.3276
 8221TIP3    H246155   1.616   3.103  13.364 -0.3928  0.6100  1.1807
 8222TIP3   OH246156   1.649   2.645  11.902 -0.1054 -0.1091 -0.0951
 8222TIP3    H146157   1.597   2.712  11.946  0.0309  1.3995 -2.1816
 8222TIP3    H246158   1.716   2.693  11.854  1.1509 -1.8487 -0.1576
 8223TIP3   OH246159   0.509   3.153  14.432  0.6260 -0.1587 -0.4447
 8223TIP3    H146160   0.465   3.195  14.358  1.3110  0.5015 -0.4771
 8223TIP3    H246161   0.544   3.071  14.396 -1.7155 -1.3819 -0.1131
 8224TIP3   OH246162   3.125   3.747  14.818 -0.5575 -0.4566 -0.5732
 8224TIP3    H146163   3.202   3.736  14.874 -1.2451  0.7094  0.6509
 8224TIP3    H246164   3.085   3.660  14.815  1.0371 -1.1639 -1.5748
 8225TIP3   OH246165   1.475   4.722  14.553 -0.6331 -0.1970  0.3078
 8225TIP3    H146166   1.458   4.633  14.522 -3.2719  0.6813 -0.8436
 8225TIP3    H246167   1.475   4.714  14.649  0.5336 -1.6541  0.2087
 8226TIP3   OH246168   0.068   4.420  14.246  0.3181  0.0076 -0.3547
 8226TIP3    H146169   0.140   4.467  14.289 -0.3360 -0.7417  1.6119
 8226TIP3    H246170   0.101   4.331  14.237  0.0984 -0.0500 -0.5759
 8227TIP3   OH246171   0.569   5.056  12.322  0.1717  0.0120 -0.0563
 8227TIP3    H146172   0.582   5.138  12.275  0.3565 -0.2304 -0.4301
 8227TIP3    H246173   0.649   5.046  12.375  0.9423 -0.8227 -1.3653
 8228TIP3   OH246174   3.196   5.156  15.535  0.3838  0.4122 -0.5310
 8228TIP3    H146175   3.147   5.215  15.478  1.2968 -0.7797 -2.5737
 8228TIP3    H246176   3.136   5.138  15.608 -1.5315  0.4057 -2.0696
 8229TIP3   OH246177   2.242   1.453  13.160  0.2357  0.6957 -0.4613
 8229TIP3    H146178   2.233   1.466  13.255  0.5120 -1.9695 -0.0277
 8229TIP3    H246179   2.168   1.501  13.122  0.3722  2.1624  1.0411
 8230TIP3   OH246180   2.247   6.956  15.984 -0.6378 -0.0640 -0.0547
 8230TIP3    H146181   2.194   7.009  16.042  1.6763  1.7349  0.4788
 8230TIP3    H246182   2.248   7.004  15.901  0.5901  0.1929  0.1036
 8231TIP3   OH246183   5.199   6.031   0.157  0.2108  0.1579  0.0163
 8231TIP3    H146184   5.105   6.049   0.145  0.4888  1.0766 -0.7926
 8231TIP3    H246185   5.242   6.114   0.137  1.0563  0.3715  2.5162
 8232TIP3   OH246186   2.152   5.332  13.490 -0.1143 -0.1057 -0.5934
 8232TIP3    H146187   2.228   5.323  13.548 -0.0196  2.0441 -0.3427
 8232TIP3    H246188   2.164   5.264  13.424  1.2102 -0.8057  0.3438
 8233TIP3   OH246189   1.109   2.973  15.433  0.2587  0.2669 -0.0342
 8233TIP3    H146190   1.157   3.019  15.364 -1.2172 -0.3644 -1.5052
 8233TIP3    H246191   1.174   2.914  15.472  0.8711 -0.0996 -1.5651
 8234TIP3   OH246192   0.974   3.734  15.286  0.5292 -0.5143 -0.5115
 8234TIP3    H146193   0.885   3.760  15.307  0.8434 -0.1633  0.4088
 8234TIP3    H246194   0.998   3.789  15.212  0.2104 -0.1342 -0.3372
 8235TIP3   OH246195   0.883   3.609   0.126  0.3546  0.4560  0.0291
 8235TIP3    H146196   0.940   3.557   0.183  1.9370  0.1983 -1.7421
 8235TIP3    H246197   0.901   3.576   0.038 -0.4494  2.3180 -0.8573
 8236TIP3   OH246198   6.818   4.855  12.731 -0.0816 -0.7168 -0.5073
 8236TIP3    H146199   6.746   4.859  12.794  0.3853 -0.0195 -0.0088
 8236TIP3    H246200   6.780   4.887  12.649 -0.2652 -0.0938 -0.1811
 8237TIP3   OH246201   2.699   4.835  13.676 -0.2310 -0.3960 -0.7357
 8237TIP3    H146202   2.672   4.748  13.646  2.1601 -0.9313 -1.4325
 8237TIP3    H246203   2.669   4.840  13.767  0.2876 -2.2459 -0.4469
 8238TIP3   OH246204   0.646   3.413  14.225  0.2085 -0.1525 -0.1938
 8238TIP3    H146205   0.552   3.397  14.235  0.2368  0.6032  1.4333
 8238TIP3    H246206   0.652   3.473  14.151 -0.6148  0.0444 -0.1057
 8239TIP3   OH246207   7.294   2.683  13.480 -0.3783  0.0222  0.0391
 8239TIP3    H146208   7.266   2.598  13.447 -1.2382  0.0339  0.7346
 8239TIP3    H246209   7.288   2.741  13.404  0.0807 -0.5011 -0.4010
 8240TIP3   OH246210   7.075   2.635  14.581  0.2305  0.4836 -0.7014
 8240TIP3    H146211   7.020   2.661  14.654 -0.7945 -0.8790 -0.9605
 8240TIP3    H246212   7.112   2.717  14.548 -1.4379  1.3890 -0.3600
 8241TIP3   OH246213   0.341   3.548  13.628 -0.4999  0.0407  0.3548
 8241TIP3    H146214   0.381   3.537  13.542  1.1563 -0.8491  1.2362
 8241TIP3    H246215   0.281   3.474  13.636 -0.0008 -0.3675  0.3331
 8242TIP3   OH246216   2.386   6.332  15.134 -0.0234  0.0373 -0.6907
 8242TIP3    H146217   2.331   6.255  15.125 -0.1841 -0.0368  0.7549
 8242TIP3    H246218   2.392   6.369  15.046 -2.1294 -0.1117 -0.9192
 8243TIP3   OH246219   2.313   5.922  14.925 -0.4727  0.0388 -0.3342
 8243TIP3    H146220   2.400   5.962  14.921 -1.0653  1.1552 -2.7485
 8243TIP3    H246221   2.257   5.991  14.961 -0.5894 -0.2977  0.1388
 8244TIP3   OH246222   2.731   7.323   0.368  1.1319 -0.0520  0.5386
 8244TIP3    H146223   2.728   7.244   0.423 -3.1188 -0.6110 -0.3019
 8244TIP3    H246224   2.675   7.386   0.413  1.8238  1.3493 -0.5182
 8245TIP3   OH246225   1.933   6.224  13.826  0.2560 -0.3287 -0.1403
 8245TIP3    H146226   1.965   6.290  13.889  2.0409 -0.3625 -0.9866
 8245TIP3    H246227   1.935   6.142  13.875 -1.5564  0.1430  0.7834
 8246TIP3   OH246228   2.039   5.823  15.707  0.3842  0.1298  0.0975
 8246TIP3    H146229   2.042   5.849  15.799  1.9823  0.4252 -0.0192
 8246TIP3    H246230   2.000   5.899  15.663  1.2945  0.7336  0.3041
 8247TIP3   OH246231   2.452   4.313  13.652 -0.3235  0.2547 -0.5455
 8247TIP3    H146232   2.487   4.224  13.660 -2.2581 -0.7123 -2.4194
 8247TIP3    H246233   2.510   4.356  13.589  0.0930  0.0761 -0.2914
 8248TIP3   OH246234   2.088   2.903  15.123 -0.1252 -0.2029  0.5150
 8248TIP3    H146235   2.035   2.851  15.062 -2.0478  1.3562  0.7862
 8248TIP3    H246236   2.040   2.899  15.205  0.1690  1.2152  0.7762
 8249TIP3   OH246237   0.671   6.175   0.155  0.5521 -0.1472 -0.3151
 8249TIP3    H146238   0.728   6.123   0.098  0.1557 -1.8913  0.8446
 8249TIP3    H246239   0.729   6.211   0.222  0.4136 -1.3445  0.4573
 8250TIP3   OH246240   0.729   5.454  14.892  0.1111 -0.7372  1.1080
 8250TIP3    H146241   0.696   5.390  14.828  1.3983 -0.3945  0.0895
 8250TIP3    H246242   0.664   5.524  14.891  0.7800 -0.0979 -0.8452
 8251TIP3   OH246243   1.637   1.087  11.567  0.3956 -0.0458 -0.4685
 8251TIP3    H146244   1.709   1.087  11.504  0.9948 -1.0760  0.1958
 8251TIP3    H246245   1.587   1.008  11.546  0.0802  0.0924 -0.2343
 8252TIP3   OH246246   6.558   0.242   1.011 -0.4164  0.3826  0.4254
 8252TIP3    H146247   6.601   0.238   0.926  0.3269  2.1643  0.7072
 8252TIP3    H246248   6.587   0.163   1.056 -2.5743 -1.7446 -1.7778
 8253TIP3   OH246249   6.868   2.538  13.263  0.3931 -0.6798 -0.1985
 8253TIP3    H146250   6.784   2.510  13.227  0.4859  1.5046 -2.1887
 8253TIP3    H246251   6.930   2.526  13.191  0.9033  2.1111 -0.2797
 8254TIP3   OH246252   1.454   5.116  12.910  0.0309 -0.3461 -0.1123
 8254TIP3    H146253   1.500   5.195  12.882 -0.5860 -0.1080 -0.4665
 8254TIP3    H246254   1.523   5.055  12.935  0.4933  0.4628  0.5891
 8255TIP3   OH246255   1.347   6.796  12.775  0.4092 -0.3698 -0.7358
 8255TIP3    H146256   1.320   6.887  12.787  0.0290 -0.5705  0.0109
 8255TIP3    H246257   1.289   6.746  12.833 -0.2014 -1.2197 -2.0535
 8256TIP3   OH246258   2.576   5.022  15.141 -0.4542  0.1097 -0.0036
 8256TIP3    H146259   2.643   5.091  15.141 -0.4645  0.1186 -0.4634
 8256TIP3    H246260   2.521   5.043  15.217 -0.2461  0.4027  0.0682
 8257TIP3   OH246261   1.531   7.129  14.974 -0.3686 -1.0679  0.5283
 8257TIP3    H146262   1.468   7.066  15.012  0.1729 -2.4594 -0.8314
 8257TIP3    H246263   1.502   7.139  14.883  0.8875 -1.0737  0.1267
 8258TIP3   OH246264   6.031   4.941   0.239 -0.3808 -0.3853 -0.3369
 8258TIP3    H146265   6.123   4.923   0.217 -0.4939 -0.5592 -0.6707
 8258TIP3    H246266   5.988   4.953   0.154 -0.7940 -0.9254 -0.2053
 8259TIP3   OH246267   2.739   3.468  15.247 -0.1128  0.2808  0.1303
 8259TIP3    H146268   2.766   3.545  15.197  2.2690 -0.7888 -0.3131
 8259TIP3    H246269   2.678   3.502  15.312 -0.9791  2.1568 -1.5869
 8260TIP3   OH246270   7.216   5.180  14.632 -0.5369 -0.0382 -0.5583
 8260TIP3    H146271   7.167   5.105  14.665 -1.1598  0.1718 -1.0078
 8260TIP3    H246272   7.259   5.216  14.710  1.8942 -2.4025 -0.7548
 8261TIP3   OH246273   6.498   6.369  13.148 -0.2070 -0.0874  0.5229
 8261TIP3    H146274   6.570   6.432  13.145 -0.6466  0.4073  0.2357
 8261TIP3    H246275   6.461   6.370  13.060 -0.9032  0.0681  0.8095
 8262TIP3   OH246276   0.112   5.677  14.896  0.3625 -0.5455  0.1032
 8262TIP3    H146277   0.146   5.756  14.939  2.2697 -0.9755 -0.5862
 8262TIP3    H246278   0.160   5.605  14.937 -0.8958 -1.3099  0.2553
 8263TIP3   OH246279   0.714   1.130  14.424 -0.0032 -0.5001 -0.2109
 8263TIP3    H146280   0.699   1.103  14.515 -1.4926 -3.2359 -1.2294
 8263TIP3    H246281   0.629   1.120  14.381  0.5010  1.4953 -1.7489
 8264TIP3   OH246282   0.336   3.023  15.285 -0.3143 -0.5992 -0.5639
 8264TIP3    H146283   0.370   2.936  15.305  1.7598 -0.1400 -1.9089
 8264TIP3    H246284   0.413   3.080  15.287 -1.5813  1.1524 -0.0845
 8265TIP3   OH246285   0.661   1.950   0.481  0.0306  0.3866  0.5232
 8265TIP3    H146286   0.664   1.904   0.565  1.1697  0.9285  0.7957
 8265TIP3    H246287   0.733   1.912   0.431 -0.5340  0.1934 -0.1431
 8266TIP3   OH246288   2.655   5.293  13.848  0.0120  0.2989 -0.5075
 8266TIP3    H146289   2.672   5.308  13.755  0.4595 -0.9499 -0.6440
 8266TIP3    H246290   2.739   5.311  13.890 -0.0069  0.1949 -0.4264
 8267TIP3   OH246291   0.274   5.252  15.303 -0.0890  0.9825  0.0619
 8267TIP3    H146292   0.342   5.320  15.303  2.0693 -1.0911  2.1371
 8267TIP3    H246293   0.203   5.290  15.354  1.3776  1.4881  1.8142
 8268TIP3   OH246294   1.542   3.711  15.021  0.2045  0.5019 -0.0139
 8268TIP3    H146295   1.579   3.647  15.082 -0.5493 -1.4670 -1.5663
 8268TIP3    H246296   1.602   3.709  14.946  0.6497  2.2740  0.2723
 8269TIP3   OH246297   0.891   1.609  12.487 -0.4037 -0.0815  0.0434
 8269TIP3    H146298   0.951   1.538  12.511  0.1601  0.6990  1.0073
 8269TIP3    H246299   0.902   1.620  12.393 -0.4656 -1.2369 -0.1096
 8270TIP3   OH246300   1.288   4.743  13.123 -0.0891 -0.7308  0.2681
 8270TIP3    H146301   1.215   4.689  13.094 -0.4189 -0.4604  0.5770
 8270TIP3    H246302   1.355   4.733  13.055 -0.2345 -1.3409  0.2109
 8271TIP3   OH246303   2.207   2.392  14.278  0.0518 -0.3866 -0.1004
 8271TIP3    H146304   2.184   2.478  14.244 -2.0558 -1.4520 -1.5045
 8271TIP3    H246305   2.172   2.331  14.213  1.4743 -2.3045  0.8826
 8272TIP3   OH246306   0.552   4.586  14.846 -0.0771 -0.2251 -0.3307
 8272TIP3    H146307   0.633   4.595  14.796  0.2614  0.1709  0.2886
 8272TIP3    H246308   0.575   4.615  14.934 -0.5511 -1.3937  0.1830
 8273TIP3   OH246309   1.813   3.557  14.149  0.8255 -0.1358 -0.3161
 8273TIP3    H146310   1.815   3.626  14.215 -2.9626  1.2361 -1.5029
 8273TIP3    H246311   1.827   3.602  14.066  1.0341 -1.1650 -0.8493
 8274TIP3   OH246312   0.572   4.771  14.174  0.2061 -1.0178  0.0314
 8274TIP3    H146313   0.651   4.798  14.222  0.9087  1.1735 -2.2329
 8274TIP3    H246314   0.500   4.792  14.233  1.1380  0.0765  0.8064
 8275TIP3   OH246315   7.228   2.573  15.172  0.7788  0.0519  0.2573
 8275TIP3    H146316   7.275   2.489  15.169 -1.1546 -1.1278  1.6762
 8275TIP3    H246317   7.254   2.618  15.091  3.0867 -1.2297  0.2504
 8276TIP3   OH246318   3.197   6.780  15.322  0.6133 -0.0429  0.3788
 8276TIP3    H146319   3.182   6.696  15.278 -1.2596  0.2339  0.4736
 8276TIP3    H246320   3.201   6.758  15.415 -0.2094  0.0145  0.4288
 8277TIP3   OH246321   0.610   1.204   0.615  0.0270 -0.9489 -0.2552
 8277TIP3    H146322   0.668   1.221   0.541 -0.5826 -3.1993 -1.2770
 8277TIP3    H246323   0.531   1.256   0.596  0.3874 -0.4960 -0.5214
 8278TIP3   OH246324   6.787   6.868   0.315 -0.0455 -0.1571 -0.1769
 8278TIP3    H146325   6.827   6.920   0.246  1.5482 -0.3867  0.5607
 8278TIP3    H246326   6.860   6.829   0.362 -1.0024  1.1013  2.5199
 8279TIP3   OH246327   5.646   3.842   1.776  0.2606 -0.4856  0.1685
 8279TIP3    H146328   5.658   3.748   1.789  0.8534 -0.5200 -0.5984
 8279TIP3    H246329   5.553   3.856   1.792 -0.0845 -1.4075 -0.8948
 8280TIP3   OH246330   6.352   5.860   0.841  0.3803 -0.0701 -0.6080
 8280TIP3    H146331   6.351   5.856   0.937 -1.8569  1.1022 -0.5360
 8280TIP3    H246332   6.341   5.953   0.821  0.8892 -0.3032 -2.0187
 8281TIP3   OH246333   1.102   4.964  13.420 -0.4567 -0.6595 -0.9548
 8281TIP3    H146334   1.034   4.904  13.452  0.2270 -1.2860 -0.6603
 8281TIP3    H246335   1.068   4.996  13.336 -1.5141 -0.2783 -0.3805
 8282TIP3   OH246336   6.756   5.611   0.962 -0.2985 -0.2395 -0.4135
 8282TIP3    H146337   6.799   5.610   0.877 -0.7208 -1.6756 -0.6205
 8282TIP3    H246338   6.664   5.593   0.943 -0.4252 -0.3937  0.3262
 8283TIP3   OH246339   1.148   3.582  12.581 -0.6224  0.2982 -0.1772
 8283TIP3    H146340   1.213   3.532  12.531 -0.7024 -0.4552  0.4670
 8283TIP3    H246341   1.161   3.555  12.672 -0.3925  1.7606  0.2306
 8284TIP3   OH246342   5.307   3.123  13.666  0.7193 -0.4361 -0.4620
 8284TIP3    H146343   5.349   3.118  13.752  1.9186 -0.5403 -1.0431
 8284TIP3    H246344   5.218   3.152  13.685  1.2408  0.4271  0.7350
 8285TIP3   OH246345   0.274   2.160  13.097 -0.4252  0.0947  0.2375
 8285TIP3    H146346   0.323   2.211  13.032  0.7214  0.0685  1.0496
 8285TIP3    H246347   0.192   2.138  13.054 -0.1575  1.0528 -0.7884
 8286TIP3   OH246348   6.323   7.028   0.475  0.2026 -0.0126 -0.5591
 8286TIP3    H146349   6.288   7.059   0.391  1.2601 -0.6837 -1.2602
 8286TIP3    H246350   6.388   6.962   0.451  0.4349 -0.2944  0.7999
 8287TIP3   OH246351   7.101   1.277  14.230 -0.0540 -0.1396 -0.9108
 8287TIP3    H146352   7.049   1.291  14.151  0.4290 -0.2427 -1.2499
 8287TIP3    H246353   7.070   1.193  14.265  0.3146 -0.5137 -1.4606
 8288TIP3   OH246354   2.195   4.988  15.302  0.0289  0.3957  0.3084
 8288TIP3    H146355   2.271   5.045  15.293  0.5760 -0.8078 -3.5210
 8288TIP3    H246356   2.232   4.901  15.318 -0.6177  0.2596  1.0823
 8289TIP3   OH246357   0.980   5.165  13.574  0.7084  0.4831  0.0760
 8289TIP3    H146358   0.895   5.156  13.531  0.6914  2.8406 -0.4620
 8289TIP3    H246359   1.042   5.126  13.512  0.1743 -0.1157 -0.0869
 8290TIP3   OH246360   1.095   3.155  13.802  0.2964 -0.2210  0.4515
 8290TIP3    H146361   1.044   3.235  13.796 -0.6867 -0.8882 -0.3904
 8290TIP3    H246362   1.105   3.139  13.896 -0.5949  0.2063  0.6207
 8291TIP3   OH246363   2.502   2.945  14.719  0.3637 -0.0600  0.5999
 8291TIP3    H146364   2.464   3.030  14.698  0.3890 -0.3200 -0.5295
 8291TIP3    H246365   2.504   2.943  14.815  1.5671  1.7539  0.6450
 8292TIP3   OH246366   0.740   4.641  11.539  0.8143  0.0267  0.5922
 8292TIP3    H146367   0.722   4.648  11.445  1.8667 -1.7594  0.2384
 8292TIP3    H246368   0.667   4.687  11.581  0.4235  0.9776 -1.1028
 8293TIP3   OH246369   1.499   5.969  15.019  0.2169  0.5246 -0.6453
 8293TIP3    H146370   1.431   6.016  15.066  1.5896  2.4310 -0.4976
 8293TIP3    H246371   1.548   5.923  15.087 -0.5120 -0.3302 -0.6877
 8294TIP3   OH246372   0.705   2.140  13.075 -0.1703 -0.5580 -0.1606
 8294TIP3    H146373   0.651   2.061  13.075  1.2167 -1.5324 -0.5462
 8294TIP3    H246374   0.727   2.153  12.983 -0.6771  0.4965 -0.1398
 8295TIP3   OH246375   0.844   2.017  15.378 -0.0692 -0.3431  0.5357
 8295TIP3    H146376   0.767   1.962  15.361  1.2545 -1.8339 -0.8027
 8295TIP3    H246377   0.860   2.061  15.294  1.5792 -1.3952  0.2841
 8296TIP3   OH246378   2.914   3.450  15.618  0.2334 -0.1419 -0.2323
 8296TIP3    H146379   2.827   3.440  15.656  0.5571 -2.5003 -0.0244
 8296TIP3    H246380   2.968   3.485  15.690 -0.4069  0.7610 -0.1909
 8297TIP3   OH246381   2.443   2.377  15.684  0.1922 -0.0050 -0.5125
 8297TIP3    H146382   2.386   2.347  15.613  0.7181 -0.2927 -0.8132
 8297TIP3    H246383   2.467   2.467  15.660 -0.2892  0.1866 -0.2875
 8298TIP3   OH246384   6.825   1.523  14.552 -0.3676 -0.6294  0.2374
 8298TIP3    H146385   6.756   1.461  14.576 -1.1094  0.4160  0.8470
 8298TIP3    H246386   6.906   1.475  14.567 -0.9065 -1.1021  1.7517
 8299TIP3   OH246387   0.021   0.484  12.566 -0.0227 -0.4855  0.6451
 8299TIP3    H146388   0.092   0.510  12.508 -0.7267 -1.1236 -0.5278
 8299TIP3    H246389  -0.000   0.564  12.616  0.0873  0.2705 -0.5067
 8300TIP3   OH246390   0.195   2.663  15.763  0.0555  0.1111  0.3684
 8300TIP3    H146391   0.285   2.666  15.795  0.2332  3.4162 -0.1929
 8300TIP3    H246392   0.146   2.718  15.824 -1.2246 -0.1961 -0.3622
 8301TIP3   OH246393   0.765   3.545  12.121  0.3696  0.7862  0.3037
 8301TIP3    H146394   0.754   3.640  12.125  4.0035  1.2801  0.7297
 8301TIP3    H246395   0.754   3.524  12.028 -1.9351  1.3630  0.4093
 8302TIP3   OH246396   1.350   3.469  15.312  0.3693 -0.4496 -0.1595
 8302TIP3    H146397   1.310   3.419  15.241 -0.1333 -0.9489  0.4734
 8302TIP3    H246398   1.275   3.507  15.360  0.7234  0.4279 -0.2831
 8303TIP3   OH246399   1.135   2.869  14.553 -0.3461  0.0107  0.1441
 8303TIP3    H146400   1.155   2.789  14.602 -0.2690  0.8606  1.5436
 8303TIP3    H246401   1.040   2.865  14.538  0.0095 -1.4600 -1.8540
 8304TIP3   OH246402   3.873   3.237  14.392  0.0840  0.4991 -0.3124
 8304TIP3    H146403   3.954   3.190  14.415  0.4556  0.9884 -0.6140
 8304TIP3    H246404   3.902   3.327  14.374 -0.8602  1.3359  2.1206
 8305TIP3   OH246405   1.261   0.425   0.461 -0.1486 -0.2750  0.0383
 8305TIP3    H146406   1.343   0.437   0.509 -1.0358 -1.8774  2.0681
 8305TIP3    H246407   1.264   0.334   0.431 -0.5970  0.0464 -0.9889
 8306TIP3   OH246408   1.113   4.064  15.340  0.1139  0.1534  0.0115
 8306TIP3    H146409   1.190   4.008  15.343 -0.7608 -1.0551  0.0350
 8306TIP3    H246410   1.144   4.148  15.373  1.4497 -0.2767 -0.1035
 8307TIP3   OH246411   7.081   2.482  15.418 -0.5998 -0.8023  0.5210
 8307TIP3    H146412   7.120   2.518  15.338  0.7528  0.7931  1.8512
 8307TIP3    H246413   7.150   2.426  15.456 -0.5337 -0.0741  1.5061
 8308TIP3   OH246414   0.442   3.015  13.797  0.3601  0.4213  0.6425
 8308TIP3    H146415   0.503   3.018  13.871 -0.4798 -1.4139  1.4320
 8308TIP3    H246416   0.441   2.923  13.770  0.2948  0.9780 -1.3743
 8309TIP3   OH246417   1.175   5.077  14.543 -0.4437  0.4254 -0.1113
 8309TIP3    H146418   1.124   5.019  14.600 -1.7503  0.9426 -0.7422
 8309TIP3    H246419   1.255   5.094  14.592 -0.2408 -1.5662  0.2619
 8310TIP3   OH246420   0.728   1.723  13.711  0.2132  0.2079 -0.3410
 8310TIP3    H146421   0.744   1.742  13.619  1.1481 -1.1534 -0.4746
 8310TIP3    H246422   0.677   1.798  13.743 -1.0894  0.1554 -2.2289
 8311TIP3   OH246423   1.180   6.053  14.500  0.0792 -0.3001 -0.2217
 8311TIP3    H146424   1.260   6.061  14.448 -0.4121 -0.7780 -1.0651
 8311TIP3    H246425   1.127   5.988  14.453 -1.4127  1.0742 -0.4602
 8312TIP3   OH246426   2.428   4.050  15.154  0.1385  0.3715  0.0107
 8312TIP3    H146427   2.518   4.030  15.179 -0.1444 -0.8763  0.0647
 8312TIP3    H246428   2.437   4.105  15.076  0.9451  0.0764 -0.1103
 8313TIP3   OH246429   2.004   6.470  15.013 -0.2289  0.1263 -0.0018
 8313TIP3    H146430   1.937   6.476  14.945  0.3482  0.2300 -0.5744
 8313TIP3    H246431   1.997   6.381  15.047 -2.2738  0.8811  1.6370
 8314TIP3   OH246432   0.079   2.888   1.084  0.5228  0.2576 -0.5978
 8314TIP3    H146433   0.136   2.965   1.086  1.8466 -0.7011 -1.1871
 8314TIP3    H246434   0.094   2.849   0.998 -0.1103 -0.6835 -0.2843
 8315TIP3   OH246435   2.182   7.200  14.245  0.4353 -0.0357  0.0552
 8315TIP3    H146436   2.091   7.210  14.219  0.6682  1.7601 -0.1042
 8315TIP3    H246437   2.181   7.129  14.310 -1.2492  0.8668  1.0331
 8316TIP3   OH246438   1.624   4.144  12.559  0.0738  0.2515  0.2496
 8316TIP3    H146439   1.576   4.101  12.487 -1.8760 -0.3294  1.8253
 8316TIP3    H246440   1.679   4.209  12.516  0.4930 -1.4764 -1.9354
 8317TIP3   OH246441   0.931   2.376  14.219  0.1047 -0.4842  0.1119
 8317TIP3    H146442   0.873   2.361  14.146 -0.4223  0.4354  0.3279
 8317TIP3    H246443   1.005   2.424  14.181 -0.6577  0.9134  0.3561
 8318TIP3   OH246444   7.306   6.445  13.067 -0.2154 -0.2353 -0.3054
 8318TIP3    H146445   7.232   6.476  13.015  0.5306  1.0819 -0.6023
 8318TIP3    H246446   7.372   6.420  13.003  0.7242  1.4377 -0.0333
 8319TIP3   OH246447   1.406   6.704  14.703 -0.3364  0.4859  0.4205
 8319TIP3    H146448   1.414   6.625  14.648 -1.6441 -0.5642  1.6914
 8319TIP3    H246449   1.414   6.777  14.642  2.2656 -0.5917 -0.6203
 8320TIP3   OH246450   1.822   5.366  13.209  0.0843 -0.6757 -0.1250
 8320TIP3    H146451   1.861   5.413  13.283 -0.3148 -0.2735 -0.1657
 8320TIP3    H246452   1.896   5.336  13.157  0.3101  1.5271 -1.1127
 8321TIP3   OH246453   2.859   6.053  14.621 -0.0467  0.3627  0.4320
 8321TIP3    H146454   2.877   6.144  14.646  2.9813 -0.7135  2.4827
 8321TIP3    H246455   2.776   6.032  14.664 -0.4843  1.9582  0.4054
 8322TIP3   OH246456   0.907   3.157  14.444 -0.4755 -0.5645  0.3419
 8322TIP3    H146457   0.998   3.140  14.467 -0.7922 -2.0193  0.5240
 8322TIP3    H246458   0.907   3.162  14.348 -0.0938  0.1262  0.3739
 8323TIP3   OH246459   2.304   4.298  13.205  0.2068  0.0516 -0.2210
 8323TIP3    H146460   2.379   4.344  13.241 -1.8479  0.7073  3.5344
 8323TIP3    H246461   2.319   4.206  13.227  1.4843 -0.3314 -2.5234
 8324TIP3   OH246462   2.432   5.300  14.010  0.4946  0.0379 -0.1847
 8324TIP3    H146463   2.427   5.245  14.088  0.7725  0.3435  0.0499
 8324TIP3    H246464   2.504   5.262  13.959  0.7259  0.2233  0.0059
 8325TIP3   OH246465   1.866   5.458  13.648  0.0338  0.0783  0.1593
 8325TIP3    H146466   1.955   5.490  13.632 -0.1268 -0.2128 -1.2989
 8325TIP3    H246467   1.859   5.457  13.744  1.2526  1.0529  0.2783
 8326TIP3   OH246468   3.732   5.864  14.895  0.0970  0.0627  0.1052
 8326TIP3    H146469   3.668   5.935  14.899 -0.1830  0.0632 -3.1650
 8326TIP3    H246470   3.679   5.784  14.894  0.2270 -0.0133 -0.7138
 8327TIP3   OH246471   3.533   4.311  14.445 -0.1186  0.3181 -0.3833
 8327TIP3    H146472   3.565   4.393  14.483 -0.1481 -0.0920  0.5289
 8327TIP3    H246473   3.443   4.304  14.475 -0.2499  0.1674 -0.8174
 8328TIP3   OH246474   2.130   6.144  14.320 -0.8898  0.2938 -0.0493
 8328TIP3    H146475   2.205   6.105  14.276 -0.6990 -0.3010  0.7934
 8328TIP3    H246476   2.165   6.172  14.405 -1.5322  0.3482  0.1939
 8329TIP3   OH246477   7.180   2.895  14.521 -0.5750  0.1548  0.4001
 8329TIP3    H146478   7.094   2.907  14.563 -1.7281  2.6279 -2.4833
 8329TIP3    H246479   7.229   2.974  14.544  1.2644 -1.5545  2.6103
 8330TIP3   OH246480   0.571   1.495  15.392 -0.3621  0.8545 -0.6656
 8330TIP3    H146481   0.598   1.443  15.317 -1.6719 -0.9535  0.0745
 8330TIP3    H246482   0.529   1.432  15.451  0.1544  2.3377  1.3315
 8331TIP3   OH246483   1.477   5.132  14.233 -0.7883 -0.3284 -0.2294
 8331TIP3    H146484   1.389   5.168  14.242 -0.6945  0.0390 -0.7511
 8331TIP3    H246485   1.464   5.043  14.202 -1.0585 -1.0775  2.0228
 8332TIP3   OH246486   7.074   1.978  14.450 -0.0941  0.3654  0.3687
 8332TIP3    H146487   7.072   2.004  14.542  0.2197  1.1836  0.1457
 8332TIP3    H246488   7.118   2.050  14.405 -0.6356  0.1738 -0.4888
 8333TIP3   OH246489   7.095   2.791  12.846 -0.0109  0.4392 -0.2565
 8333TIP3    H146490   7.176   2.840  12.859  0.2467 -0.2199  0.6779
 8333TIP3    H246491   7.093   2.772  12.752  0.4563  1.2330 -0.4353
 8334TIP3   OH246492   6.916   2.269   0.279 -0.0045  0.2735 -0.2452
 8334TIP3    H146493   6.992   2.273   0.222 -0.0012 -1.2048 -0.3733
 8334TIP3    H246494   6.922   2.348   0.333  1.8152 -0.0214  0.0114
 8335TIP3   OH246495   2.409   5.679  11.235 -0.9328  0.0054 -0.3890
 8335TIP3    H146496   2.391   5.752  11.295  1.0283 -0.3882  0.7232
 8335TIP3    H246497   2.333   5.621  11.245 -2.0263  1.3796 -0.5163
 8336TIP3   OH246498   7.036   4.564  15.258 -0.5005 -0.2967 -0.0027
 8336TIP3    H146499   7.065   4.556  15.167 -0.9487  2.1410 -0.3924
 8336TIP3    H246500   6.967   4.498  15.267 -0.5698 -0.4440 -1.4774
 8337TIP3   OH246501   2.935   5.925  15.410  0.0480  0.0262 -0.0132
 8337TIP3    H146502   2.842   5.926  15.389 -0.1331  0.2591  0.7925
 8337TIP3    H246503   2.975   5.985  15.348 -0.2611 -0.4874 -0.7154
 8338TIP3   OH246504   1.514   3.633  12.791  0.7188  0.0760  0.3155
 8338TIP3    H146505   1.433   3.594  12.824 -0.4047  1.5109 -0.6962
 8338TIP3    H246506   1.544   3.689  12.862  1.5650 -1.4988  1.2158
 8339TIP3   OH246507   4.894   7.126   1.636  0.1425  0.0260 -0.2940
 8339TIP3    H146508   4.911   7.054   1.576  1.6486 -0.1099  0.2636
 8339TIP3    H246509   4.906   7.089   1.723 -3.5099 -0.1558  0.2034
 8340TIP3   OH246510   1.027   4.809  15.316 -0.3313 -0.2122 -0.2145
 8340TIP3    H146511   1.022   4.861  15.397  1.5112 -0.3328  0.0001
 8340TIP3    H246512   0.938   4.812  15.280 -0.0592  3.8898 -0.7266
 8341TIP3   OH246513   5.829   5.748   0.761  0.3044  0.2860  0.5639
 8341TIP3    H146514   5.892   5.818   0.779 -1.5984  2.1617  0.1196
 8341TIP3    H246515   5.772   5.783   0.693 -0.9915 -1.4998  0.6868
 8342TIP3   OH246516   1.071   4.624   0.117  0.0406  0.1048 -0.0008
 8342TIP3    H146517   1.102   4.543   0.158 -0.1110  1.1206  2.1749
 8342TIP3    H246518   1.150   4.677   0.108  0.1435 -0.2733 -1.4540
 8343TIP3   OH246519   2.244   0.469   0.638  0.0577 -0.1524 -0.4629
 8343TIP3    H146520   2.325   0.519   0.629 -0.7596  1.4458  0.8334
 8343TIP3    H246521   2.217   0.484   0.729 -1.1015 -1.5683 -0.5656
 8344TIP3   OH246522   2.387   4.406  15.342  0.1763 -0.0906 -1.2498
 8344TIP3    H146523   2.404   4.431  15.251  0.4030  0.4810 -1.0567
 8344TIP3    H246524   2.456   4.450  15.392 -0.8816  0.8954 -0.6262
 8345TIP3   OH246525   7.153   4.676  12.823  0.2453  0.3135  0.1427
 8345TIP3    H146526   7.060   4.659  12.812  0.1477  2.0177 -1.8092
 8345TIP3    H246527   7.196   4.609  12.769  0.0589  1.3905 -1.3637
 8346TIP3   OH246528   0.721   3.599  13.629  0.2340  0.1338 -0.5389
 8346TIP3    H146529   0.676   3.613  13.546  0.2001  1.1031 -0.3646
 8346TIP3    H246530   0.663   3.539  13.677  0.5137 -0.8451 -1.4078
 8347TIP3   OH246531   0.816   3.308  14.864 -0.1068 -0.5081  0.2163
 8347TIP3    H146532   0.804   3.336  14.773 -1.3459 -1.4963  0.0662
 8347TIP3    H246533   0.860   3.223  14.859  0.0815 -0.4365  0.5608
 8348TIP3   OH246534   0.531   6.396  14.240 -0.2520 -0.0415  0.5068
 8348TIP3    H146535   0.491   6.435  14.162 -0.2161 -0.1827  0.4156
 8348TIP3    H246536   0.461   6.396  14.305 -0.5119 -0.6262  0.2306
 8349TIP3   OH246537   1.323   5.639  13.641  0.4767  0.2956 -0.1019
 8349TIP3    H146538   1.284   5.708  13.588  1.1130  0.9937  0.3350
 8349TIP3    H246539   1.322   5.562  13.584 -0.9608  0.4497 -0.3132
 8350TIP3   OH246540   2.309   5.554  12.781  0.3991  0.3916  0.0012
 8350TIP3    H146541   2.230   5.549  12.835  0.0030  1.5792 -0.4537
 8350TIP3    H246542   2.349   5.638  12.804  0.5530  0.6313 -1.0904
 8351TIP3   OH246543   2.094   5.546  15.746  0.0236 -0.2002  0.5170
 8351TIP3    H146544   2.149   5.516  15.674 -0.5179 -1.6187  0.6745
 8351TIP3    H246545   2.098   5.642  15.742 -0.7235 -0.2490 -1.9482
 8352TIP3   OH246546   1.710   4.302   0.207 -0.4937  0.0018  0.2777
 8352TIP3    H146547   1.640   4.366   0.193  1.3867  1.9655 -0.5095
 8352TIP3    H246548   1.678   4.221   0.167 -2.2104  0.9262 -0.2421
 8353TIP3   OH246549   1.218   1.830  12.426 -0.4733  0.1324  1.1188
 8353TIP3    H146550   1.244   1.912  12.384  2.6142 -0.5158  1.6493
 8353TIP3    H246551   1.220   1.849  12.520  0.7409 -0.6632  1.2638
 8354TIP3   OH246552   2.466   5.143  13.601 -0.1375 -0.1638 -0.2811
 8354TIP3    H146553   2.562   5.141  13.603 -0.1175  0.1802 -0.9425
 8354TIP3    H246554   2.444   5.235  13.617 -0.3737 -0.3283  0.3691
 8355TIP3   OH246555   0.515   3.323  14.859 -0.0826 -0.2860  0.3259
 8355TIP3    H146556   0.523   3.369  14.775 -0.3616  0.3760  0.6572
 8355TIP3    H246557   0.595   3.271  14.866  1.0705  1.5197  0.7592
 8356TIP3   OH246558   6.977   1.357  12.770  0.4258  0.0799 -0.1324
 8356TIP3    H146559   7.044   1.302  12.810 -1.5378 -2.9650 -0.8508
 8356TIP3    H246560   6.971   1.326  12.680 -1.0974  1.1166 -0.4055
 8357TIP3   OH246561   1.208   2.476  12.288 -0.1942  0.3061 -0.5102
 8357TIP3    H146562   1.262   2.403  12.259 -0.5705 -0.0567 -0.3202
 8357TIP3    H246563   1.145   2.436  12.348  0.4023  0.9882  0.5957
 8358TIP3   OH246564   0.745   1.843  14.781 -0.5401  0.0898 -0.0005
 8358TIP3    H146565   0.811   1.894  14.733 -1.8578  2.5375  0.6938
 8358TIP3    H246566   0.689   1.806  14.712  1.2976 -1.6834 -0.5716
 8359TIP3   OH246567   1.335   6.108  15.861  0.0396 -0.3057 -0.4043
 8359TIP3    H146568   1.379   6.193  15.872  1.6090 -1.0863 -0.5193
 8359TIP3    H246569   1.339   6.068  15.948 -0.7684 -0.2291 -0.3340
 8360TIP3   OH246570   7.113   3.298  15.181 -0.2329 -0.8228  0.0239
 8360TIP3    H146571   7.019   3.298  15.164 -0.4990 -3.0502  1.2839
 8360TIP3    H246572   7.151   3.349  15.109 -2.1193 -2.4578 -2.1782
 8361TIP3   OH246573   6.058   3.778  13.510 -0.9585 -0.0914 -0.7407
 8361TIP3    H146574   6.137   3.741  13.549 -0.8031  0.4800 -0.5085
 8361TIP3    H246575   6.060   3.870  13.535 -1.3371  0.0780 -1.3268
 8362TIP3   OH246576   2.472   3.210  13.665 -0.2485 -0.7833 -0.0797
 8362TIP3    H146577   2.558   3.182  13.633 -0.1365 -1.9199  1.1889
 8362TIP3    H246578   2.490   3.277  13.731 -0.3551 -0.8236 -0.0093
 8363TIP3   OH246579   0.595   6.860  15.916 -0.0616  0.1681 -0.0386
 8363TIP3    H146580   0.684   6.840  15.885  1.3551  0.1076  3.7958
 8363TIP3    H246581   0.584   6.953  15.899  1.1890  0.4138  0.4154
 8364TIP3   OH246582   2.399   6.298  13.105 -0.0860  0.2857 -0.1295
 8364TIP3    H146583   2.445   6.216  13.087 -1.6657 -0.6244 -0.1063
 8364TIP3    H246584   2.324   6.297  13.045  0.7274  2.4516 -1.2283
 8365TIP3   OH246585   6.348   2.804  12.287 -0.8340 -0.0738  0.0575
 8365TIP3    H146586   6.386   2.867  12.348 -0.4273  0.6816 -0.9524
 8365TIP3    H246587   6.401   2.725  12.298  0.7303  0.8041 -0.9584
 8366TIP3   OH246588   1.365   2.248  14.859  0.0340  0.1911  0.5101
 8366TIP3    H146589   1.360   2.306  14.935 -0.2214 -0.0688  0.6907
 8366TIP3    H246590   1.331   2.164  14.890 -0.0981  0.0920  0.1008
 8367TIP3   OH246591   0.888   3.319  13.869 -0.3124  0.2467 -0.0849
 8367TIP3    H146592   0.848   3.304  13.783 -1.7467  0.2903  0.5518
 8367TIP3    H246593   0.833   3.269  13.930  0.4322  0.5616  0.8567
 8368TIP3   OH246594   1.874   3.509  15.617  0.4069 -0.1403 -0.0407
 8368TIP3    H146595   1.902   3.488  15.528 -0.6120  0.7950 -0.5935
 8368TIP3    H246596   1.779   3.497  15.617  0.4893 -0.9291  1.1524
 8369TIP3   OH246597   0.670   4.454  15.361 -0.5711  0.5137 -0.5500
 8369TIP3    H146598   0.679   4.521  15.428  0.9313 -1.1502  0.9720
 8369TIP3    H246599   0.713   4.377  15.398 -1.1287 -0.9215 -2.7699
 8370TIP3   OH246600   4.456   6.493  13.977 -0.5442 -0.1323  0.4486
 8370TIP3    H146601   4.398   6.441  14.033 -0.1258  0.0409  1.0463
 8370TIP3    H246602   4.468   6.575  14.026 -0.7760  0.3143 -0.2392
 8371TIP3   OH246603   4.376   2.099   1.652  0.3775 -0.8563  0.2640
 8371TIP3    H146604   4.372   2.013   1.695  2.3933 -1.1866 -0.1653
 8371TIP3    H246605   4.440   2.148   1.704  0.1070 -0.0056 -0.2037
 8372TIP3   OH246606   1.551   4.696  15.082 -0.3120 -0.1581  0.1667
 8372TIP3    H146607   1.608   4.661  15.014 -1.2295 -1.8805  0.2475
 8372TIP3    H246608   1.598   4.772  15.116  1.3141 -0.7495 -0.6875
 8373TIP3   OH246609   4.548   5.351  12.349  0.1861 -0.0330 -0.1454
 8373TIP3    H146610   4.480   5.342  12.283  1.4581  2.0543 -1.7744
 8373TIP3    H246611   4.593   5.266  12.349 -1.9059 -1.1787  0.4456
 8374TIP3   OH246612   2.693   3.984  15.403  0.2343  0.4956 -0.0617
 8374TIP3    H146613   2.769   4.029  15.368  0.0818 -0.8166 -2.1416
 8374TIP3    H246614   2.722   3.953  15.489  1.6997  0.9060 -0.3900
 8375TIP3   OH246615   3.865   4.579  15.108 -0.4911  0.1860 -0.1274
 8375TIP3    H146616   3.786   4.632  15.098  0.9452  2.9824  2.4019
 8375TIP3    H246617   3.855   4.537  15.193 -0.5655 -1.8667 -1.1169
 8376TIP3   OH246618   2.513   6.845  12.365  0.2894  0.1831  0.1156
 8376TIP3    H146619   2.504   6.750  12.378  0.8025  0.4460  2.7641
 8376TIP3    H246620   2.607   6.858  12.348  0.0586  0.1330 -1.2517
 8377TIP3   OH246621   4.214   6.964  15.401  0.5275  0.1450 -0.0214
 8377TIP3    H146622   4.264   7.030  15.352 -1.2843  1.9303  0.4686
 8377TIP3    H246623   4.247   6.970  15.490  1.3094 -0.5688 -0.2600
 8378TIP3   OH246624   3.558   7.203  14.307  0.7587 -0.6930  0.3499
 8378TIP3    H146625   3.583   7.177  14.219  0.2038  1.7130 -0.5698
 8378TIP3    H246626   3.637   7.243  14.344  0.7522 -0.9439  0.6413
 8379TIP3   OH246627   4.060   5.797  13.272  0.4296  0.6230  0.1014
 8379TIP3    H146628   4.110   5.857  13.218 -3.4039  3.6295 -0.3455
 8379TIP3    H246629   4.057   5.716  13.222  4.5826  0.3894  0.1110
 8380TIP3   OH246630   2.660   0.034  15.108 -0.5040  0.8023  0.4293
 8380TIP3    H146631   2.669   0.001  15.197 -1.5239 -0.8945 -0.0680
 8380TIP3    H246632   2.698   0.122  15.110 -0.1021  0.5899  2.4135
 8381TIP3   OH246633   1.725   2.818  13.520  0.4543  0.2391  0.1119
 8381TIP3    H146634   1.770   2.865  13.449  0.1400  0.7895  0.2698
 8381TIP3    H246635   1.752   2.865  13.600  2.1301 -1.4037  0.5416
 8382TIP3   OH246636   1.644   4.361  14.704 -0.0333  0.1695 -0.0864
 8382TIP3    H146637   1.721   4.339  14.652  0.1577  0.4370  0.0828
 8382TIP3    H246638   1.643   4.295  14.774  0.0618  0.1867 -0.0696
 8383TIP3   OH246639   1.064   3.068  14.061 -0.3104 -0.0403 -0.3680
 8383TIP3    H146640   1.117   3.003  14.107  0.4162 -0.1825 -1.3977
 8383TIP3    H246641   0.979   3.064  14.105 -0.0586 -1.1880  0.0350
 8384TIP3   OH246642   4.314   3.944  14.861  0.3302  0.1125  0.1096
 8384TIP3    H146643   4.291   4.035  14.843  0.3787 -0.0910 -0.9845
 8384TIP3    H246644   4.281   3.895  14.786  3.8485 -0.2701 -1.2447
 8385TIP3   OH246645   2.262   5.689  15.058 -0.5130 -0.0162 -0.6023
 8385TIP3    H146646   2.181   5.672  15.106 -0.4959  1.5275  0.0068
 8385TIP3    H246647   2.250   5.777  15.022  0.2944 -0.3709 -1.7515
 8386TIP3   OH246648   3.582   4.298  13.751  0.8234  0.0539  0.0463
 8386TIP3    H146649   3.496   4.332  13.726  0.5634 -0.6174  0.0375
 8386TIP3    H246650   3.597   4.333  13.839 -0.8219 -2.3610  1.3267
 8387TIP3   OH246651   3.992   5.681  12.879 -0.8962 -0.2896 -0.3224
 8387TIP3    H146652   3.933   5.643  12.814  0.6149 -1.7319 -0.8866
 8387TIP3    H246653   4.036   5.752  12.832  0.9475 -1.9878 -1.2311
 8388TIP3   OH246654   4.487   4.604  15.559 -1.0430 -0.1593  0.0804
 8388TIP3    H146655   4.422   4.608  15.628 -0.8003 -0.0391  0.3042
 8388TIP3    H246656   4.532   4.521  15.572  0.4949  0.8404  1.4370
 8389TIP3   OH246657   1.233   3.272  14.100 -0.3409 -0.4337  0.0231
 8389TIP3    H146658   1.178   3.195  14.087 -0.4847 -0.8121  2.6237
 8389TIP3    H246659   1.176   3.346  14.079 -0.6337 -0.9602 -1.0997
 8390TIP3   OH246660   2.724   3.883  13.652 -0.5928 -0.0363  0.3056
 8390TIP3    H146661   2.763   3.814  13.706  0.2605 -0.8316 -1.2935
 8390TIP3    H246662   2.767   3.963  13.681  0.5823 -0.5984  0.1590
 8391TIP3   OH246663   2.744   5.375  13.592  0.0355  0.0092 -0.1059
 8391TIP3    H146664   2.758   5.464  13.623 -1.0546 -0.2231  1.1119
 8391TIP3    H246665   2.820   5.326  13.623  0.0801  0.2789  0.2105
 8392TIP3   OH246666   2.884   4.482  15.365 -0.1510 -0.9289  0.2047
 8392TIP3    H146667   2.848   4.570  15.366 -0.9654 -1.2642  1.6750
 8392TIP3    H246668   2.829   4.433  15.304  0.9928 -0.1637 -1.4870
 8393TIP3   OH246669   3.369   6.114  14.220 -0.0164 -0.3202  0.1129
 8393TIP3    H146670   3.392   6.023  14.198 -0.2467 -0.3226 -0.1238
 8393TIP3    H246671   3.294   6.134  14.164 -0.1682 -0.0887  0.3998
 8394TIP3   OH246672   0.382   4.049  14.161 -0.3041  0.2533  0.1413
 8394TIP3    H146673   0.321   3.994  14.113  1.3782 -0.0090 -1.7782
 8394TIP3    H246674   0.339   4.134  14.168 -1.6669 -0.4491  0.5306
 8395TIP3   OH246675   1.349   3.470   0.690  0.1007 -0.4231 -0.3323
 8395TIP3    H146676   1.328   3.383   0.722  0.7700  0.5092  2.8314
 8395TIP3    H246677   1.423   3.457   0.630 -0.5939 -2.1391 -0.8330
 8396TIP3   OH246678   3.335   1.171  13.634 -0.2791 -0.0078 -0.6559
 8396TIP3    H146679   3.357   1.085  13.672  0.2332 -0.6054 -2.2520
 8396TIP3    H246680   3.241   1.181  13.649 -0.3577 -0.8866 -0.5137
 8397TIP3   OH246681   3.864   3.349  13.866  0.1784  0.0431  0.1727
 8397TIP3    H146682   3.859   3.378  13.957  1.1280  0.3599  0.1272
 8397TIP3    H246683   3.831   3.422  13.815  2.7132  1.1472  0.0462
 8398TIP3   OH246684   2.209   6.633  13.346 -0.0600 -0.0417 -0.3261
 8398TIP3    H146685   2.290   6.594  13.312  0.3045  0.2132  0.2464
 8398TIP3    H246686   2.151   6.636  13.270 -1.0903 -4.1468  0.1875
 8399TIP3   OH246687   6.975   4.000  12.580  0.5967  0.2566  0.1067
 8399TIP3    H146688   7.032   3.936  12.536  0.2375  0.1041 -0.1354
 8399TIP3    H246689   7.025   4.082  12.578  1.6678 -0.3328  1.6615
 8400TIP3   OH246690   3.510   6.019  13.727  0.2832 -0.3781  0.1478
 8400TIP3    H146691   3.547   6.104  13.750 -0.1196 -0.2860  0.4702
 8400TIP3    H246692   3.415   6.030  13.739 -0.0358 -0.0751 -2.3701
 8401TIP3   OH246693   2.854   4.100  13.758 -0.0603  0.0570  0.6206
 8401TIP3    H146694   2.923   4.159  13.728  0.5366 -0.1988  1.4672
 8401TIP3    H246695   2.855   4.109  13.853 -1.8752  0.7970  0.5833
 8402TIP3   OH246696   2.882   5.305  11.765  0.3499 -0.5212  0.6763
 8402TIP3    H146697   2.808   5.359  11.792  0.5309 -0.3964  0.9185
 8402TIP3    H246698   2.863   5.218  11.801  0.5639 -0.3695  1.1592
 8403TIP3   OH246699   2.299   3.872  14.348  0.5114 -0.2924  0.2463
 8403TIP3    H146700   2.381   3.895  14.305  0.2963  0.1427  0.0663
 8403TIP3    H246701   2.324   3.851  14.438  0.8843 -0.6437  0.0622
 8404TIP3   OH246702   4.708   5.699  13.575  0.5318 -0.4795  0.3692
 8404TIP3    H146703   4.767   5.758  13.622 -0.9566 -0.1391  1.8852
 8404TIP3    H246704   4.651   5.758  13.525  0.6564 -0.7487 -0.0927
 8405TIP3   OH246705   3.571   6.347  14.106 -0.5783  0.0525  0.2563
 8405TIP3    H146706   3.514   6.422  14.092  1.3057  1.6558  0.9407
 8405TIP3    H246707   3.521   6.289  14.164 -1.5203  1.3941  0.7932
 8406TIP3   OH246708   1.860   4.331  12.720 -0.2811 -0.1455  0.2554
 8406TIP3    H146709   1.900   4.418  12.732  1.8618 -0.9840 -0.4722
 8406TIP3    H246710   1.919   4.286  12.659 -2.3483 -1.4948 -0.8058
 8407TIP3   OH246711   2.690   7.148  14.342  0.4642 -0.2748 -0.5928
 8407TIP3    H146712   2.663   7.057  14.341 -1.0868  0.1745 -0.9656
 8407TIP3    H246713   2.706   7.170  14.251  2.0843 -0.5113 -0.3876
 8408TIP3   OH246714   6.596   3.347  14.339  0.1101  0.6353 -0.1575
 8408TIP3    H146715   6.631   3.261  14.317  0.0174  0.8616 -1.2255
 8408TIP3    H246716   6.656   3.381  14.405 -0.3073 -0.5736  0.8463
 8409TIP3   OH246717   3.665   5.072  13.164 -0.0302  0.2738 -0.2107
 8409TIP3    H146718   3.654   4.992  13.216  0.2844 -0.1797 -0.8340
 8409TIP3    H246719   3.639   5.047  13.075 -2.2471  1.5203  0.0773
 8410TIP3   OH246720   2.061   4.211  12.552  0.4007  0.3659 -0.3695
 8410TIP3    H146721   2.119   4.192  12.626 -1.0967 -2.0903  0.2521
 8410TIP3    H246722   2.110   4.185  12.475  0.3330 -1.2794  0.1222
 8411TIP3   OH246723   3.186   5.627  13.991  0.1857 -0.0866  0.0436
 8411TIP3    H146724   3.278   5.603  13.980  0.9194  2.3212  0.6829
 8411TIP3    H246725   3.179   5.715  13.954 -2.0622 -0.5779 -0.7793
 8412TIP3   OH246726   3.510   5.545  12.967 -0.4396  0.1523  0.5031
 8412TIP3    H146727   3.562   5.476  12.927 -0.9556  0.4035 -0.6003
 8412TIP3    H246728   3.540   5.625  12.924 -0.6185  0.4906  1.0028
 8413TIP3   OH246729   3.900   5.561  12.646 -0.2045  0.0916 -0.1527
 8413TIP3    H146730   3.888   5.471  12.617  2.5316 -0.9358  1.7999
 8413TIP3    H246731   3.986   5.586  12.612 -0.1529  1.3538  0.8779
 8414TIP3   OH246732   3.195   4.262  13.810 -0.0577  0.1899  0.1417
 8414TIP3    H146733   3.242   4.280  13.728  0.0685 -0.7804 -0.0048
 8414TIP3    H246734   3.113   4.311  13.802  0.6676  1.4266  0.1440
 8415TIP3   OH246735   3.177   6.263  15.962  0.3150  0.1633  0.4441
 8415TIP3    H146736   3.266   6.255  15.997 -0.1665  0.4672  1.7783
 8415TIP3    H246737   3.189   6.274  15.868  1.7256  0.8728  0.6941
 8416TIP3   OH246738   2.871   4.463  14.025  0.2301 -0.1071  0.3638
 8416TIP3    H146739   2.934   4.506  13.966  0.7775  0.0474  1.0597
 8416TIP3    H246740   2.895   4.493  14.112 -0.0387 -1.0106  0.7583
 8417TIP3   OH246741   3.859   6.283  14.970  0.1214  0.0743 -0.8264
 8417TIP3    H146742   3.780   6.328  15.001  0.9945  0.7434  0.4900
 8417TIP3    H246743   3.849   6.279  14.875 -0.9773  1.1577 -0.7716
 8418TIP3   OH246744   2.528   5.628  15.139  0.0799 -0.0493  0.0473
 8418TIP3    H146745   2.436   5.637  15.113  0.3434  0.2228 -0.7886
 8418TIP3    H246746   2.542   5.698  15.203  0.1720  1.0294 -1.1208
 8419TIP3   OH246747   1.657   6.866  15.643  0.3160 -0.6417  0.4348
 8419TIP3    H146748   1.626   6.894  15.557 -0.2547 -2.1751  0.1232
 8419TIP3    H246749   1.752   6.860  15.633  0.2378 -0.9464 -0.1289
 8420TIP3   OH246750   4.439   6.360  12.730 -0.1113 -0.4931 -0.1871
 8420TIP3    H146751   4.516   6.380  12.784  0.4618 -0.1988 -1.1007
 8420TIP3    H246752   4.365   6.397  12.778  0.3969 -0.1868  0.3678
 8421TIP3   OH246753   3.242   0.422  13.874 -0.0211 -0.0097 -0.8809
 8421TIP3    H146754   3.210   0.343  13.829 -0.1713 -0.1595 -0.5150
 8421TIP3    H246755   3.163   0.474  13.888  0.0539  0.1250 -0.9585
 8422TIP3   OH246756   2.474   6.037  13.056  0.2929 -0.0141 -0.0074
 8422TIP3    H146757   2.565   6.009  13.064  1.1379  2.4834 -0.5801
 8422TIP3    H246758   2.426   5.956  13.040  2.6757 -1.1425 -1.7835
 8423TIP3   OH246759   2.939   6.678  12.326  0.1433  0.5869 -0.5807
 8423TIP3    H146760   3.004   6.678  12.256 -0.4804 -1.3784 -1.2074
 8423TIP3    H246761   2.970   6.610  12.387 -0.1715  1.1703  0.2383
 8424TIP3   OH246762   2.726   5.059   0.487 -0.5378 -0.6083 -0.6195
 8424TIP3    H146763   2.794   4.991   0.490 -0.0831 -0.1149  0.6763
 8424TIP3    H246764   2.649   5.015   0.451  0.7983 -0.8766 -3.2674
 8425TIP3   OH246765   1.483   3.543  13.824 -0.2386  0.0714  0.0663
 8425TIP3    H146766   1.519   3.573  13.741  0.6696  0.1972  0.4964
 8425TIP3    H246767   1.398   3.586  13.831 -0.3058  0.0776 -0.7875
 8426TIP3   OH246768   2.418   1.633  14.636  0.0674  0.4026 -0.2703
 8426TIP3    H146769   2.441   1.568  14.703  0.8064 -0.0822 -0.9840
 8426TIP3    H246770   2.382   1.581  14.564 -2.0603  1.0396  0.3023
 8427TIP3   OH246771   0.851   1.238  15.380 -0.3087 -0.0275 -0.3333
 8427TIP3    H146772   0.831   1.326  15.411  0.1857  0.1808 -0.5972
 8427TIP3    H246773   0.947   1.235  15.375 -0.2310 -1.1761  1.3878
 8428TIP3   OH246774   3.699   5.471  14.179  0.2802  0.8021 -0.1116
 8428TIP3    H146775   3.786   5.433  14.165 -0.0335  0.0399  0.0216
 8428TIP3    H246776   3.678   5.452  14.270 -0.1675  0.6930 -0.2368
 8429TIP3   OH246777   3.976   3.990  12.046 -0.0252  0.6585  0.6035
 8429TIP3    H146778   3.911   3.923  12.066 -0.0488  0.6801  0.5994
 8429TIP3    H246779   4.057   3.942  12.033  0.3910  0.7681  2.5328
 8430TIP3   OH246780   2.858   5.046  11.825  0.4669  0.7026  0.0239
 8430TIP3    H146781   2.913   5.000  11.888  1.2688  0.6337 -0.7021
 8430TIP3    H246782   2.880   5.006  11.740 -2.1256 -0.6598 -0.0582
 8431TIP3   OH246783   3.239   4.921  15.270  0.3776  0.2676 -0.7919
 8431TIP3    H146784   3.329   4.939  15.243  1.2121 -1.9802  0.3543
 8431TIP3    H246785   3.230   4.964  15.355 -0.0259  1.4573 -1.4194
 8432TIP3   OH246786   1.784   5.133  14.369  0.0557 -0.1763  0.5544
 8432TIP3    H146787   1.712   5.171  14.320  1.7200 -1.5985 -3.2299
 8432TIP3    H246788   1.757   5.043  14.386 -0.6641  0.4062  2.7043
 8433TIP3   OH246789   1.864   4.789  14.078 -0.5339 -0.2215 -0.1880
 8433TIP3    H146790   1.858   4.694  14.067  1.5597 -0.3775 -0.2004
 8433TIP3    H246791   1.838   4.825  13.993  1.1391 -0.8891 -1.0006
 8434TIP3   OH246792   0.255   1.921   0.342  0.2954  0.1570 -0.1368
 8434TIP3    H146793   0.313   1.845   0.344 -0.7056 -0.5989  0.5739
 8434TIP3    H246794   0.174   1.888   0.302 -0.0300  0.9392 -0.1300
 8435TIP3   OH246795   1.675   3.838  14.629 -0.0181 -0.2222  0.0135
 8435TIP3    H146796   1.684   3.797  14.543 -2.2031 -1.5985  0.4098
 8435TIP3    H246797   1.612   3.908  14.617  0.3722  0.1868  0.3060
 8436TIP3   OH246798   1.591   2.525  15.377 -0.0873  0.0780  0.0111
 8436TIP3    H146799   1.497   2.508  15.365 -0.4976  2.9582 -1.3869
 8436TIP3    H246800   1.634   2.463  15.319 -1.2511  0.0009 -0.8019
 8437TIP3   OH246801   3.244   5.465  12.977  0.6159  0.7648 -0.3356
 8437TIP3    H146802   3.335   5.496  12.974  0.7643  0.1852 -2.0845
 8437TIP3    H246803   3.203   5.520  13.043  1.8984  1.9722 -0.5186
 8438TIP3   OH246804   1.332   3.731  13.308  0.1232 -0.3627 -0.0621
 8438TIP3    H146805   1.426   3.737  13.290  0.4669  1.7548  2.1761
 8438TIP3    H246806   1.327   3.686  13.392 -0.8632 -0.1265  0.0093
 8439TIP3   OH246807   1.652   5.409  12.821 -0.7539  0.1180  0.0498
 8439TIP3    H146808   1.705   5.331  12.802  1.6571  1.7067  0.0297
 8439TIP3    H246809   1.646   5.455  12.738  0.2805  1.3803  0.6454
 8440TIP3   OH246810   1.182   3.854  13.130 -0.0444 -1.1282  0.9338
 8440TIP3    H146811   1.226   3.807  13.201  0.8852 -3.3485 -1.0813
 8440TIP3    H246812   1.252   3.900  13.084 -0.5107 -0.5347  0.8032
 8441TIP3   OH246813   4.406   6.566  15.776 -0.0076  0.0977 -0.0026
 8441TIP3    H146814   4.349   6.568  15.853 -1.7167 -0.3838 -1.2073
 8441TIP3    H246815   4.346   6.578  15.702  1.3648 -1.1843 -1.3616
 8442TIP3   OH246816   0.075   1.851  14.567 -0.0330 -0.3782  0.3227
 8442TIP3    H146817  -0.007   1.802  14.581 -0.0787 -0.8306 -1.3464
 8442TIP3    H246818   0.124   1.798  14.504  1.2408  0.2523  0.7663
 8443TIP3   OH246819   0.776   2.987  12.679  0.1096  0.2506 -0.3861
 8443TIP3    H146820   0.707   2.921  12.683  2.3530 -2.1169  0.6066
 8443TIP3    H246821   0.825   2.975  12.761  1.4741  2.1174 -0.9012
 8444TIP3   OH246822   4.741   5.634  14.511  0.1995  0.3404 -0.1499
 8444TIP3    H146823   4.681   5.632  14.585 -1.1186  1.1229 -1.1815
 8444TIP3    H246824   4.693   5.591  14.440  2.0938 -1.9498 -0.1032
 8445TIP3   OH246825   2.976   5.807  14.224  0.3096  0.3913  0.0983
 8445TIP3    H146826   2.904   5.747  14.202 -1.1063  2.1636 -0.1773
 8445TIP3    H246827   3.025   5.760  14.292 -0.7626 -1.0972 -0.1118
 8446TIP3   OH246828   2.294   6.286  15.597 -0.0489  0.7281  0.3901
 8446TIP3    H146829   2.334   6.243  15.672  2.1130  1.3903 -0.3303
 8446TIP3    H246830   2.258   6.368  15.632 -0.5284  0.2524  1.0030
 8447TIP3   OH246831   5.514   5.584  14.036 -0.2578 -0.6749  0.0385
 8447TIP3    H146832   5.569   5.548  13.967  0.1448  0.5896 -0.3148
 8447TIP3    H246833   5.425   5.558  14.012 -0.2676  0.8560 -1.6829
 8448TIP3   OH246834   1.419   3.108  11.308 -0.0380  0.3179 -0.0120
 8448TIP3    H146835   1.368   3.054  11.247 -1.0453 -0.5164  1.5288
 8448TIP3    H246836   1.362   3.182  11.329 -0.6226 -0.5736  1.6507
 8449TIP3   OH246837   2.554   4.816  13.982 -0.3078  0.1716  0.1357
 8449TIP3    H146838   2.507   4.737  13.956 -0.7743  0.5799 -0.2746
 8449TIP3    H246839   2.597   4.793  14.064 -1.0463 -0.2677  0.3991
 8450TIP3   OH246840   2.677   3.957  15.731 -0.2475 -1.2706  0.6849
 8450TIP3    H146841   2.671   3.869  15.770  0.1735 -1.3177  0.6471
 8450TIP3    H246842   2.614   4.009  15.780 -0.9955 -1.7629  0.2554
 8451TIP3   OH246843   3.846   7.023  13.230 -0.0538 -0.3654  0.2875
 8451TIP3    H146844   3.875   7.088  13.294 -0.0268  1.5233 -1.5960
 8451TIP3    H246845   3.797   7.073  13.165 -0.7522 -2.3628 -0.7592
 8452TIP3   OH246846   5.503   3.518  13.070 -0.3381 -0.4569  0.4299
 8452TIP3    H146847   5.481   3.501  13.162 -1.4616  0.6333  0.3727
 8452TIP3    H246848   5.566   3.450  13.048 -0.4522 -1.0498  1.8634
 8453TIP3   OH246849   1.147   6.099  12.090 -0.2249 -0.0315 -0.0611
 8453TIP3    H146850   1.168   6.161  12.160 -0.6609 -1.6038  1.4983
 8453TIP3    H246851   1.058   6.121  12.064 -0.5802 -0.3323  0.8692
 8454TIP3   OH246852   2.300   4.710  15.213 -0.4841 -0.2832  0.1071
 8454TIP3    H146853   2.271   4.718  15.123 -1.0844  0.4448  0.3645
 8454TIP3    H246854   2.316   4.616  15.225 -1.9197 -0.5777 -0.2802
 8455TIP3   OH246855   0.896   5.103  13.844 -0.4460  0.0755 -0.2068
 8455TIP3    H146856   0.900   5.008  13.853  1.7027  0.2492  1.0910
 8455TIP3    H246857   0.942   5.121  13.762 -0.9698 -0.0121 -0.5197
 8456TIP3   OH246858   0.826   2.847  13.745  0.0721  0.3173 -0.2294
 8456TIP3    H146859   0.757   2.785  13.723  0.4050 -0.0084 -0.3629
 8456TIP3    H246860   0.907   2.795  13.740  0.3233  0.6953 -0.0770
 8457TIP3   OH246861   0.807   5.479  13.714 -0.4772  0.3522  0.3622
 8457TIP3    H146862   0.770   5.396  13.684 -1.3082  0.5014  0.9702
 8457TIP3    H246863   0.749   5.508  13.784  0.3512  0.9686  0.8106
 8458TIP3   OH246864   1.398   4.453  14.620  0.0035  0.2360  0.0736
 8458TIP3    H146865   1.347   4.464  14.700 -1.9000 -1.4318 -0.8517
 8458TIP3    H246866   1.477   4.406  14.648 -1.3831 -1.7704  0.7708
 8459TIP3   OH246867   1.801   3.753  14.860  0.0731 -0.1612  0.4782
 8459TIP3    H146868   1.734   3.750  14.791 -0.7151 -0.7593  1.2582
 8459TIP3    H246869   1.856   3.676  14.842  1.4777  1.1687 -1.0639
 8460TIP3   OH246870   3.023   5.288  14.374  0.2095  0.1438  0.3019
 8460TIP3    H146871   3.061   5.330  14.297 -0.3678 -0.7130 -0.4689
 8460TIP3    H246872   3.037   5.194  14.359 -1.5423 -0.1354  0.3588
 8461TIP3   OH246873   2.803   5.820  11.719  0.4664  0.0085 -0.3223
 8461TIP3    H146874   2.870   5.788  11.658  2.4190  3.3507 -0.0704
 8461TIP3    H246875   2.736   5.860  11.663  0.0871 -0.8041 -0.4519
 8462TIP3   OH246876   3.371   5.536   1.442 -0.7794  0.0975 -0.2312
 8462TIP3    H146877   3.386   5.476   1.515 -0.2067 -1.5825 -1.6865
 8462TIP3    H246878   3.392   5.485   1.364 -0.8328  2.0244 -1.5565
 8463TIP3   OH246879   3.825   6.733  13.314 -0.0428  0.2041  0.2455
 8463TIP3    H146880   3.807   6.826  13.301 -0.5473  0.2432  1.1923
 8463TIP3    H246881   3.878   6.729  13.393 -1.0567 -0.3997  0.9201
 8464TIP3   OH246882   6.567   2.741  13.280  0.3098  0.3645  0.1544
 8464TIP3    H146883   6.563   2.805  13.351 -0.8587  2.1448 -1.4794
 8464TIP3    H246884   6.636   2.772  13.222  0.3571 -0.3477 -0.1891
 8465TIP3   OH246885   2.694   6.301  13.558  0.6228  0.0883 -0.1767
 8465TIP3    H146886   2.778   6.336  13.588  0.0820  1.6760 -0.4598
 8465TIP3    H246887   2.659   6.370  13.501 -0.1383 -1.2354 -1.3427
 8466TIP3   OH246888   6.932   3.844  12.902  0.3642 -0.2201  0.1879
 8466TIP3    H146889   6.879   3.810  12.830  1.1492 -0.5674 -0.2296
 8466TIP3    H246890   7.012   3.877  12.859 -0.3208  2.0590  0.5722
 8467TIP3   OH246891   4.320   5.039  14.347 -0.0365  0.1450 -0.7894
 8467TIP3    H146892   4.402   4.995  14.324 -0.1482 -1.0592  1.0841
 8467TIP3    H246893   4.276   4.980  14.407 -1.0645  1.9631  0.2975
 8468TIP3   OH246894   2.377   4.314   0.304 -0.4491  0.3861  0.5373
 8468TIP3    H146895   2.410   4.338   0.217  0.0417  2.8894  1.3794
 8468TIP3    H246896   2.290   4.278   0.287 -0.2648  0.6310 -1.0104
 8469TIP3   OH246897   2.800   0.583  15.067  0.0283 -0.5839  0.3245
 8469TIP3    H146898   2.741   0.512  15.042  1.1839 -1.3040 -0.4241
 8469TIP3    H246899   2.879   0.539  15.097  0.4022  0.3792  0.7833
 8470TIP3   OH246900   6.838   3.166  13.273  0.0101 -0.2472  0.1479
 8470TIP3    H146901   6.777   3.194  13.342  0.7097 -1.5230  1.3065
 8470TIP3    H246902   6.917   3.216  13.289 -0.2206  0.3276 -0.4676
 8471TIP3   OH246903   0.853   5.254  15.566 -0.3669  0.6658  0.3074
 8471TIP3    H146904   0.842   5.322  15.500 -0.3819  0.5681  0.2113
 8471TIP3    H246905   0.793   5.184  15.539  0.1687  0.3197  0.0294
 8472TIP3   OH246906   3.407   6.705  14.260  0.9610  0.1434 -0.3782
 8472TIP3    H146907   3.448   6.764  14.197  1.4287 -0.9351 -1.0957
 8472TIP3    H246908   3.458   6.715  14.340  1.6154  0.0368 -0.7751
 8473TIP3   OH246909   3.152   2.051  11.980  0.2757 -0.7692 -0.6269
 8473TIP3    H146910   3.161   2.143  11.957 -2.1064 -0.4998 -0.5668
 8473TIP3    H246911   3.153   2.051  12.076 -1.0335 -0.6369 -0.6004
 8474TIP3   OH246912   2.010   2.757  13.348  0.0966  0.4717 -0.8228
 8474TIP3    H146913   1.966   2.717  13.273  0.0072  0.8348 -0.9655
 8474TIP3    H246914   2.091   2.792  13.312 -0.3380  1.3820 -0.9187
 8475TIP3   OH246915   3.710   5.893  13.328  0.3855 -0.4551  0.5651
 8475TIP3    H146916   3.755   5.930  13.404 -0.5591 -0.1359  0.9782
 8475TIP3    H246917   3.675   5.810  13.358 -0.0987 -0.2709  0.5155
 8476TIP3   OH246918   1.291   5.040   0.185  0.2199  0.5166 -0.1217
 8476TIP3    H146919   1.266   4.986   0.260  0.5047 -0.5942 -0.8012
 8476TIP3    H246920   1.384   5.056   0.198  0.1218  0.8886  0.1118
 8477TIP3   OH246921   0.488   5.008  13.068  0.2206 -0.0673 -0.0225
 8477TIP3    H146922   0.474   4.994  12.975  0.8034  1.0446 -0.2888
 8477TIP3    H246923   0.535   5.091  13.073 -1.1326  0.6332  1.3533
 8478TIP3   OH246924   2.468   6.154  14.729  0.3476 -0.2165 -0.6875
 8478TIP3    H146925   2.517   6.072  14.725 -0.5677 -0.7997 -0.0262
 8478TIP3    H246926   2.418   6.157  14.648 -1.1345 -1.2783  0.1716
 8479TIP3   OH246927   7.030   3.347  13.358 -0.0944  0.9031  0.2411
 8479TIP3    H146928   7.104   3.402  13.333 -0.0215  0.0717 -1.4532
 8479TIP3    H246929   6.962   3.408  13.384  0.1135  1.7897 -1.2618
 8480TIP3   OH246930   3.538   6.061  14.839 -0.4970 -0.2340 -0.2833
 8480TIP3    H146931   3.525   6.147  14.799 -0.5112  0.1889  0.6309
 8480TIP3    H246932   3.452   6.038  14.874 -0.2275 -0.1266  0.4495
 8481TIP3   OH246933   3.537   3.267  11.928 -0.5091  0.2872 -0.0602
 8481TIP3    H146934   3.621   3.261  11.882  0.6399  0.1912  1.9782
 8481TIP3    H246935   3.475   3.296  11.861  1.2877  1.0728 -1.4283
 8482TIP3   OH246936   2.594   4.338  10.515  0.0123 -0.0642 -0.1786
 8482TIP3    H146937   2.638   4.409  10.563 -0.4850  0.5627 -0.6352
 8482TIP3    H246938   2.582   4.373  10.427 -0.2226 -0.7320 -0.4125
 8483TIP3   OH246939   0.794   3.766  12.855  0.7425 -0.1200  0.0347
 8483TIP3    H146940   0.708   3.808  12.856  1.2139  0.8650  0.1854
 8483TIP3    H246941   0.840   3.808  12.782  1.0730 -0.6838 -0.0784
 8484TIP3   OH246942   2.956   5.016  13.411 -0.8347  0.1619 -0.4168
 8484TIP3    H146943   2.935   4.924  13.399 -0.0819 -0.0291 -0.2732
 8484TIP3    H246944   2.889   5.048  13.472 -1.5170 -0.1140 -1.0100
 8485TIP3   OH246945   0.993   2.314  15.962 -0.3477  0.1002 -0.1809
 8485TIP3    H146946   1.074   2.264  15.970 -1.1922 -1.4673 -1.1104
 8485TIP3    H246947   1.016   2.389  15.907  0.7625  0.3714  0.6280
 8486TIP3   OH246948   3.030   6.070  13.082  0.2969 -0.6428 -0.3948
 8486TIP3    H146949   3.092   6.025  13.139 -0.1663 -1.3984 -0.4758
 8486TIP3    H246950   3.000   6.144  13.134 -0.4075 -1.5422  0.5152
 8487TIP3   OH246951   3.171   5.747  14.400  0.9953 -0.2689 -0.6754
 8487TIP3    H146952   3.150   5.692  14.475  3.0987 -0.2416 -0.0268
 8487TIP3    H246953   3.261   5.723  14.377  1.0016  0.9935 -2.0612
 8488TIP3   OH246954   1.982   6.151   0.004 -0.3440 -0.2176  0.1377
 8488TIP3    H146955   2.052   6.215   0.016 -1.2298  0.8928 -0.4700
 8488TIP3    H246956   2.027   6.067  -0.007  0.8171  0.2331  1.3352
 8489TIP3   OH246957   4.864   5.413  13.138 -0.4796 -0.4905 -0.2428
 8489TIP3    H146958   4.892   5.339  13.191  0.1495 -0.3547 -0.3794
 8489TIP3    H246959   4.773   5.429  13.165 -0.6359 -1.3424 -0.2602
 8490TIP3   OH246960   2.935   6.884  14.440 -0.2036  0.1339  0.0674
 8490TIP3    H146961   2.853   6.873  14.489  0.0169 -0.6472  0.2637
 8490TIP3    H246962   3.002   6.895  14.508  0.4613 -3.2923  0.0595
 8491TIP3   OH246963   1.058   2.816  13.401  0.4241 -0.0096  0.6078
 8491TIP3    H146964   1.042   2.908  13.422  1.2806 -0.2924  2.6114
 8491TIP3    H246965   1.153   2.808  13.397  0.3293 -0.3643 -1.7878
 8492TIP3   OH246966   4.053   4.337  15.919 -0.0730 -0.2106 -0.0843
 8492TIP3    H146967   4.040   4.281  15.843  1.4091 -2.0495  0.9573
 8492TIP3    H246968   4.004   4.294  15.989  0.8969 -0.1079  0.6750
 8493TIP3   OH246969   3.347   3.876  15.329 -0.1423  0.0923  0.2740
 8493TIP3    H146970   3.329   3.963  15.364  0.6737  0.6326 -0.6512
 8493TIP3    H246971   3.285   3.819  15.375 -0.9164  1.2049  0.6245
 8494TIP3   OH246972   0.765   4.327  14.321  0.2255 -0.6774  0.4605
 8494TIP3    H146973   0.726   4.251  14.279  0.5117 -0.3398 -0.4266
 8494TIP3    H246974   0.712   4.341  14.400 -1.5657 -0.1113 -0.8268
 8495TIP3   OH246975   1.176   0.305  14.997 -0.7318  0.0431 -0.0013
 8495TIP3    H146976   1.132   0.281  14.916 -1.3050  2.1647 -0.3410
 8495TIP3    H246977   1.107   0.341  15.053 -0.2848 -1.0810  1.3242
 8496TIP3   OH246978   2.463   5.703  13.459 -0.3926 -0.0127  0.1990
 8496TIP3    H146979   2.541   5.699  13.403  0.4297  2.5889  1.1080
 8496TIP3    H246980   2.490   5.659  13.540  0.2281  1.1092  0.6084
 8497TIP3   OH246981   3.619   5.325  13.522  0.3777  0.2949 -0.2979
 8497TIP3    H146982   3.697   5.337  13.577 -0.0401  1.5180  0.0386
 8497TIP3    H246983   3.589   5.414  13.504 -2.4763 -0.2021  1.7429
 8498TIP3   OH246984   4.230   6.426   0.254 -0.1253  0.0379 -0.2253
 8498TIP3    H146985   4.298   6.447   0.317  0.1620  1.7100 -1.0682
 8498TIP3    H246986   4.148   6.448   0.299  0.0208  0.3146 -0.0947
 8499TIP3   OH246987   3.932   6.291  13.509 -0.3147 -0.1440  0.1849
 8499TIP3    H146988   3.968   6.247  13.586 -1.1006  1.6892  1.6294
 8499TIP3    H246989   4.008   6.333  13.468 -0.1829  0.4958  1.0665
 8500TIP3   OH246990   1.120   5.169  15.835 -0.4121  0.4119  0.5068
 8500TIP3    H146991   1.128   5.140  15.926 -1.0572 -0.1612  0.3811
 8500TIP3    H246992   1.158   5.098  15.784 -0.6730  0.4372  0.2814
 8501TIP3   OH246993   3.149   3.118  14.620  0.2811  0.2677  0.1701
 8501TIP3    H146994   3.080   3.071  14.667  0.5140 -1.0230 -0.7478
 8501TIP3    H246995   3.226   3.110  14.675  0.8742 -2.3007 -0.9426
 8502TIP3   OH246996   3.207   0.719  14.571 -0.1295  0.6038 -0.0104
 8502TIP3    H146997   3.258   0.656  14.520 -0.3055  1.7983 -1.6860
 8502TIP3    H246998   3.250   0.720  14.656  3.0128  1.9732 -1.5189
 8503TIP3   OH246999   2.051   5.322  13.045 -0.2574 -0.6460 -0.8120
 8503TIP3    H147000   2.056   5.255  12.977  0.5573 -1.5110  0.0792
 8503TIP3    H247001   2.109   5.290  13.115  0.9939  1.5011 -0.8138
 8504TIP3   OH247002   2.377   4.805  15.999 -0.4882  0.2711  0.2107
 8504TIP3    H147003   2.469   4.811  16.025 -0.1497 -0.8066 -0.6958
 8504TIP3    H247004   2.332   4.868  16.055  0.7732  0.6606  0.8005
 8505TIP3   OH247005   0.860   4.785   0.643 -0.3023  0.6187 -0.7237
 8505TIP3    H147006   0.872   4.856   0.579  2.3337  0.9278  0.0267
 8505TIP3    H247007   0.900   4.819   0.723 -0.5986 -1.0495  0.1459
 8506TIP3   OH247008   0.499   4.946  12.812 -0.0063 -0.7711 -0.2181
 8506TIP3    H147009   0.411   4.910  12.804 -0.2260 -0.5615  1.1314
 8506TIP3    H247010   0.490   5.037  12.782 -0.2944 -0.6899  0.1068
 8507TIP3   OH247011   5.262   3.328  14.227  0.0489 -0.2657 -0.1005
 8507TIP3    H147012   5.174   3.292  14.214 -0.7290  1.8431 -0.9074
 8507TIP3    H247013   5.296   3.281  14.303 -1.9791 -0.7360  0.5511
 8508TIP3   OH247014   1.911   4.856  12.767 -0.2302  0.2155  0.2329
 8508TIP3    H147015   1.984   4.893  12.716  0.1059 -0.1412  0.4486
 8508TIP3    H247016   1.940   4.863  12.858 -0.5947  0.3415  0.3390
 8509TIP3   OH247017   1.970   6.326   1.149  0.1156  0.5632  0.2360
 8509TIP3    H147018   1.956   6.250   1.205 -0.1331  0.1796 -0.3421
 8509TIP3    H247019   2.015   6.291   1.071  1.4956  1.2613  0.6856
 8510TIP3   OH247020   3.029   6.487  13.929  0.7599 -0.0172  0.5638
 8510TIP3    H147021   2.994   6.413  13.978  1.7411 -0.2000  1.0011
 8510TIP3    H247022   3.101   6.450  13.878  1.2900  0.6495  0.8206
 8511TIP3   OH247023   2.545   5.737  14.873 -0.0755  0.4328 -0.0378
 8511TIP3    H147024   2.568   5.722  14.965 -0.7367 -0.8295 -0.0558
 8511TIP3    H247025   2.456   5.703  14.865 -0.3864  1.4484 -0.9167
 8512TIP3   OH247026   0.334   2.512  15.490 -0.4890 -0.5426 -0.1071
 8512TIP3    H147027   0.397   2.563  15.541 -0.6081 -0.5592  0.0549
 8512TIP3    H247028   0.253   2.562  15.495 -0.6581 -0.8500  0.2190
 8513TIP3   OH247029   3.029   6.125   0.588  0.6562 -0.0961 -0.4830
 8513TIP3    H147030   2.994   6.047   0.546  0.3299 -1.1510  1.7061
 8513TIP3    H247031   3.094   6.093   0.650  0.7634  1.3955  0.2143
 8514TIP3   OH247032   3.445   5.845  14.192  0.0464 -0.1461 -0.5560
 8514TIP3    H147033   3.415   5.792  14.266  0.1206 -0.5649 -0.8265
 8514TIP3    H247034   3.534   5.814  14.175  0.1932  0.2581 -0.5346
 8515TIP3   OH247035   2.711   5.442  14.164 -0.0969  0.9451  0.3008
 8515TIP3    H147036   2.741   5.371  14.106 -0.8200  0.5957  0.3535
 8515TIP3    H247037   2.770   5.438  14.239  0.5544  1.1031 -0.1968
 8516TIP3   OH247038   2.853   5.573  15.380  0.2526  0.4760 -0.2605
 8516TIP3    H147039   2.811   5.571  15.294  0.7224  1.5509 -0.5218
 8516TIP3    H247040   2.860   5.666  15.401  1.8051  0.2760  0.1361
 8517TIP3   OH247041   1.904   3.972  15.113  0.0250  0.5387  0.2451
 8517TIP3    H147042   1.816   3.982  15.150 -0.2443 -0.7981 -0.0271
 8517TIP3    H247043   1.958   3.945  15.187 -0.3796 -1.4725 -0.1672
 8518TIP3   OH247044   3.285   4.419   0.044  0.2194  0.8683  0.1262
 8518TIP3    H147045   3.224   4.348   0.060  0.2705  1.1604  1.7277
 8518TIP3    H247046   3.251   4.464  -0.034 -0.3243 -0.3251 -0.3253
 8519TIP3   OH247047   5.354   3.158  15.253  0.3942  0.3927  1.0272
 8519TIP3    H147048   5.340   3.079  15.305 -0.4752  0.0847  0.3340
 8519TIP3    H247049   5.447   3.154  15.227  0.4332 -0.2321  1.2575
 8520TIP3   OH247050   1.915   3.322   0.069 -0.4715  0.1780 -0.1040
 8520TIP3    H147051   1.952   3.391   0.014  0.4629  0.2753  0.6401
 8520TIP3    H247052   1.858   3.369   0.130  0.2814  0.3164  0.5005
 8521TIP3   OH247053   1.936   2.903   0.685 -0.4109  0.1338 -0.2301
 8521TIP3    H147054   2.024   2.895   0.721 -0.4699 -3.8077 -0.8084
 8521TIP3    H247055   1.880   2.856   0.747 -1.3424 -1.7542 -2.4600
 8522TIP3   OH247056   2.902   3.007  15.882  0.2314 -0.2508  0.4594
 8522TIP3    H147057   2.899   2.915  15.908 -2.0704  0.3276  2.3654
 8522TIP3    H247058   2.824   3.046  15.920  1.8679  2.8164  0.8402
 8523TIP3   OH247059   2.688   4.052  14.676  0.1214 -0.1394  0.3632
 8523TIP3    H147060   2.626   4.102  14.624 -0.5210 -0.8185  0.4736
 8523TIP3    H247061   2.670   3.961  14.654  0.1877 -0.4045  1.4004
 8524TIP3   OH247062   2.897   5.774  14.577  0.2210  0.3674  0.1031
 8524TIP3    H147063   2.813   5.735  14.553  0.7043 -0.4296 -0.3108
 8524TIP3    H247064   2.874   5.856  14.620 -0.7722  0.1173  0.0544
 8525TIP3   OH247065   2.658   6.080  11.804 -0.1558 -0.3616  0.4311
 8525TIP3    H147066   2.637   6.173  11.808  0.9725 -0.0950  0.1216
 8525TIP3    H247067   2.572   6.037  11.800 -0.6770  0.6704  0.2840
 8526TIP3   OH247068   2.311   5.714  11.922  0.2319 -0.1387  0.0230
 8526TIP3    H147069   2.289   5.804  11.946 -1.9522 -0.2758 -1.3787
 8526TIP3    H247070   2.245   5.660  11.965 -0.8163 -0.7530 -2.2667
 8527TIP3   OH247071   4.877   6.076  12.508 -0.3449  0.4976  0.1079
 8527TIP3    H147072   4.784   6.083  12.531  0.3800  2.2645  2.7122
 8527TIP3    H247073   4.887   6.134  12.432 -1.3322  0.3559 -0.1458
 8528TIP3   OH247074   1.504   3.339  14.002  0.3701 -0.9262 -0.2119
 8528TIP3    H147075   1.511   3.407  13.935  0.1521 -0.5614  0.1340
 8528TIP3    H247076   1.420   3.356  14.045 -0.1800 -2.0410 -0.8074
 8529TIP3   OH247077   2.925   6.253  13.275  0.5292 -0.1808  0.2771
 8529TIP3    H147078   2.997   6.291  13.325  1.0180  0.6413 -1.0355
 8529TIP3    H247079   2.881   6.328  13.235 -0.1990 -0.7878 -0.0677
 8530TIP3   OH247080   5.448   4.473  15.372  0.5697 -0.1093  0.0650
 8530TIP3    H147081   5.390   4.462  15.297  0.4265 -0.8644  0.2879
 8530TIP3    H247082   5.451   4.568  15.386 -1.9016 -0.1430  1.0773
 8531TIP3   OH247083   2.035   6.679  13.130 -0.5059  0.0972  0.1751
 8531TIP3    H147084   1.963   6.660  13.190 -0.3578 -2.7700 -0.4909
 8531TIP3    H247085   1.998   6.741  13.067 -0.8579  2.6359  2.7541
 8532TIP3   OH247086   4.307   4.505  14.075  0.7792 -0.2058 -0.4105
 8532TIP3    H147087   4.370   4.520  14.005  0.9846  1.4926  0.1293
 8532TIP3    H247088   4.255   4.585  14.078  0.4234 -0.4860  1.0331
 8533TIP3   OH247089   3.074   5.591  15.141 -0.0651  0.8364  0.3716
 8533TIP3    H147090   2.984   5.562  15.158  0.1463 -1.3235 -2.0289
 8533TIP3    H247091   3.063   5.676  15.097 -0.9372  0.3480 -0.3634
 8534TIP3   OH247092   2.901   5.297  13.970  0.1784 -0.4931 -0.0785
 8534TIP3    H147093   2.978   5.344  14.001 -0.6727  0.5237  0.5338
 8534TIP3    H247094   2.884   5.232  14.039  0.4005 -0.6096 -0.1340
 8535TIP3   OH247095   4.970   5.493  14.115 -0.2818  0.1714 -0.3737
 8535TIP3    H147096   4.979   5.399  14.104  0.6836 -0.0732  2.2221
 8535TIP3    H247097   4.882   5.506  14.148 -0.0568  0.0665  0.2765
 8536TIP3   OH247098   4.656   2.737  13.190 -0.3294 -0.4384 -0.3379
 8536TIP3    H147099   4.623   2.754  13.278 -0.6092  0.0945 -0.5489
 8536TIP3    H247100   4.594   2.675  13.152 -0.9034  0.2941 -0.6092
 8537TIP3   OH247101   5.470   3.585  15.290 -0.0984 -0.3893  0.5226
 8537TIP3    H147102   5.385   3.583  15.246  0.9697  0.3273 -1.6064
 8537TIP3    H247103   5.479   3.497  15.328 -0.0101 -1.8082 -2.6843
 8538TIP3   OH247104   1.159   5.087  15.285  0.0030 -0.0147 -0.3616
 8538TIP3    H147105   1.130   5.006  15.245  0.9526  0.5291 -2.2201
 8538TIP3    H247106   1.142   5.076  15.378  0.2679 -2.3979 -0.5818
 8539TIP3   OH247107   4.298   2.471  14.802 -0.3629  0.3570 -0.9051
 8539TIP3    H147108   4.369   2.465  14.739 -1.0072 -4.2697 -1.3839
 8539TIP3    H247109   4.218   2.470  14.749 -0.8531  0.3764 -0.1795
 8540TIP3   OH247110   0.315   1.523  13.590  0.0943  0.1364  0.4329
 8540TIP3    H147111   0.333   1.611  13.622 -0.9492  0.3467  0.4463
 8540TIP3    H247112   0.325   1.467  13.668  0.0544  0.3325  0.5778
 8541TIP3   OH247113   4.163   5.042  12.245  0.2913 -0.3506 -0.2298
 8541TIP3    H147114   4.098   4.999  12.302 -0.5079  0.6012 -0.4111
 8541TIP3    H247115   4.166   4.987  12.167 -0.0509 -0.5800 -0.0829
 8542TIP3   OH247116   5.107   5.772   0.289  0.8004 -0.0129  0.2044
 8542TIP3    H147117   5.162   5.780   0.367  0.7533 -0.6329  0.3041
 8542TIP3    H247118   5.109   5.859   0.249  1.6407  0.0383  0.3475
 8543TIP3   OH247119   5.692   3.774  14.643 -0.7181  0.3545  0.1436
 8543TIP3    H147120   5.634   3.791  14.569  0.3613 -2.0726 -1.3407
 8543TIP3    H247121   5.675   3.682  14.666  1.7447 -0.0828  0.3593
 8544TIP3   OH247122   3.351   4.640  15.246  0.0639  0.3271  0.1564
 8544TIP3    H147123   3.294   4.572  15.283  1.0088  0.5365  2.0920
 8544TIP3    H247124   3.331   4.719  15.296 -0.9840  1.4910 -2.0442
 8545TIP3   OH247125   2.160   4.906  14.808  0.7966  0.5561 -0.1921
 8545TIP3    H147126   2.171   4.857  14.727 -0.6264  1.4924 -0.9741
 8545TIP3    H247127   2.243   4.895  14.855  1.1721 -1.0372 -1.1878
 8546TIP3   OH247128   3.372   3.052   0.544 -0.2738 -0.2075 -0.4604
 8546TIP3    H147129   3.409   3.003   0.617  0.1558 -0.4029 -0.8031
 8546TIP3    H247130   3.277   3.039   0.551 -0.1929 -0.6829 -0.2614
 8547TIP3   OH247131   3.627   5.012  12.653  0.6432 -0.5943 -0.4118
 8547TIP3    H147132   3.700   5.054  12.608  1.3853 -2.4575 -1.0233
 8547TIP3    H247133   3.555   5.013  12.590  0.0940  1.3123  0.2176
 8548TIP3   OH247134   1.509   2.846  15.164 -0.0874 -0.5565  0.2033
 8548TIP3    H147135   1.512   2.936  15.198 -0.1169 -1.0405  1.4970
 8548TIP3    H247136   1.552   2.852  15.079 -0.2048  0.7178  0.2263
 8549TIP3   OH247137   1.003   4.672  14.254 -0.7271 -0.4406  0.1993
 8549TIP3    H147138   0.983   4.672  14.348  0.3903 -2.0732  0.4507
 8549TIP3    H247139   1.068   4.741  14.244 -0.7187 -0.3764  0.6536
 8550TIP3   OH247140   2.300   2.128  15.542  0.0872  0.4897  0.2855
 8550TIP3    H147141   2.282   2.149  15.451  1.0631  1.4295  0.2940
 8550TIP3    H247142   2.350   2.046  15.538 -1.3718 -0.4195  0.0963
 8551TIP3   OH247143   3.772   4.870  11.579  0.4173 -0.5724  0.4442
 8551TIP3    H147144   3.816   4.787  11.559  1.9945  0.5053 -0.5726
 8551TIP3    H247145   3.823   4.909  11.649  0.5565  0.2484 -0.1057
 8552TIP3   OH247146   1.016   0.861  14.538 -0.0673 -0.1225 -0.4411
 8552TIP3    H147147   1.111   0.855  14.539 -0.0925 -0.9479 -1.7867
 8552TIP3    H247148   0.989   0.831  14.625  0.8936  0.0272 -0.0896
 8553TIP3   OH247149   1.823   0.442   0.346 -0.2941 -0.2313 -0.6224
 8553TIP3    H147150   1.777   0.457   0.263 -0.9653 -0.0130 -0.2093
 8553TIP3    H247151   1.754   0.420   0.408  0.3210 -1.6023 -0.3964
 8554TIP3   OH247152   3.477   3.638   0.359 -0.3429  0.1776 -0.0864
 8554TIP3    H147153   3.553   3.580   0.363  0.0961  0.5572 -2.2780
 8554TIP3    H247154   3.484   3.692   0.437  0.7830 -0.8428  0.5378
 8555TIP3   OH247155   0.694   6.140   0.695 -0.2397  0.5261 -0.2492
 8555TIP3    H147156   0.606   6.105   0.713 -0.2595  0.4322 -0.5365
 8555TIP3    H247157   0.720   6.181   0.778  0.4009 -1.4663  0.5729
 8556TIP3   OH247158   0.972   1.946  14.059 -0.0019 -0.0089  0.3149
 8556TIP3    H147159   0.888   1.903  14.066  0.3411 -0.8233 -0.4293
 8556TIP3    H247160   0.990   1.949  13.965  0.9527 -0.1513  0.4827
 8557TIP3   OH247161   2.749   5.920  15.010 -0.7959  0.0893  0.0160
 8557TIP3    H147162   2.687   5.988  14.986  0.6152  0.6927 -2.0837
 8557TIP3    H247163   2.731   5.902  15.102 -0.9223  3.6106  0.7457
 8558TIP3   OH247164   3.942   4.751  14.820  0.4411 -0.0161 -0.0040
 8558TIP3    H147165   3.929   4.741  14.914 -0.8412  1.3375 -0.0217
 8558TIP3    H247166   4.024   4.706  14.802  0.3381 -0.8960  1.6431
 8559TIP3   OH247167   2.913   3.415  13.885 -0.4160  0.5319  0.0765
 8559TIP3    H147168   2.954   3.485  13.934 -2.7649  2.4379 -0.6170
 8559TIP3    H247169   2.984   3.379  13.831  1.1375  1.3391  1.5390
 8560TIP3   OH247170   1.309   5.659   0.244  0.1503 -0.0661 -0.0548
 8560TIP3    H147171   1.329   5.703   0.326 -0.6900  1.3515 -0.5847
 8560TIP3    H247172   1.381   5.597   0.231  0.1101 -0.5405  1.8997
 8561TIP3   OH247173   2.420   4.510  15.070  0.1480  0.3439  0.4131
 8561TIP3    H147174   2.476   4.486  14.997  0.3984 -1.1093  1.0740
 8561TIP3    H247175   2.339   4.461  15.055  0.6997 -1.0378  1.8161
 8562TIP3   OH247176   3.363   0.586  13.689 -0.0330  0.4840  0.0874
 8562TIP3    H147177   3.277   0.605  13.652  0.1964 -1.0056 -1.2573
 8562TIP3    H247178   3.350   0.505  13.739  0.2016  1.2102  1.3641
 8563TIP3   OH247179   4.989   4.696  14.024  0.4677  0.2872  0.2715
 8563TIP3    H147180   5.006   4.713  14.117  2.3181 -0.2045  0.0545
 8563TIP3    H247181   4.924   4.761  13.999  2.3145  2.5734  1.1490
 8564TIP3   OH247182   3.358   5.041  13.654 -0.2738  0.1994  0.0427
 8564TIP3    H147183   3.307   5.122  13.656 -0.4222  0.1039  0.1108
 8564TIP3    H247184   3.372   5.023  13.561  0.6531  0.8641  0.0470
 8565TIP3   OH247185   0.970   3.996  14.317 -0.0593  0.2966 -0.7030
 8565TIP3    H147186   1.057   3.955  14.325 -0.1341  0.0204 -1.3001
 8565TIP3    H247187   0.989   4.089  14.306  0.1054  0.4761  0.9349
 8566TIP3   OH247188   2.115   4.959  14.124  0.0926 -0.3108  0.0790
 8566TIP3    H147189   2.028   4.934  14.093  0.1677  0.3094 -0.6437
 8566TIP3    H247190   2.155   5.005  14.050  0.7117  0.1543  0.6955
 8567TIP3   OH247191   1.971   5.912  14.249  0.4959  0.4726  0.2054
 8567TIP3    H147192   1.948   5.878  14.335  1.5869 -1.1145 -0.1100
 8567TIP3    H247193   2.038   5.978  14.266  0.3614  0.5063  0.6028
 8568TIP3   OH247194   4.134   5.276  12.045  0.3729 -0.1502 -0.1102
 8568TIP3    H147195   4.058   5.297  12.100  0.4411 -1.5661  0.5439
 8568TIP3    H247196   4.210   5.289  12.102  0.4774 -1.0951 -0.0275
 8569TIP3   OH247197   3.309   4.384   0.658 -0.0297 -0.3099  0.0006
 8569TIP3    H147198   3.378   4.374   0.723  0.2905 -1.2830 -0.4751
 8569TIP3    H247199   3.334   4.324   0.587 -0.3404  0.7726 -1.0392
 8570TIP3   OH247200   2.895   3.235  15.282  0.0462 -0.0261 -0.6394
 8570TIP3    H147201   2.824   3.299  15.269 -0.0975  0.3298  1.6810
 8570TIP3    H247202   2.975   3.285  15.268 -0.1030  0.2173 -0.6311
 8571TIP3   OH247203   1.764   5.293  14.577 -0.3193  0.3694  0.0137
 8571TIP3    H147204   1.769   5.222  14.514 -0.2195 -0.6793  1.1839
 8571TIP3    H247205   1.772   5.373  14.524 -0.6654 -0.4703 -1.3299
 8572TIP3   OH247206   3.247   5.289  13.742 -0.0719 -0.6220 -0.3159
 8572TIP3    H147207   3.292   5.286  13.826 -0.2635  1.2015 -0.1403
 8572TIP3    H247208   3.270   5.374  13.705 -1.5306 -0.6165 -1.2559
 8573TIP3   OH247209   3.567   5.601  13.338  0.0136 -0.2836 -0.1139
 8573TIP3    H147210   3.473   5.614  13.343 -0.5261 -3.8572 -0.0885
 8573TIP3    H247211   3.590   5.618  13.247 -0.7035  0.0960 -0.2239
 8574TIP3   OH247212   3.420   3.033  14.437  0.6744  0.5059  0.0202
 8574TIP3    H147213   3.334   3.075  14.443  0.3207 -0.2191  0.2230
 8574TIP3    H247214   3.475   3.095  14.390  0.1829  1.2062  0.3648
 8575TIP3   OH247215   2.194   3.810  11.876  0.6346 -0.0419 -0.2056
 8575TIP3    H147216   2.272   3.825  11.823 -0.1467  0.6345 -1.1654
 8575TIP3    H247217   2.128   3.869  11.840 -0.1404 -0.1455  1.0072
 8576TIP3   OH247218   2.398   7.178  15.261  0.0978  0.1067  0.3524
 8576TIP3    H147219   2.332   7.111  15.281 -0.2280  0.4738  0.5139
 8576TIP3    H247220   2.347   7.255  15.238  0.4691  0.0336 -0.7335
 8577TIP3   OH247221   0.450   3.091  11.678 -0.3746  0.4616  0.1875
 8577TIP3    H147222   0.445   3.156  11.608  0.1686  0.3094  0.0081
 8577TIP3    H247223   0.361   3.088  11.714 -0.6381  0.6024 -0.4358
 8578TIP3   OH247224   5.170   5.699  14.897  0.2594  0.5933 -0.3139
 8578TIP3    H147225   5.112   5.758  14.850  0.8089 -0.0373 -1.8258
 8578TIP3    H247226   5.164   5.726  14.988 -1.7965  1.0408 -0.5642
 8579TIP3   OH247227   1.765   6.147  15.794  0.2025  0.1163 -0.1228
 8579TIP3    H147228   1.802   6.124  15.879 -0.0930 -1.0499 -0.3079
 8579TIP3    H247229   1.673   6.121  15.799 -0.5969  2.8213  0.2659
 8580TIP3   OH247230   2.939   7.217  12.149  0.0116  0.5636 -0.2502
 8580TIP3    H147231   3.011   7.192  12.206 -0.3389  0.1708  0.0158
 8580TIP3    H247232   2.967   7.191  12.062 -0.4261 -0.9056  0.0462
 8581TIP3   OH247233   1.865   5.819  15.416 -0.7472  0.0282 -0.1639
 8581TIP3    H147234   1.883   5.890  15.478  0.9416 -2.6362  2.5688
 8581TIP3    H247235   1.937   5.823  15.353 -0.2781  0.3639  0.3822
 8582TIP3   OH247236   0.617   3.840   0.413 -0.6845 -0.4560  0.0433
 8582TIP3    H147237   0.702   3.873   0.382 -2.5749  2.1955 -2.5974
 8582TIP3    H247238   0.597   3.766   0.355 -0.8034 -0.1915 -0.2561
 8583TIP3   OH247239   0.577   3.546  13.154 -0.3885 -0.2409  0.2884
 8583TIP3    H147240   0.594   3.614  13.219 -1.4399 -1.0171  1.4011
 8583TIP3    H247241   0.664   3.511  13.133  0.2494  2.0294 -0.9857
 8584TIP3   OH247242   5.155   2.796  15.030 -0.5130 -0.2283  0.0103
 8584TIP3    H147243   5.170   2.708  14.996 -1.1841 -0.2938 -0.1198
 8584TIP3    H247244   5.167   2.788  15.125  1.1976 -0.0790 -0.1744
 8585TIP3   OH247245   4.054   6.161  13.732  0.1463  0.0473 -0.2174
 8585TIP3    H147246   4.102   6.095  13.782  0.2252 -0.4475 -0.9368
 8585TIP3    H247247   4.011   6.215  13.798  1.9960  0.7353  0.4563
 8586TIP3   OH247248   7.317   4.838  13.949  0.6822 -0.0842 -0.7566
 8586TIP3    H147249   7.298   4.769  14.012 -0.2554 -0.2571 -1.2217
 8586TIP3    H247250   7.411   4.829  13.931  1.0620  0.2946  0.9957
 8587TIP3   OH247251   4.535   5.534  15.230 -0.6369 -0.2962 -0.2972
 8587TIP3    H147252   4.599   5.517  15.161 -0.7981 -0.5205 -0.3927
 8587TIP3    H247253   4.520   5.449  15.271  1.1446  0.2094  1.5107
 8588TIP3   OH247254   3.337   4.766  14.835  0.5980 -0.1033  0.4402
 8588TIP3    H147255   3.317   4.739  14.745  0.3680 -0.0350  0.4711
 8588TIP3    H247256   3.304   4.694  14.889  0.1850  0.1316  0.5083
 8589TIP3   OH247257   5.204   2.708  14.099  0.2695 -0.0454  0.2729
 8589TIP3    H147258   5.242   2.638  14.152 -0.3936  0.4581  1.4215
 8589TIP3    H247259   5.279   2.763  14.076  0.4579  0.1679  1.3532
 8590TIP3   OH247260   4.100   4.217   1.296  0.6984 -0.4300 -0.2760
 8590TIP3    H147261   4.107   4.312   1.282  1.2021 -0.4455 -0.1434
 8590TIP3    H247262   4.020   4.192   1.249  1.2471 -0.1411 -1.3845
 8591TIP3   OH247263   1.750   5.559  12.611  0.4903  0.3351 -0.2371
 8591TIP3    H147264   1.814   5.625  12.636  0.8631 -0.4365  0.9131
 8591TIP3    H247265   1.675   5.608  12.578  1.0544  1.2987 -0.0975
 8592TIP3   OH247266   2.406   5.061  13.884  0.0517  0.3759  0.1904
 8592TIP3    H147267   2.462   4.986  13.902 -0.1177  0.4494  1.0167
 8592TIP3    H247268   2.409   5.070  13.788 -2.1855 -2.4311 -0.2045
 8593TIP3   OH247269   1.745   5.454   0.096  0.1194 -0.4708  0.0097
 8593TIP3    H147270   1.760   5.506   0.017 -1.5305  0.2784  0.1769
 8593TIP3    H247271   1.734   5.364   0.063 -0.5200 -0.1657 -0.6234
 8594TIP3   OH247272   3.555   5.806   1.980 -0.1616 -0.7097 -0.6097
 8594TIP3    H147273   3.595   5.791   1.894  1.4692  1.4587 -0.2757
 8594TIP3    H247274   3.482   5.865   1.962  0.5853  0.2815 -0.4506
 8595TIP3   OH247275   6.807   3.606  14.293 -0.0318 -0.0830 -0.1303
 8595TIP3    H147276   6.716   3.635  14.295  0.3466  1.3707 -2.1048
 8595TIP3    H247277   6.812   3.548  14.217  0.4545 -1.0616  0.6322
 8596TIP3   OH247278   4.375   6.228  14.912  0.5397  0.0166  0.3995
 8596TIP3    H147279   4.465   6.254  14.889  0.4655 -0.2795 -0.2506
 8596TIP3    H247280   4.320   6.294  14.871  0.5368  1.2295  2.3418
 8597TIP3   OH247281   5.158   5.006  14.294  0.3325  0.3217  0.0441
 8597TIP3    H147282   5.078   5.047  14.328  0.2158 -0.8918  1.2947
 8597TIP3    H247283   5.147   4.913  14.314  0.2596 -0.4591 -3.4428
 8598TIP3   OH247284   4.915   6.012  14.187 -0.0183 -0.1385  0.0438
 8598TIP3    H147285   4.959   5.930  14.164  1.2163  1.0158 -1.8056
 8598TIP3    H247286   4.971   6.051  14.255 -0.1162 -0.3966  0.2741
 8599TIP3   OH247287   3.551   5.355  13.219 -0.0351  0.0057 -0.1619
 8599TIP3    H147288   3.559   5.445  13.250 -2.0818  0.0345  0.3402
 8599TIP3    H247289   3.620   5.346  13.153  1.0879  1.4903  0.7758
 8600TIP3   OH247290   4.342   5.743  12.361  0.8796  0.0013 -0.4639
 8600TIP3    H147291   4.374   5.750  12.271  0.3030 -0.1450 -0.6864
 8600TIP3    H247292   4.314   5.832  12.383  1.4730  0.1367 -0.2570
 8601TIP3   OH247293   4.661   4.771   0.630 -0.1462 -0.1576 -0.3147
 8601TIP3    H147294   4.706   4.856   0.628 -0.4560 -0.0155 -1.4607
 8601TIP3    H247295   4.729   4.709   0.655  0.1269  0.4046  0.3474
 8602TIP3   OH247296   4.199   4.654  14.791  0.2096  0.6555 -0.0026
 8602TIP3    H147297   4.219   4.673  14.883 -0.6819 -1.1010  0.5821
 8602TIP3    H247298   4.285   4.644  14.749  0.6171  0.2175  0.9228
 8603TIP3   OH247299   3.953   5.181   0.056  0.6087  0.4513 -0.0323
 8603TIP3    H147300   3.877   5.153   0.006  1.2797  0.3961 -1.0412
 8603TIP3    H247301   4.016   5.110   0.046  1.2004  0.9783 -0.1228
 8604TIP3   OH247302   5.866   6.017   0.169  0.0416 -0.4365 -0.0707
 8604TIP3    H147303   5.860   6.106   0.133  1.5614 -0.0463  0.6135
 8604TIP3    H247304   5.796   5.969   0.125 -0.5149  0.9857 -0.7792
 8605TIP3   OH247305   6.500   4.142  13.902 -0.4417 -0.0860  0.6967
 8605TIP3    H147306   6.583   4.150  13.949 -0.4216 -1.6347  0.9395
 8605TIP3    H247307   6.435   4.123  13.970 -1.5434  3.8402  0.8951
 8606TIP3   OH247308   5.713   2.943  12.868  0.1580 -1.2282 -0.1900
 8606TIP3    H147309   5.770   3.019  12.878  0.1787 -1.1321 -0.9787
 8606TIP3    H247310   5.773   2.869  12.860  0.1380 -1.3267  0.5987
 8607TIP3   OH247311   5.866   3.932  15.444  0.3232 -0.4339 -0.0462
 8607TIP3    H147312   5.807   4.006  15.457 -0.3433 -1.1414  1.0240
 8607TIP3    H247313   5.952   3.972  15.434  0.1954  0.4437  2.0303
 8608TIP3   OH247314   4.816   3.622  12.887  0.2007 -0.0339  0.1830
 8608TIP3    H147315   4.888   3.680  12.913  0.3286 -0.4500  0.7481
 8608TIP3    H247316   4.829   3.609  12.793  0.4612  0.4575  0.1481
 8609TIP3   OH247317   2.252   5.080   0.601  0.2657  0.1137  0.0173
 8609TIP3    H147318   2.304   5.104   0.524  0.6279 -2.3473 -0.5364
 8609TIP3    H247319   2.218   4.993   0.581 -2.6620  0.9543  1.1303
 8610TIP3   OH247320   5.426   1.610  14.145  0.3000 -0.3327  0.4018
 8610TIP3    H147321   5.434   1.623  14.050  0.9784  1.0493  0.6302
 8610TIP3    H247322   5.512   1.633  14.179  0.2520 -1.4812  1.2903
 8611TIP3   OH247323   3.893   2.140  15.462 -0.1626  0.3078 -0.1513
 8611TIP3    H147324   3.861   2.089  15.536 -1.2203  0.5185 -0.4524
 8611TIP3    H247325   3.916   2.225  15.499  0.4612  0.0172  0.1387
 8612TIP3   OH247326   6.557   2.910  15.784  0.0746  0.4167  0.1989
 8612TIP3    H147327   6.580   2.831  15.734 -1.0232 -1.8961  3.1916
 8612TIP3    H247328   6.639   2.959  15.790  1.0097 -0.9642 -0.9073
 8613TIP3   OH247329   5.042   6.452  15.851 -0.3766 -0.0939  0.0380
 8613TIP3    H147330   5.067   6.360  15.845 -0.2651 -0.0510 -0.1995
 8613TIP3    H247331   5.007   6.472  15.764 -0.6775  0.0063  0.1837
 8614TIP3   OH247332   2.488   5.206   0.081 -0.0880 -0.1854  0.0403
 8614TIP3    H147333   2.536   5.124   0.091 -1.3725 -1.1993 -1.7878
 8614TIP3    H247334   2.417   5.200   0.145  0.3327 -0.0955  0.5209
 8615TIP3   OH247335   5.115   6.804  12.817  0.1190 -0.0961  0.2882
 8615TIP3    H147336   5.101   6.782  12.725  0.1162  0.7556  0.0780
 8615TIP3    H247337   5.202   6.770  12.836  0.9716  1.5052 -0.6124
 8616TIP3   OH247338   6.023   6.263  15.356  0.4830  0.5261 -0.4242
 8616TIP3    H147339   6.040   6.325  15.427  1.0000  0.9667 -0.9300
 8616TIP3    H247340   6.110   6.237  15.326  0.2703 -1.3163  0.5331
 8617TIP3   OH247341   6.135   6.160   2.320  0.2185  0.1125 -0.1426
 8617TIP3    H147342   6.107   6.070   2.334  1.1474 -0.0838  0.5140
 8617TIP3    H247343   6.231   6.155   2.315  0.2479  0.9939 -0.5937
 8618TIP3   OH247344   3.855   6.949  15.243  0.1291 -0.4946 -0.4937
 8618TIP3    H147345   3.775   6.978  15.200 -0.2077 -0.2776  0.2693
 8618TIP3    H247346   3.915   7.023  15.237  0.3678 -0.7485 -1.2948
 8619TIP3   OH247347   3.641   2.026   0.067  0.0560  0.1259  0.2248
 8619TIP3    H147348   3.570   2.007   0.128  0.4369 -2.6599 -0.1450
 8619TIP3    H247349   3.610   2.102   0.018 -1.9908 -0.0761  1.1421
 8620TIP3   OH247350   5.723   4.758  15.454  0.4394  0.5155 -0.1949
 8620TIP3    H147351   5.705   4.720  15.368  1.4909 -0.1187 -0.1515
 8620TIP3    H247352   5.654   4.823  15.467 -0.7343 -0.5934 -0.7666
 8621TIP3   OH247353   5.552   2.790  14.391 -0.1432 -0.8547 -0.3844
 8621TIP3    H147354   5.616   2.837  14.338  1.3399 -1.4426  0.8483
 8621TIP3    H247355   5.560   2.827  14.479 -1.1404 -1.2748 -0.1062
 8622TIP3   OH247356   4.606   5.663  13.841  0.6005  0.2685  0.3363
 8622TIP3    H147357   4.511   5.678  13.839  0.7152  0.9597 -0.1664
 8622TIP3    H247358   4.633   5.669  13.749  1.0712 -0.3449  0.4311
 8623TIP3   OH247359   4.609   5.201  15.025  0.1567  0.0657 -0.0295
 8623TIP3    H147360   4.623   5.132  15.090 -0.9464  0.1386  0.2837
 8623TIP3    H247361   4.662   5.274  15.056  1.6837 -0.7735 -0.5909
 8624TIP3   OH247362   4.736   4.525   0.038  0.5342 -0.0915  0.7625
 8624TIP3    H147363   4.816   4.569   0.067  1.1315 -1.4350  1.1760
 8624TIP3    H247364   4.666   4.585   0.061  1.3558  0.7399  1.1304
 8625TIP3   OH247365   4.251   6.273  15.624  0.6108 -0.7450 -0.1748
 8625TIP3    H147366   4.213   6.228  15.699  1.0589 -0.9484 -0.0666
 8625TIP3    H247367   4.345   6.256  15.631  0.7427 -0.0765 -0.3279
 8626TIP3   OH247368   3.578   3.621  12.166 -0.2210  0.3594  0.1937
 8626TIP3    H147369   3.483   3.627  12.153 -0.3753  1.0455  1.5393
 8626TIP3    H247370   3.587   3.589  12.256  0.8273  0.5160  0.1422
 8627TIP3   OH247371   5.674   2.859  12.082 -0.0043  0.7681 -0.3767
 8627TIP3    H147372   5.585   2.827  12.087 -0.7276  2.5695 -1.2069
 8627TIP3    H247373   5.724   2.801  12.140 -1.2805 -1.6020 -1.5665
 8628TIP3   OH247374   4.433   5.157  14.121 -0.1184 -0.1901 -0.0003
 8628TIP3    H147375   4.483   5.165  14.202 -1.3939 -3.8692  1.2540
 8628TIP3    H247376   4.493   5.186  14.052  1.9003  0.4812  2.0004
 8629TIP3   OH247377   5.041   2.479  14.385 -0.0060  0.0358 -0.4481
 8629TIP3    H147378   5.059   2.387  14.402  1.0505 -0.0988 -2.1908
 8629TIP3    H247379   5.106   2.526  14.436 -1.8176 -0.0854  2.0542
 8630TIP3   OH247380   3.085   3.978  11.864 -0.6934  0.0791  0.3332
 8630TIP3    H147381   3.008   3.932  11.833 -0.5149 -1.2790  1.8548
 8630TIP3    H247382   3.063   4.006  11.953  0.1621  0.6597  0.3732
 8631TIP3   OH247383   4.510   6.769  15.525  0.7026 -0.0356 -0.0710
 8631TIP3    H147384   4.543   6.828  15.592  0.7605  0.3847 -0.4696
 8631TIP3    H247385   4.415   6.774  15.534  0.6865  0.6427 -0.5481
 8632TIP3   OH247386   3.342   4.362  11.747 -0.0640 -0.4398 -0.2745
 8632TIP3    H147387   3.264   4.310  11.728  1.0286 -1.4071 -2.4339
 8632TIP3    H247388   3.352   4.358  11.842 -0.7100 -3.2055 -0.2818
 8633TIP3   OH247389   2.660   3.929  14.200 -0.0969  0.1520 -0.1062
 8633TIP3    H147390   2.717   3.993  14.242 -0.4405  0.2943  0.1451
 8633TIP3    H247391   2.657   3.954  14.108  0.4247  0.0120 -0.1619
 8634TIP3   OH247392   3.986   3.824  15.865  0.5742  0.2370 -0.8064
 8634TIP3    H147393   4.074   3.861  15.863  0.7088  0.0502  0.7473
 8634TIP3    H247394   3.993   3.742  15.817  1.2449  0.2315 -0.7034
 8635TIP3   OH247395   1.313   5.672  15.244  0.2000 -0.0585 -0.1295
 8635TIP3    H147396   1.358   5.612  15.304  0.8935  0.4182 -0.1596
 8635TIP3    H247397   1.332   5.759  15.279 -1.0843  0.1277  0.1016
 8636TIP3   OH247398   4.425   5.364  15.880  0.3468  0.4359  0.2456
 8636TIP3    H147399   4.494   5.425  15.852  0.6952  0.1368  0.4561
 8636TIP3    H247400   4.472   5.290  15.918 -0.1111  0.6099  1.1757
 8637TIP3   OH247401   3.923   4.869  12.310 -0.5745  0.6026  0.0441
 8637TIP3    H147402   3.837   4.827  12.318 -0.3601  0.0657 -0.4537
 8637TIP3    H247403   3.920   4.913  12.225  0.2676 -0.8593 -0.7638
 8638TIP3   OH247404   4.037   4.149   1.627  0.0913 -0.2884 -0.3492
 8638TIP3    H147405   3.990   4.230   1.606  0.7100  0.1690  0.0023
 8638TIP3    H247406   4.111   4.149   1.567  1.3203  0.5288  1.1259
 8639TIP3   OH247407   5.658   3.651  12.380  0.2906 -0.1209  0.2298
 8639TIP3    H147408   5.614   3.733  12.400  0.9609  0.3697 -0.2905
 8639TIP3    H247409   5.721   3.640  12.451 -1.1078 -1.1686  1.3478
 8640TIP3   OH247410   5.910   3.704  14.230 -0.2551 -0.2532  0.3860
 8640TIP3    H147411   5.976   3.636  14.221 -0.5134 -0.5460  0.6925
 8640TIP3    H247412   5.830   3.665  14.193 -0.1031  0.3270 -0.5696
 8641TIP3   OH247413   4.962   3.066  14.994  0.8578  0.0544  0.1272
 8641TIP3    H147414   4.920   2.993  14.949  0.8163  0.2095 -0.0856
 8641TIP3    H247415   4.971   3.036  15.085 -0.8956  0.4931  0.4826
 8642TIP3   OH247416   6.546   3.193  12.333  0.9056  0.1269 -0.1679
 8642TIP3    H147417   6.520   3.279  12.300 -0.8786 -0.4516 -0.3142
 8642TIP3    H247418   6.522   3.194  12.425 -0.5864 -0.7750 -0.5352
 8643TIP3   OH247419   4.986   3.327   0.462 -0.2695  0.3416  0.2119
 8643TIP3    H147420   4.965   3.237   0.439  0.5809  0.0516  0.5411
 8643TIP3    H247421   5.081   3.328   0.471 -0.2001  1.4564 -0.5489
 8644TIP3   OH247422   1.274   4.417   0.136 -0.0147 -0.5497 -0.0243
 8644TIP3    H147423   1.223   4.382   0.209 -3.8039  1.1482 -1.7230
 8644TIP3    H247424   1.266   4.352   0.067  2.1644 -1.3608  0.4306
 8645TIP3   OH247425   5.071   6.081  12.761  0.0298 -0.1271  0.2267
 8645TIP3    H147426   4.989   6.076  12.712 -1.0131  0.0103  1.9116
 8645TIP3    H247427   5.104   6.169  12.743 -0.9881  0.3729  0.7612
 8646TIP3   OH247428   3.637   4.474  13.323  0.0744  0.1594 -0.8893
 8646TIP3    H147429   3.564   4.416  13.303 -0.9797  1.7676 -1.7201
 8646TIP3    H247430   3.685   4.481  13.241  0.7989 -0.3437 -0.5191
 8647TIP3   OH247431   5.730   4.741   0.312  0.0417 -0.2299 -0.1587
 8647TIP3    H147432   5.642   4.716   0.287  0.7003 -0.7529 -2.0645
 8647TIP3    H247433   5.730   4.837   0.310 -1.5191 -0.0564  3.7203
 8648TIP3   OH247434   5.077   5.512  12.725 -0.0087  0.2508 -0.1409
 8648TIP3    H147435   5.007   5.468  12.677  1.1463 -0.1985 -1.4687
 8648TIP3    H247436   5.093   5.456  12.801 -1.7603  0.8952  0.7239
 8649TIP3   OH247437   2.937   6.303  14.687  0.2353 -0.5128 -0.0740
 8649TIP3    H147438   2.967   6.354  14.612 -0.5644 -0.9966 -0.7303
 8649TIP3    H247439   2.914   6.368  14.753 -1.1399  0.0120 -1.0370
 8650TIP3   OH247440   5.872   4.007  14.929  0.1664  0.3864 -0.4527
 8650TIP3    H147441   5.916   3.990  15.013 -0.9133  1.2730  0.3044
 8650TIP3    H247442   5.920   4.082  14.892  0.4571  0.1807 -0.4992
 8651TIP3   OH247443   4.115   2.155  13.410  0.1086 -0.1582  0.9016
 8651TIP3    H147444   4.133   2.172  13.503  0.5107 -2.1795  1.2316
 8651TIP3    H247445   4.022   2.130  13.409 -1.0807  3.9702  0.1209
 8652TIP3   OH247446   5.173   4.667  14.576  0.0499 -0.8404 -0.6042
 8652TIP3    H147447   5.162   4.759  14.552 -0.2707 -0.4946  0.8605
 8652TIP3    H247448   5.252   4.666  14.630 -0.2898 -1.3319 -0.1154
 8653TIP3   OH247449   4.629   4.130  11.824 -0.1141  0.0847  0.3012
 8653TIP3    H147450   4.719   4.144  11.794  0.1108 -3.2799 -0.7824
 8653TIP3    H247451   4.637   4.111  11.918  0.4625 -1.4956 -0.0577
 8654TIP3   OH247452   4.370   5.215  13.771  0.1108  0.1559  0.1274
 8654TIP3    H147453   4.454   5.228  13.814 -0.0555 -0.1117  0.5384
 8654TIP3    H247454   4.334   5.304  13.762  1.8064  0.5824 -2.8897
 8655TIP3   OH247455   1.020   3.645  13.028  0.3659  0.1600  0.2963
 8655TIP3    H147456   1.062   3.725  13.058 -2.2369  0.5694  3.0659
 8655TIP3    H247457   0.935   3.675  12.993  0.7967 -1.0282 -1.8446
 8656TIP3   OH247458   4.965   2.763  14.617 -0.2588 -0.3409  0.0719
 8656TIP3    H147459   4.928   2.827  14.556 -1.3000  0.6873  1.7722
 8656TIP3    H247460   4.924   2.680  14.591  1.3033 -0.4198 -2.3104
 8657TIP3   OH247461   2.210   4.285  13.763 -0.1270  0.1899 -0.0389
 8657TIP3    H147462   2.298   4.273  13.727  0.4904  1.2616  1.0527
 8657TIP3    H247463   2.161   4.329  13.694  0.3407  0.0619 -0.4549
 8658TIP3   OH247464   4.996   5.767  14.051  0.1042 -0.7268 -0.2155
 8658TIP3    H147465   5.031   5.734  13.968  1.9946  1.2761 -0.2675
 8658TIP3    H247466   4.992   5.690  14.107 -0.6012 -1.9931 -1.9531
 8659TIP3   OH247467   4.960   3.319  14.030 -0.4264  0.0429 -0.2454
 8659TIP3    H147468   4.932   3.319  13.938  1.2800  2.2905 -0.8150
 8659TIP3    H247469   4.919   3.397  14.067  1.0538  0.6343  0.1856
 8660TIP3   OH247470   4.293   3.563  15.852  0.0624 -0.2209  0.1638
 8660TIP3    H147471   4.219   3.506  15.832  1.7308 -1.2486 -3.5156
 8660TIP3    H247472   4.351   3.509  15.906 -0.3700 -0.5180  0.3315
 8661TIP3   OH247473   4.978   5.264  12.322  0.5202 -0.5449  0.5916
 8661TIP3    H147474   4.896   5.255  12.371  1.6826 -2.7963  2.1956
 8661TIP3    H247475   4.979   5.356  12.294 -1.2194  0.2369  2.9416
 8662TIP3   OH247476   3.766   5.642  15.796 -0.7060  0.6248  0.4168
 8662TIP3    H147477   3.853   5.677  15.812 -0.6612  0.8611 -0.3648
 8662TIP3    H247478   3.780   5.553  15.765 -0.7537  0.5516  0.6051
 8663TIP3   OH247479   4.622   4.874   0.353  0.8895 -0.1726  0.2210
 8663TIP3    H147480   4.678   4.951   0.342 -1.6933  1.8428  0.7446
 8663TIP3    H247481   4.650   4.836   0.436  0.1704  2.0078  1.5090
 8664TIP3   OH247482   5.511   3.525  12.172 -0.8245  0.0513  0.0071
 8664TIP3    H147483   5.574   3.576  12.223 -2.7335  1.6046  0.8406
 8664TIP3    H247484   5.544   3.530  12.082  1.5765 -1.2268  0.7591
 8665TIP3   OH247485   5.320   5.969  13.953 -0.0535 -0.1201  0.3823
 8665TIP3    H147486   5.311   6.044  13.895  0.4212  0.6561  1.2948
 8665TIP3    H247487   5.322   5.893  13.894  0.2617  0.6334 -0.6005
 8666TIP3   OH247488   4.765   6.478  12.751  0.0697  0.0727  0.4264
 8666TIP3    H147489   4.813   6.474  12.669  0.6479  0.4434  0.7411
 8666TIP3    H247490   4.793   6.399  12.798 -0.7736 -0.4905 -0.0063
 8667TIP3   OH247491   4.594   5.617  12.367 -0.7824 -0.2483  0.3711
 8667TIP3    H147492   4.498   5.625  12.373 -0.9006 -1.8779  0.7914
 8667TIP3    H247493   4.609   5.526  12.341  0.6087  0.3614 -1.0399
 8668TIP3   OH247494   5.129   4.674   0.726  0.1899  0.3218 -0.2005
 8668TIP3    H147495   5.147   4.730   0.801  0.6261 -0.4937  0.3101
 8668TIP3    H247496   5.206   4.683   0.670  0.4327 -0.0707  0.0696
 8669TIP3   OH247497   4.197   6.383  12.015  0.0729  0.4980 -0.1869
 8669TIP3    H147498   4.117   6.401  12.064  0.0093  2.1948 -0.8861
 8669TIP3    H247499   4.214   6.464  11.966  1.0746 -0.5592 -1.6290
 8670TIP3   OH247500   5.107   2.772  15.674 -0.4688  0.3664  0.0227
 8670TIP3    H147501   5.049   2.720  15.618  0.5336 -0.4023 -0.3053
 8670TIP3    H247502   5.079   2.751  15.763 -1.0149  0.3730 -0.1468
 8671TIP3   OH247503   4.177   5.322   0.532 -0.2850  0.1573  0.2790
 8671TIP3    H147504   4.201   5.391   0.471  0.3217  0.6890  1.1097
 8671TIP3    H247505   4.111   5.271   0.486  1.1429 -0.2601 -1.3411
 8672TIP3   OH247506   3.160   4.696  12.598 -0.0742 -0.1161 -0.6884
 8672TIP3    H147507   3.127   4.786  12.600  1.4532  0.4443  0.3643
 8672TIP3    H247508   3.134   4.663  12.513  0.3938  1.7354 -1.5814
 8673TIP3   OH247509   3.582   6.273  13.836  0.0646 -0.7750  0.6519
 8673TIP3    H147510   3.563   6.278  13.930  0.6756 -0.1782  0.7506
 8673TIP3    H247511   3.550   6.356  13.800 -1.4106 -1.5849  0.0994
 8674TIP3   OH247512   4.726   4.447  15.301  0.6773 -0.1788 -0.0251
 8674TIP3    H147513   4.696   4.395  15.376  0.9712 -1.4617 -0.7744
 8674TIP3    H247514   4.814   4.474  15.325  1.0081 -1.1088 -0.1372
 8675TIP3   OH247515   4.535   4.840  13.492 -0.2587 -0.3464  0.6973
 8675TIP3    H147516   4.621   4.801  13.511 -0.1703  0.5623  2.2655
 8675TIP3    H247517   4.515   4.811  13.403  2.3977  0.7290 -0.3130
 8676TIP3   OH247518   3.053   7.326   0.653 -0.0955 -0.0966 -0.4445
 8676TIP3    H147519   2.965   7.290   0.646 -0.2790  0.2761 -0.1143
 8676TIP3    H247520   3.104   7.258   0.697 -0.5120  0.1725  0.4593
 8677TIP3   OH247521   4.872   3.373  13.764 -0.3892  0.3366 -0.4021
 8677TIP3    H147522   4.867   3.463  13.729 -0.5062  0.8073  0.8020
 8677TIP3    H247523   4.781   3.348  13.777 -0.3262  0.5297  0.4595
 8678TIP3   OH247524   3.496   4.803   0.495 -0.0262  0.5647  0.1437
 8678TIP3    H147525   3.489   4.781   0.402 -1.6332  0.1624  0.3481
 8678TIP3    H247526   3.447   4.734   0.539 -1.0203  1.9155  1.1542
 8679TIP3   OH247527   5.241   5.082  13.172  0.0396 -0.5843 -0.0459
 8679TIP3    H147528   5.238   5.060  13.265 -1.4210  0.4458  0.1818
 8679TIP3    H247529   5.153   5.062  13.140 -0.1073  1.0089 -0.7116
 8680TIP3   OH247530   6.360   5.078   0.547  0.8981 -0.0262  0.1007
 8680TIP3    H147531   6.439   5.124   0.577 -0.7092  1.4417  2.2368
 8680TIP3    H247532   6.320   5.138   0.485  0.3657  0.1419  0.6078
 8681TIP3   OH247533   4.965   5.244  13.342 -0.2089 -0.3231  0.3589
 8681TIP3    H147534   5.038   5.306  13.346  0.8099 -1.4753 -0.2698
 8681TIP3    H247535   4.966   5.200  13.427 -0.2775 -0.2418  0.4024
 8682TIP3   OH247536   5.788   3.261  15.570 -0.1171  0.6815  0.4879
 8682TIP3    H147537   5.799   3.166  15.561  3.5058  1.2114 -2.0393
 8682TIP3    H247538   5.756   3.273  15.659 -1.3560 -2.9588  0.6338
 8683TIP3   OH247539   6.214   5.662  14.986  0.0577  0.2013 -0.0908
 8683TIP3    H147540   6.296   5.621  15.015  0.0349 -0.4134 -0.9036
 8683TIP3    H247541   6.200   5.733  15.049  1.7343  0.9501 -0.5152
 8684TIP3   OH247542   2.116   4.785  15.854  0.0134 -0.1306 -0.2134
 8684TIP3    H147543   2.140   4.813  15.765  0.1856 -0.0850 -0.1513
 8684TIP3    H247544   2.199   4.760  15.894  0.4526  3.3758  1.2049
 8685TIP3   OH247545   5.271   5.199  15.514 -0.1462 -0.3367  0.3747
 8685TIP3    H147546   5.242   5.133  15.451  0.7749 -0.0020 -0.4117
 8685TIP3    H247547   5.191   5.247  15.538 -0.5509 -0.6744 -0.2926
 8686TIP3   OH247548   4.095   4.983   1.376  0.1242 -0.0319  0.0859
 8686TIP3    H147549   4.056   4.910   1.424 -0.5019  0.6813  0.6884
 8686TIP3    H247550   4.079   4.963   1.284 -0.3323 -0.4956  0.2653
 8687TIP3   OH247551   6.386   3.441  14.163  0.4512  0.6520 -0.7552
 8687TIP3    H147552   6.459   3.442  14.224 -0.6589  1.1601  0.5990
 8687TIP3    H247553   6.389   3.527  14.120  0.3242  0.8745 -0.3162
 8688TIP3   OH247554   5.765   3.665  15.391 -0.3200 -0.0149  0.3160
 8688TIP3    H147555   5.711   3.686  15.467 -0.4707  0.1597  0.1613
 8688TIP3    H247556   5.834   3.731  15.391 -2.1229  2.0015 -1.5237
 8689TIP3   OH247557   6.998   2.939  12.041  0.2118  0.3056  0.0052
 8689TIP3    H147558   6.948   2.879  11.986  1.1811 -1.3703  0.9013
 8689TIP3    H247559   7.027   2.885  12.114  0.5694  2.0420  1.1675
 8690TIP3   OH247560   1.788   4.448  12.405  0.0584 -0.5092  0.8116
 8690TIP3    H147561   1.757   4.378  12.348 -0.0830  0.6602 -0.5830
 8690TIP3    H247562   1.868   4.480  12.363 -1.4366  2.0709 -0.1365
 8691TIP3   OH247563   6.932   4.490  13.601 -0.0074 -0.3026 -0.4531
 8691TIP3    H147564   6.990   4.428  13.644  1.3507  0.4598 -1.1553
 8691TIP3    H247565   6.908   4.552  13.670  1.0295  0.1125 -0.4675
 8692TIP3   OH247566   4.158   3.984  15.540 -0.2919  0.5262 -0.1286
 8692TIP3    H147567   4.125   3.897  15.519  0.3843  0.4430 -0.8567
 8692TIP3    H247568   4.252   3.978  15.525 -0.5240  2.0035 -2.2568
 8693TIP3   OH247569   4.420   5.233  12.962 -0.0980  0.0161 -0.0550
 8693TIP3    H147570   4.350   5.231  12.898  0.0591 -1.9636 -0.1960
 8693TIP3    H247571   4.499   5.215  12.912  0.3322  0.8341  0.3230
 8694TIP3   OH247572   4.844   5.879  13.728 -0.5408 -0.2189  0.3284
 8694TIP3    H147573   4.917   5.913  13.780  0.7851 -0.4748 -1.3167
 8694TIP3    H247574   4.767   5.924  13.762  0.6203  1.3270  0.9676
 8695TIP3   OH247575   4.613   3.434  13.532  0.1255 -0.4824 -0.5037
 8695TIP3    H147576   4.547   3.492  13.495  0.7980  0.0732 -0.8617
 8695TIP3    H247577   4.674   3.493  13.577  0.2246 -1.0075  0.0657
 8696TIP3   OH247578   6.297   4.524  13.690  0.3452  0.2771  0.3242
 8696TIP3    H147579   6.322   4.616  13.696  0.9241  0.0590  1.4409
 8696TIP3    H247580   6.380   4.476  13.687  0.0483 -0.2314  0.1289
 8697TIP3   OH247581   4.786   6.124  15.264  0.0068 -0.2048  0.1981
 8697TIP3    H147582   4.781   6.180  15.342  0.8985  0.8978 -0.5243
 8697TIP3    H247583   4.694   6.110  15.239 -0.2429  0.4449  0.7295
 8698TIP3   OH247584   6.125   5.412  14.868  0.5393  0.5502  0.1707
 8698TIP3    H147585   6.205   5.370  14.838 -0.1508 -1.1170  0.6507
 8698TIP3    H247586   6.155   5.492  14.911  1.8749  0.4069 -0.4652
 8699TIP3   OH247587   5.679   5.165  14.100 -0.2835 -0.5087  0.0227
 8699TIP3    H147588   5.628   5.245  14.115  1.0511  0.4852 -0.6271
 8699TIP3    H247589   5.621   5.110  14.047 -1.1748  0.0725  0.3842
 8700TIP3   OH247590   6.058   3.150   0.657 -0.0299 -0.3713  0.1778
 8700TIP3    H147591   6.082   3.073   0.606  0.5490  0.8176 -1.4258
 8700TIP3    H247592   5.972   3.175   0.622  0.2565  0.3040 -0.0525
 8701TIP3   OH247593   5.249   2.213  12.096  0.1213 -0.3224  0.3948
 8701TIP3    H147594   5.311   2.178  12.160  1.0710 -1.2924 -1.0163
 8701TIP3    H247595   5.300   2.279  12.048 -0.2377 -0.3911 -0.0859
 8702TIP3   OH247596   3.802   6.784  14.182 -0.0300  0.7696 -0.1857
 8702TIP3    H147597   3.813   6.689  14.173  3.3607  0.8088  2.5025
 8702TIP3    H247598   3.707   6.796  14.191 -0.5397 -2.3367 -0.8747
 8703TIP3   OH247599   5.365   4.646  14.752 -0.0961  0.9271  0.0064
 8703TIP3    H147600   5.423   4.570  14.755 -0.0450  0.9049 -1.2961
 8703TIP3    H247601   5.415   4.716  14.794 -0.2535  0.1915  1.4745
 8704TIP3   OH247602   6.109   2.414   0.556  0.1560  0.2651 -0.0260
 8704TIP3    H147603   6.030   2.459   0.527 -0.3875 -1.8636 -1.9809
 8704TIP3    H247604   6.170   2.420   0.482  0.8883 -0.2904  0.5142
 8705TIP3   OH247605   4.307   5.512  12.933  0.1613  0.1708  0.0754
 8705TIP3    H147606   4.348   5.445  12.987 -1.4019  0.2149  1.3456
 8705TIP3    H247607   4.224   5.474  12.906 -0.9978  1.7861  1.2776
 8706TIP3   OH247608   2.505   5.900  14.397 -0.8871 -0.3249 -0.3590
 8706TIP3    H147609   2.442   5.832  14.373 -0.8127  0.3184 -2.4897
 8706TIP3    H247610   2.570   5.899  14.326 -0.8871  1.9656 -0.4316
 8707TIP3   OH247611   4.932   4.705  14.914  0.4228  0.1749  0.5824
 8707TIP3    H147612   4.911   4.753  14.994  0.6010  1.0648  0.1042
 8707TIP3    H247613   5.026   4.720  14.902  0.4104 -0.0206  0.2401
 8708TIP3   OH247614   6.205   6.779  15.372 -0.5414 -0.2057 -0.1442
 8708TIP3    H147615   6.208   6.820  15.285  0.2442  2.0196  0.8818
 8708TIP3    H247616   6.120   6.804  15.407  0.2129  1.2061  0.7568
 8709TIP3   OH247617   3.237   5.864  13.096  0.4986 -0.0896  0.2038
 8709TIP3    H147618   3.257   5.908  13.014  0.9564 -0.7286 -0.0301
 8709TIP3    H247619   3.174   5.795  13.072 -0.4504  0.6171  0.6166
 8710TIP3   OH247620   3.816   5.556  15.071  0.3304 -0.1912  0.7801
 8710TIP3    H147621   3.787   5.469  15.095 -0.0889 -0.3683 -0.3348
 8710TIP3    H247622   3.797   5.610  15.147 -1.3899 -0.6398  0.6869
 8711TIP3   OH247623   2.390   4.065   0.097  0.2113  0.1248 -0.3990
 8711TIP3    H147624   2.412   4.073   0.004 -0.5927 -1.4869 -0.7641
 8711TIP3    H247625   2.321   4.130   0.112 -0.2410 -0.1697 -1.1534
 8712TIP3   OH247626   3.474   6.342  12.677 -0.0745  0.1480 -0.7496
 8712TIP3    H147627   3.392   6.303  12.647  0.2469 -0.9304 -0.2518
 8712TIP3    H247628   3.450   6.397  12.751 -0.3621 -0.1072 -0.6541
 8713TIP3   OH247629   6.401   4.388  12.138 -0.2197 -0.5531 -0.2059
 8713TIP3    H147630   6.419   4.333  12.215  2.2726 -1.5588 -1.4722
 8713TIP3    H247631   6.351   4.331  12.080  0.9412 -0.9610 -0.8155
 8714TIP3   OH247632   4.616   6.135   0.623 -0.3593  0.0769 -0.0757
 8714TIP3    H147633   4.604   6.222   0.661 -1.5065  0.3177 -0.9740
 8714TIP3    H247634   4.558   6.078   0.675 -1.3381  0.2660 -0.9538
 8715TIP3   OH247635   5.727   4.638  14.981  0.0053  0.3617  0.2436
 8715TIP3    H147636   5.781   4.623  14.903 -1.4019  0.6913 -0.8313
 8715TIP3    H247637   5.704   4.731  14.975 -0.4538  0.2822  0.8325
 8716TIP3   OH247638   4.282   4.796  13.559  0.2012  0.6773  0.0630
 8716TIP3    H147639   4.246   4.843  13.484  0.9549  1.3330  0.1080
 8716TIP3    H247640   4.376   4.812  13.555  0.7244 -2.2915 -0.9298
 8717TIP3   OH247641   3.991   2.140  13.012  0.1596  0.3025 -1.0935
 8717TIP3    H147642   3.915   2.094  12.975 -1.3997  1.4863  0.5157
 8717TIP3    H247643   4.065   2.112  12.958 -1.7021  0.5467 -3.8643
 8718TIP3   OH247644   4.780   4.889  14.572 -0.3376 -0.0134 -0.2632
 8718TIP3    H147645   4.775   4.897  14.667 -0.5780  0.8985 -0.3495
 8718TIP3    H247646   4.772   4.795  14.556 -1.0185 -0.1063  0.5756
 8719TIP3   OH247647   5.813   6.081   0.627  0.1973 -0.4388 -1.2920
 8719TIP3    H147648   5.833   6.173   0.609 -0.5886  0.3478  1.6002
 8719TIP3    H247649   5.899   6.040   0.639  0.4874  0.7374  0.9698
 8720TIP3   OH247650   5.850   3.711  12.835  0.6684 -0.2660  0.3845
 8720TIP3    H147651   5.764   3.728  12.872  0.2605  2.7265 -1.8095
 8720TIP3    H247652   5.833   3.668  12.752  1.2897  0.0824  0.0685
 8721TIP3   OH247653   3.421   5.278  14.640  0.3064  0.3379  0.3018
 8721TIP3    H147654   3.345   5.223  14.622  0.6032 -0.1099  0.3878
 8721TIP3    H247655   3.459   5.241  14.719  1.4997 -0.4270 -0.5967
 8722TIP3   OH247656   4.895   5.427  11.959  0.3885 -0.0037 -0.0388
 8722TIP3    H147657   4.833   5.486  11.915 -1.0512 -1.4630  0.0149
 8722TIP3    H247658   4.937   5.482  12.025 -1.6499  0.7445  0.6839
 8723TIP3   OH247659   5.530   5.713  15.856  0.0340  0.4952  0.2704
 8723TIP3    H147660   5.613   5.676  15.886 -0.5060 -0.6079  0.4375
 8723TIP3    H247661   5.554   5.768  15.781  0.9310  0.3024  0.4065
 8724TIP3   OH247662   5.258   5.532  15.268  0.4414  0.5241 -0.1621
 8724TIP3    H147663   5.328   5.471  15.291  0.9193  0.6581 -1.2364
 8724TIP3    H247664   5.277   5.611  15.318  0.9307  0.4762 -0.2672
 8725TIP3   OH247665   3.310   5.545  14.595  0.1281 -0.0586  0.4320
 8725TIP3    H147666   3.357   5.464  14.613 -0.9657 -0.7654  0.1297
 8725TIP3    H247667   3.223   5.531  14.632 -0.8698 -0.0031 -1.8639
 8726TIP3   OH247668   6.710   4.099  11.961 -0.7002 -0.0607  0.0145
 8726TIP3    H147669   6.726   4.193  11.948 -1.0675 -0.0954 -0.6627
 8726TIP3    H247670   6.637   4.096  12.023 -0.2055  0.0973  0.6134
 8727TIP3   OH247671   7.072   4.948  15.403 -0.6509 -0.5143  0.1356
 8727TIP3    H147672   7.098   4.992  15.484 -2.2680 -0.5730  0.6909
 8727TIP3    H247673   7.051   5.019  15.342  0.1041 -0.4785 -0.0888
 8728TIP3   OH247674   4.268   6.989  15.667  0.3034 -0.0316 -0.1131
 8728TIP3    H147675   4.199   6.925  15.687  0.3679 -0.4927 -1.3634
 8728TIP3    H247676   4.349   6.943  15.685  0.3278  0.0642  0.0251
 8729TIP3   OH247677   6.689   4.167  14.104  0.3187  0.1094  0.2552
 8729TIP3    H147678   6.777   4.146  14.074  0.3558  0.4557  0.1104
 8729TIP3    H247679   6.699   4.251  14.149  0.0583  0.1650  0.2092
 8730TIP3   OH247680   2.842   3.306   0.975  0.0844 -0.7186  0.4272
 8730TIP3    H147681   2.780   3.283   0.905  0.6005 -0.8451  0.0134
 8730TIP3    H247682   2.833   3.235   1.038 -0.7162 -0.3731  0.7133
 8731TIP3   OH247683   5.541   4.905  14.662 -0.2690  0.3186  0.2023
 8731TIP3    H147684   5.548   4.994  14.628  1.4065 -0.3397 -1.2335
 8731TIP3    H247685   5.456   4.874  14.631  0.2799  0.5100 -1.5491
 8732TIP3   OH247686   3.945   3.569  12.191 -0.4571  0.0552 -0.3291
 8732TIP3    H147687   3.926   3.492  12.136  1.9186 -0.6578 -0.2102
 8732TIP3    H247688   3.938   3.537  12.281 -0.2917  0.1909 -0.2676
 8733TIP3   OH247689   3.741   3.908  14.766 -0.3868 -0.1447  0.7578
 8733TIP3    H147690   3.803   3.974  14.797  1.1395 -1.4769  0.6221
 8733TIP3    H247691   3.690   3.953  14.699 -0.7071  1.4556  2.0432
 8734TIP3   OH247692   2.630   7.202  15.508  0.4055 -0.1935  0.6983
 8734TIP3    H147693   2.541   7.202  15.544  0.3500  0.5467  0.5662
 8734TIP3    H247694   2.661   7.113  15.522 -1.1891 -1.1113 -1.2976
 8735TIP3   OH247695   5.101   4.763  15.276  0.1425 -1.0011 -0.7156
 8735TIP3    H147696   5.090   4.814  15.356 -1.0284 -1.9975 -0.2363
 8735TIP3    H247697   5.023   4.783  15.224  1.0296 -0.1461 -1.7303
 8736TIP3   OH247698   6.224   6.114   1.922 -0.2097 -0.3031  0.4029
 8736TIP3    H147699   6.148   6.073   1.879 -1.1952 -0.6801  2.4290
 8736TIP3    H247700   6.211   6.208   1.910 -0.1903 -0.4192 -0.5724
 8737TIP3   OH247701   0.608   3.532  15.565  0.1186  0.0212 -0.3885
 8737TIP3    H147702   0.518   3.559  15.581  0.5509 -0.4791  3.4167
 8737TIP3    H247703   0.601   3.448  15.521 -1.2364  0.3708 -0.8622
 8738TIP3   OH247704   5.241   0.734   0.025  0.3435  0.1429 -0.3940
 8738TIP3    H147705   5.182   0.807   0.009 -1.3618 -1.2253 -0.5892
 8738TIP3    H247706   5.273   0.748   0.114 -0.2596  0.9348 -0.2997
 8739TIP3   OH247707   7.017   4.872   0.523  0.3446 -0.1008  0.1169
 8739TIP3    H147708   7.002   4.954   0.476 -0.4579 -0.2645  0.0663
 8739TIP3    H247709   6.959   4.809   0.480  0.7210 -0.6131  0.3594
 8740TIP3   OH247710   4.028   7.154  15.146 -0.1342 -0.4236  0.8167
 8740TIP3    H147711   4.122   7.168  15.159 -0.0270  0.5701 -0.7568
 8740TIP3    H247712   4.022   7.118  15.057 -1.3224  1.0089  0.2778
 8741TIP3   OH247713   0.715   3.445  12.915 -0.3110  0.0792  0.1840
 8741TIP3    H147714   0.781   3.388  12.875 -3.1259 -1.8655 -1.9332
 8741TIP3    H247715   0.726   3.529  12.871  0.5192 -0.3254 -0.3948
 8742TIP3   OH247716   5.062   0.248  13.401 -0.4259 -0.1466  0.1153
 8742TIP3    H147717   4.984   0.297  13.376 -0.8193 -0.1144  1.3413
 8742TIP3    H247718   5.047   0.225  13.493  0.2727 -1.5522 -0.1024
 8743TIP3   OH247719   5.547   4.447  14.747 -0.4198  0.0519  0.1259
 8743TIP3    H147720   5.500   4.368  14.775  0.2916 -0.1430  0.7854
 8743TIP3    H247721   5.631   4.442  14.792 -0.1285  0.8754 -0.3195
 8744TIP3   OH247722   4.129   5.911   0.346  0.1275  0.3048  0.3484
 8744TIP3    H147723   4.189   5.968   0.298  1.8882 -0.1160  2.0013
 8744TIP3    H247724   4.185   5.842   0.381 -1.5308 -0.7978  0.8530
 8745TIP3   OH247725   5.387   6.148   1.018  0.1379  0.2053 -0.0233
 8745TIP3    H147726   5.332   6.071   1.006  0.5237  0.0073 -0.5085
 8745TIP3    H247727   5.445   6.126   1.091  1.4505 -0.6426 -1.3048
 8746TIP3   OH247728   6.823   4.472   0.054 -0.3552 -0.1710  0.3658
 8746TIP3    H147729   6.899   4.530   0.057 -0.8765  0.4441  2.2612
 8746TIP3    H247730   6.853   4.395   0.005  1.2158  0.4372  0.3615
 8747TIP3   OH247731   5.880   4.450  13.286  0.2587  0.1815 -0.0533
 8747TIP3    H147732   5.971   4.437  13.260  0.1198  0.7481 -0.8243
 8747TIP3    H247733   5.875   4.412  13.374  0.4136 -2.8869 -1.3199
 8748TIP3   OH247734   6.028   5.950  13.687 -0.6398  0.3115  0.2451
 8748TIP3    H147735   5.943   5.923  13.720 -1.0603  1.1122 -0.1577
 8748TIP3    H247736   6.008   6.016  13.620  0.2447 -0.2319 -0.5804
 8749TIP3   OH247737   2.280   5.196  14.998 -0.3762 -0.6550 -0.0552
 8749TIP3    H147738   2.338   5.219  15.071 -0.5072 -0.5159  0.0039
 8749TIP3    H247739   2.226   5.273  14.985  1.8000  0.5221 -2.4075
 8750TIP3   OH247740   6.325   5.062  14.993 -0.9172 -0.0810 -0.1796
 8750TIP3    H147741   6.350   5.141  14.944 -1.1707 -0.2282 -0.5568
 8750TIP3    H247742   6.316   4.995  14.925 -0.0039 -0.6104  0.2214
 8751TIP3   OH247743   4.571   4.731   0.109  0.0101  0.5396  0.3166
 8751TIP3    H147744   4.480   4.756   0.094 -0.1798  0.0151  0.6165
 8751TIP3    H247745   4.592   4.764   0.196 -0.1828 -0.1812  0.6370
 8752TIP3   OH247746   3.883   3.932  14.162  0.4082  0.0129  0.8633
 8752TIP3    H147747   3.792   3.943  14.134  0.7877 -0.6965 -0.7204
 8752TIP3    H247748   3.910   4.020  14.190 -0.0104  0.7888 -1.0285
 8753TIP3   OH247749   1.055   3.966  14.589 -1.0322 -0.2102  0.4834
 8753TIP3    H147750   1.001   3.897  14.552 -2.0618  2.6464 -3.7248
 8753TIP3    H247751   0.994   4.037  14.608  0.4116  0.8102  1.4530
 8754TIP3   OH247752   3.664   5.064   0.042  0.2503 -0.3981 -0.1851
 8754TIP3    H147753   3.716   4.993   0.080  1.9935  0.1436 -1.5097
 8754TIP3    H247754   3.640   5.118   0.117  0.4050 -1.4370  0.6202
 8755TIP3   OH247755   5.205   4.811  13.812 -0.0294  0.0839 -0.0866
 8755TIP3    H147756   5.273   4.759  13.769 -1.2866 -2.0420  0.4090
 8755TIP3    H247757   5.210   4.896  13.770 -1.1397 -1.8383 -4.4536
 8756TIP3   OH247758   0.355   3.642  15.146 -0.0562 -0.1891 -0.1151
 8756TIP3    H147759   0.400   3.723  15.172 -2.0445  1.1854 -0.8459
 8756TIP3    H247760   0.350   3.590  15.226  2.0600 -0.0093  0.1637
 8757TIP3   OH247761   4.451   4.496  13.090 -0.4476  0.0018  0.1779
 8757TIP3    H147762   4.400   4.570  13.123  0.2151 -0.2288  1.7603
 8757TIP3    H247763   4.518   4.481  13.157  0.6318 -0.7882 -1.0642
 8758TIP3   OH247764   0.295   2.532  14.888  0.1523  0.0189  0.0969
 8758TIP3    H147765   0.316   2.516  14.980  0.8015  0.4930  0.0344
 8758TIP3    H247766   0.308   2.626  14.876 -1.0785  0.1514 -0.1901
 8759TIP3   OH247767   6.258   3.158   0.319 -0.9814 -0.1039 -0.3059
 8759TIP3    H147768   6.271   3.139   0.226  0.5843  0.2159 -0.1657
 8759TIP3    H247769   6.345   3.182   0.351 -1.1544 -1.9193  1.6388
 8760TIP3   OH247770   4.259   5.116  15.926 -0.0116  0.1592 -0.4739
 8760TIP3    H147771   4.258   5.074  15.840 -1.3513  2.0698 -1.4235
 8760TIP3    H247772   4.278   5.208  15.909  1.4870  0.2434  1.4514
 8761TIP3   OH247773   3.986   3.779  15.395 -0.3365  0.1777  0.2806
 8761TIP3    H147774   3.900   3.756  15.359  0.1260 -1.3753  0.1271
 8761TIP3    H247775   4.012   3.857  15.346 -1.8466  0.9332  0.6344
 8762TIP3   OH247776   5.247   3.392   0.535 -0.2159 -0.3386 -0.4382
 8762TIP3    H147777   5.254   3.477   0.578 -2.1240 -0.3075 -0.1527
 8762TIP3    H247778   5.328   3.346   0.558 -0.0828  0.6448  1.0615
 8763TIP3   OH247779   6.082   5.024  15.140  0.3318  0.7778  0.0482
 8763TIP3    H147780   6.167   5.032  15.096  0.1888  0.9730 -0.1894
 8763TIP3    H247781   6.104   4.993  15.228  0.5906  0.0183 -0.2776
 8764TIP3   OH247782   4.795   6.084  13.317  0.2835 -0.7940 -0.2090
 8764TIP3    H147783   4.737   6.129  13.379 -0.4976 -1.2439 -0.6089
 8764TIP3    H247784   4.839   6.018  13.371 -0.2826 -1.0838 -0.0929
 8765TIP3   OH247785   6.459   5.743  13.092  0.3023  0.1641 -0.0981
 8765TIP3    H147786   6.386   5.687  13.066  1.9639 -2.1994  0.1932
 8765TIP3    H247787   6.455   5.818  13.033 -1.9897 -0.2109 -0.4557
 8766TIP3   OH247788   5.471   3.241   0.562  0.7228 -0.1499 -0.6277
 8766TIP3    H147789   5.466   3.147   0.548  0.0879  0.0179 -1.6065
 8766TIP3    H247790   5.542   3.270   0.505  2.1241 -0.2741  1.0232
 8767TIP3   OH247791   5.900   5.099  14.944  0.4640  0.2299 -0.5410
 8767TIP3    H147792   5.968   5.148  14.898  0.5470  3.4153  2.7736
 8767TIP3    H247793   5.947   5.056  15.016 -0.3803 -1.0229 -0.7213
 8768TIP3   OH247794   6.093   3.292  12.611 -0.7080  0.0379 -0.3727
 8768TIP3    H147795   6.034   3.320  12.541  2.5437 -0.6638 -3.5355
 8768TIP3    H247796   6.157   3.362  12.618  0.5772 -1.1467 -0.0075
 8769TIP3   OH247797   5.892   6.290   0.039  0.1602  0.1036 -0.1329
 8769TIP3    H147798   5.987   6.294   0.041  0.1369  0.3812  0.4717
 8769TIP3    H247799   5.865   6.373   0.001  0.2389 -1.0488 -2.8489
 8770TIP3   OH247800   2.854   5.871  13.668  0.4832  1.0343  0.2459
 8770TIP3    H147801   2.820   5.915  13.746 -3.4249  1.1307 -1.4196
 8770TIP3    H247802   2.848   5.937  13.598 -0.0107 -0.3582 -1.0440
 8771TIP3   OH247803   3.732   2.742   0.826  0.1579  0.2087  0.2073
 8771TIP3    H147804   3.661   2.706   0.878 -0.2456  1.0069  0.2304
 8771TIP3    H247805   3.691   2.816   0.779 -0.0032 -1.6763 -2.7575
 8772TIP3   OH247806   5.067   5.804   1.756  0.2650 -0.1909 -0.1344
 8772TIP3    H147807   4.997   5.743   1.736 -0.6814  0.3900  1.3452
 8772TIP3    H247808   5.137   5.750   1.792  0.4261 -0.7103 -1.2024
 8773TIP3   OH247809   5.361   0.248  14.324 -0.1973  0.5233 -0.1827
 8773TIP3    H147810   5.380   0.308  14.252 -0.1943  0.9433  0.1678
 8773TIP3    H247811   5.284   0.285  14.367  0.0897  0.5422  0.3246
 8774TIP3   OH247812   3.340   5.995  12.881 -0.7695  0.2152  0.0785
 8774TIP3    H147813   3.383   6.013  12.798 -1.0400  0.2053 -0.0655
 8774TIP3    H247814   3.395   6.037  12.947  0.2303 -1.0331  0.0372
 8775TIP3   OH247815   5.419   2.739   0.954  0.3550 -0.2885 -0.1094
 8775TIP3    H147816   5.435   2.756   1.047  0.6611 -0.2241 -0.1729
 8775TIP3    H247817   5.408   2.826   0.916  1.7765 -0.2296 -0.4080
 8776TIP3   OH247818   3.473   3.682   1.654 -0.2601 -0.2340  0.1328
 8776TIP3    H147819   3.395   3.637   1.622 -0.5864  0.1364  0.3913
 8776TIP3    H247820   3.485   3.755   1.593  0.3133 -0.7114 -0.3327
 8777TIP3   OH247821   2.196   5.163  13.235  0.0027 -0.0737 -0.1157
 8777TIP3    H147822   2.270   5.167  13.174  0.2539  0.4230  0.2146
 8777TIP3    H247823   2.202   5.077  13.275  0.8411  0.2501  0.4520
 8778TIP3   OH247824   5.409   5.882   0.284 -0.1964 -0.5686  0.0804
 8778TIP3    H147825   5.353   5.946   0.240  0.4537  0.9811  1.4750
 8778TIP3    H247826   5.361   5.857   0.363  1.2669  1.2097  1.5933
 8779TIP3   OH247827   2.583   6.237   1.272  0.3542 -0.0358  0.0247
 8779TIP3    H147828   2.621   6.313   1.229  1.1761 -0.9581 -0.8962
 8779TIP3    H247829   2.656   6.197   1.320  0.0952 -0.6778 -0.1146
 8780TIP3   OH247830   4.939   6.562  14.984 -0.6213 -0.1207 -0.3404
 8780TIP3    H147831   4.924   6.580  15.077  0.2077 -1.2325  0.0161
 8780TIP3    H247832   4.995   6.634  14.954  0.5037 -0.6693  0.4295
 8781TIP3   OH247833   3.843   6.015  13.591  0.0326 -0.0564  0.0427
 8781TIP3    H147834   3.833   6.087  13.653  1.4094  0.2766 -0.0987
 8781TIP3    H247835   3.925   6.034  13.546 -0.4566 -0.8107 -1.2038
 8782TIP3   OH247836   2.969   6.612  15.299  0.2093  0.0975  0.3128
 8782TIP3    H147837   2.997   6.657  15.220  2.3318 -0.8140  0.5063
 8782TIP3    H247838   3.022   6.532  15.301 -1.3578 -0.9393  1.5273
 8783TIP3   OH247839   3.883   6.223  13.951  0.3159 -0.5107  0.0825
 8783TIP3    H147840   3.799   6.179  13.947  0.9103 -1.6205 -0.6910
 8783TIP3    H247841   3.865   6.313  13.924 -0.6590 -0.6733  0.1916
 8784TIP3   OH247842   3.776   3.810  13.069  0.0072  0.1268 -1.1479
 8784TIP3    H147843   3.857   3.788  13.115 -0.1696  0.1297 -0.8308
 8784TIP3    H247844   3.802   3.877  13.006  0.1362  0.5899 -0.6129
 8785TIP3   OH247845   0.055   4.167  13.481 -0.0962  0.1834  0.3658
 8785TIP3    H147846   0.099   4.083  13.473 -0.1552  0.2277 -0.5283
 8785TIP3    H247847   0.111   4.220  13.537  0.8215  0.1291 -0.4966
 8786TIP3   OH247848   0.016   2.162  13.756  0.3353 -0.0709  0.8686
 8786TIP3    H147849   0.028   2.248  13.797  0.9572  0.5259 -0.5114
 8786TIP3    H247850   0.061   2.170  13.671  1.2020 -2.0626  1.1168
 8787TIP3   OH247851   1.936   6.744  11.194 -0.1526  0.2173 -0.2114
 8787TIP3    H147852   1.868   6.706  11.138  0.7494 -0.3186 -0.9420
 8787TIP3    H247853   1.942   6.684  11.269 -2.0298  1.4378  0.9599
 8788TIP3   OH247854   3.182   5.136  12.756  0.1870  0.0082  0.5283
 8788TIP3    H147855   3.242   5.149  12.829  2.6883 -0.1583 -1.4524
 8788TIP3    H247856   3.161   5.224  12.726 -0.7579  0.0728  1.3559
 8789TIP3   OH247857   5.632   4.360  13.672 -0.9116 -0.0610  0.7538
 8789TIP3    H147858   5.549   4.395  13.638 -1.2520  0.0941  1.7307
 8789TIP3    H247859   5.638   4.272  13.634 -0.6084  0.6144 -0.8049
 8790TIP3   OH247860   0.010   3.668  13.595  0.3765  0.2176  0.3171
 8790TIP3    H147861  -0.045   3.734  13.636 -2.0495 -1.8026  0.4491
 8790TIP3    H247862   0.048   3.620  13.669 -1.2400 -1.2128  0.2369
 8791TIP3   OH247863   4.371   3.970  11.443 -0.5346  0.2523  0.5689
 8791TIP3    H147864   4.322   3.973  11.361  1.1091 -0.3040 -0.4509
 8791TIP3    H247865   4.316   3.917  11.501 -0.7698 -1.0821 -0.8237
 8792TIP3   OH247866   1.645   6.210  13.728  1.0030 -0.1511  0.1272
 8792TIP3    H147867   1.734   6.239  13.746  0.7803  1.5334 -1.2587
 8792TIP3    H247868   1.654   6.143  13.660  1.2229 -0.1551  0.1626
 8793TIP3   OH247869   6.344   4.033  13.695 -0.1707  0.5459 -0.3772
 8793TIP3    H147870   6.353   3.940  13.715 -2.9341  0.2956 -0.1106
 8793TIP3    H247871   6.399   4.077  13.760  1.0952 -0.9003 -0.4687
 8794TIP3   OH247872   5.748   3.169  14.395  0.2428 -0.5742  0.3808
 8794TIP3    H147873   5.682   3.205  14.455 -0.9031 -1.9004 -0.0679
 8794TIP3    H247874   5.757   3.077  14.421 -0.1286 -1.1193 -1.3684
 8795TIP3   OH247875   3.811   5.413  13.095  0.0628  0.0996  0.5589
 8795TIP3    H147876   3.779   5.502  13.110  2.0724  1.1996 -1.4104
 8795TIP3    H247877   3.750   5.377  13.031 -0.8142 -0.0087  1.4361
 8796TIP3   OH247878   5.243   4.247  13.748  0.4805 -0.1943  0.2381
 8796TIP3    H147879   5.199   4.166  13.777 -1.7179  0.6672 -0.5603
 8796TIP3    H247880   5.228   4.309  13.820  0.8269 -0.0456  0.1810
 8797TIP3   OH247881   2.105   5.402  15.054  0.4924  0.1788  0.0865
 8797TIP3    H147882   2.049   5.421  14.979 -0.6347 -1.3373  0.5152
 8797TIP3    H247883   2.075   5.462  15.123 -0.3681 -0.3691  0.1986
 8798TIP3   OH247884   4.393   5.629  15.611 -0.2448 -0.5709 -0.3487
 8798TIP3    H147885   4.350   5.707  15.646 -0.0304 -0.1320 -1.0580
 8798TIP3    H247886   4.328   5.592  15.550  0.5489  0.3518 -1.7782
 8799TIP3   OH247887   4.538   5.841  13.403 -0.2901  0.3245 -0.7767
 8799TIP3    H147888   4.552   5.809  13.314 -1.0382  3.1843 -1.9775
 8799TIP3    H247889   4.512   5.932  13.392 -2.4712  0.1411  2.2790
 8800TIP3   OH247890   4.128   3.539  15.258 -0.0315 -0.0318  0.7901
 8800TIP3    H147891   4.202   3.594  15.232 -1.7147  1.5482 -0.9237
 8800TIP3    H247892   4.092   3.582  15.336 -0.7491  0.8050  0.0245
 8801TIP3   OH247893   0.090   4.524  14.859  0.1365 -0.5469  0.2319
 8801TIP3    H147894   0.169   4.557  14.902 -0.8575  1.1785  0.8150
 8801TIP3    H247895   0.030   4.599  14.860 -1.2330 -1.6069 -0.8677
 8802TIP3   OH247896   6.932   4.188   0.049 -0.3667  0.0648  0.3005
 8802TIP3    H147897   6.942   4.097   0.078 -0.3081 -0.3846 -1.0771
 8802TIP3    H247898   6.857   4.186  -0.010  1.2117  0.4109 -1.7599
 8803TIP3   OH247899   5.379   2.908  12.501 -0.5582  0.1206  0.4874
 8803TIP3    H147900   5.453   2.936  12.554  1.5274 -1.2938 -1.5939
 8803TIP3    H247901   5.340   2.989  12.468  1.1845  0.8138  0.1133
 8804TIP3   OH247902   5.198   3.505  14.570 -0.2687 -0.0226 -0.0664
 8804TIP3    H147903   5.184   3.547  14.655 -0.5992  1.0190 -0.6190
 8804TIP3    H247904   5.114   3.514  14.525 -0.4128 -1.5067 -0.1051
 8805TIP3   OH247905   2.888   4.958  14.902 -0.0238 -0.0775 -0.0522
 8805TIP3    H147906   2.961   4.896  14.908  1.2880  1.1522 -2.8137
 8805TIP3    H247907   2.861   4.971  14.993 -1.1566 -5.6234  0.6176
 8806TIP3   OH247908   5.761   3.731  13.234 -0.2816 -0.3647  0.4932
 8806TIP3    H147909   5.731   3.641  13.220 -2.8309  0.4200  0.6617
 8806TIP3    H247910   5.844   3.722  13.282  0.0077 -2.6296 -0.3883
 8807TIP3   OH247911   5.339   5.508  15.754 -0.1157 -0.1460  0.1773
 8807TIP3    H147912   5.403   5.563  15.800  0.5773  0.0695 -0.9978
 8807TIP3    H247913   5.286   5.571  15.705 -0.0758 -0.4397 -0.2477
 8808TIP3   OH247914   4.496   0.890   0.746 -0.2518  0.8700 -0.7134
 8808TIP3    H147915   4.457   0.876   0.832  2.8670 -0.3291  0.6152
 8808TIP3    H247916   4.489   0.984   0.730 -2.3360  0.8588  0.0890
 8809TIP3   OH247917   0.270   3.358  14.579 -0.4385 -0.3359 -0.4006
 8809TIP3    H147918   0.271   3.266  14.605 -1.7475 -0.5579 -1.0984
 8809TIP3    H247919   0.204   3.363  14.510 -0.6174  1.1896 -0.1335
 8810TIP3   OH247920   0.912   4.115  13.701  0.0100  0.1147 -0.0377
 8810TIP3    H147921   0.972   4.188  13.714 -0.2000  0.2562  0.1356
 8810TIP3    H247922   0.919   4.094  13.607  0.1361  0.2979 -0.0680
 8811TIP3   OH247923   6.956   2.806  13.253 -0.0179  0.8985  0.4496
 8811TIP3    H147924   6.936   2.713  13.244  0.0033  1.0611 -1.5592
 8811TIP3    H247925   6.879   2.851  13.216  1.5900  1.5952 -2.1629
 8812TIP3   OH247926   4.637   6.486  15.907  0.8229 -1.2588  0.1327
 8812TIP3    H147927   4.558   6.523  15.866  1.3499 -1.4943 -1.1137
 8812TIP3    H247928   4.705   6.550  15.889  0.8103 -0.8207  1.6462
 8813TIP3   OH247929   0.715   2.178  13.351 -0.2854 -0.1023  0.1766
 8813TIP3    H147930   0.794   2.230  13.364 -0.7714  0.3995  1.1703
 8813TIP3    H247931   0.693   2.191  13.259  0.5403  0.1173  0.0093
 8814TIP3   OH247932   5.563   3.020  14.963  0.2320 -0.2936 -0.4245
 8814TIP3    H147933   5.611   2.992  14.885 -0.3127  1.3990 -1.4083
 8814TIP3    H247934   5.507   3.091  14.932 -3.2419 -2.4482  0.6119
 8815TIP3   OH247935   5.142   3.779  15.743  0.2014  0.0569  0.7603
 8815TIP3    H147936   5.152   3.707  15.805  0.5289  0.7152  1.4811
 8815TIP3    H247937   5.189   3.852  15.783  0.2528  0.5448 -0.1752
 8816TIP3   OH247938   6.196   2.012  14.329 -0.5785  0.0469  0.4268
 8816TIP3    H147939   6.272   1.971  14.288 -0.6750 -0.3141  0.6103
 8816TIP3    H247940   6.213   2.106  14.322 -0.8092  0.0023 -0.8730
 8817TIP3   OH247941   3.069   3.905  15.209  0.5772  0.1004  0.5162
 8817TIP3    H147942   3.147   3.871  15.166  1.3165 -0.7767  2.5243
 8817TIP3    H247943   3.070   3.866  15.296 -1.7347  0.6179  0.8096
 8818TIP3   OH247944   0.011   3.497  15.540 -0.1824  0.0694  0.0041
 8818TIP3    H147945  -0.018   3.446  15.616  0.6719  0.7232  0.7830
 8818TIP3    H247946   0.027   3.432  15.472  0.8594 -0.7097  0.9660
 8819TIP3   OH247947   5.613   1.854  13.855 -0.1093 -0.2829  0.2628
 8819TIP3    H147948   5.580   1.879  13.941  0.7703 -0.8256  0.7719
 8819TIP3    H247949   5.707   1.871  13.860 -0.4243  2.1373 -1.4751
 8820TIP3   OH247950   4.974   2.523   0.353  0.2762 -0.2145 -0.5648
 8820TIP3    H147951   4.894   2.469   0.353 -0.3237  0.6594 -0.3057
 8820TIP3    H247952   5.045   2.460   0.347 -0.4274 -1.0279 -0.5204
 8821TIP3   OH247953   7.083   2.757  15.560  0.3127  0.1464 -0.2130
 8821TIP3    H147954   7.023   2.685  15.540  0.4317  0.0668 -0.2883
 8821TIP3    H247955   7.128   2.773  15.477 -0.0462  0.6227 -0.3160
 8822TIP3   OH247956   5.578   5.353  15.872  0.0209  0.1761 -0.3090
 8822TIP3    H147957   5.622   5.312  15.798  0.7383  1.7230 -0.7660
 8822TIP3    H247958   5.488   5.365  15.843  0.4913  1.5379 -1.2848
 8823TIP3   OH247959   1.268   1.824  14.955 -0.2156  0.2479 -0.1120
 8823TIP3    H147960   1.224   1.891  15.008 -1.3151 -0.6149  0.1001
 8823TIP3    H247961   1.264   1.858  14.865 -1.5008  0.1184 -0.1223
 8824TIP3   OH247962   4.372   3.590  13.462 -0.0513 -0.2372 -0.4431
 8824TIP3    H147963   4.419   3.615  13.542 -0.9015  0.3287 -0.1147
 8824TIP3    H247964   4.402   3.653  13.397 -0.4107  0.1719 -0.2143
 8825TIP3   OH247965   6.278   2.912  15.095 -0.3351 -0.1312  0.1013
 8825TIP3    H147966   6.211   2.851  15.064 -1.2119  0.7135  0.2966
 8825TIP3    H247967   6.233   2.997  15.099  0.3036  0.1444  1.7701
 8826TIP3   OH247968   6.712   6.552  13.900  0.5005 -0.3889  0.0068
 8826TIP3    H147969   6.643   6.546  13.966  0.2721  0.6980 -0.1165
 8826TIP3    H247970   6.788   6.511  13.941  0.0708 -0.6531  0.5496
 8827TIP3   OH247971   6.415   6.798   0.141  0.1004  0.4459 -0.0723
 8827TIP3    H147972   6.330   6.760   0.161 -0.6740  1.6029 -1.0905
 8827TIP3    H247973   6.437   6.766   0.054  0.8826 -0.1464  0.3381
 8828TIP3   OH247974   6.439   5.385   1.195 -0.1564  0.9341 -0.7807
 8828TIP3    H147975   6.356   5.373   1.150  0.4025 -2.4949 -1.0337
 8828TIP3    H247976   6.416   5.388   1.288 -0.5616 -0.3266 -0.8309
 8829TIP3   OH247977   1.206   3.886  12.140  0.0205  0.4718  0.6337
 8829TIP3    H147978   1.243   3.815  12.193  0.7541  2.6130  3.0391
 8829TIP3    H247979   1.115   3.892  12.169 -0.2941 -0.0688 -0.2238
 8830TIP3   OH247980   6.297   4.738  13.313  0.0795 -0.0766  0.3239
 8830TIP3    H147981   6.320   4.829  13.328  0.1452 -0.0898  0.3082
 8830TIP3    H247982   6.205   4.731  13.338  0.0228  0.0371  0.1461
 8831TIP3   OH247983   3.723   5.595  13.921  0.3435  0.3925 -0.6545
 8831TIP3    H147984   3.740   5.524  13.983 -0.2037  0.2282 -0.6870
 8831TIP3    H247985   3.744   5.675  13.970 -2.0808  0.3974  0.4896
 8832TIP3   OH247986   6.226   3.480  14.564 -0.7435  0.2474 -0.7286
 8832TIP3    H147987   6.187   3.529  14.636  0.6100 -1.8338  1.4810
 8832TIP3    H247988   6.318   3.505  14.565 -0.5378 -0.4832 -1.1536
 8833TIP3   OH247989   6.983   5.768  13.967 -0.4699 -0.1745 -0.0025
 8833TIP3    H147990   7.013   5.859  13.962  1.0469 -0.7234 -1.4526
 8833TIP3    H247991   6.931   5.765  14.047  0.5436  1.6600  0.7722
 8834TIP3   OH247992   6.810   1.839   0.998 -0.6787  0.2686 -0.6763
 8834TIP3    H147993   6.903   1.849   1.015 -0.9977  0.8038  0.8586
 8834TIP3    H247994   6.767   1.866   1.080 -2.2113  0.8502 -1.6317
 8835TIP3   OH247995   6.668   5.165  15.336 -0.1360  0.2303 -0.0619
 8835TIP3    H147996   6.695   5.230  15.272  2.0040  0.5081  1.0584
 8835TIP3    H247997   6.610   5.105  15.288 -0.7849  1.9904 -1.5120
 8836TIP3   OH247998   6.647   5.864  14.531  0.2834 -0.3322 -0.1515
 8836TIP3    H147999   6.688   5.826  14.609 -1.2077  0.1559  0.9099
 8836TIP3    H248000   6.716   5.866  14.465  1.7854 -0.0386  1.3973
 8837TIP3   OH248001   6.724   4.692  14.541  0.4288 -0.0312  0.1210
 8837TIP3    H148002   6.708   4.600  14.524 -0.8285  0.1455  0.2795
 8837TIP3    H248003   6.638   4.728  14.562  0.8038  1.2962 -0.5258
 8838TIP3   OH248004   6.017   4.528  12.973  0.0969 -0.4738 -0.0346
 8838TIP3    H148005   5.992   4.455  13.030 -0.7689 -1.4802 -1.6458
 8838TIP3    H248006   6.111   4.516  12.958 -0.1538 -1.6433 -0.7781
 8839TIP3   OH248007   4.312   4.290  15.524 -0.3059 -0.0727 -0.1825
 8839TIP3    H148008   4.399   4.329  15.532 -0.4679  0.6139 -1.5922
 8839TIP3    H248009   4.323   4.200  15.553  0.6928  0.2463  0.4284
 8840TIP3   OH248010   6.471   6.091  11.324  0.2265  0.3177  0.8962
 8840TIP3    H148011   6.423   6.097  11.241  1.0058  1.7756  0.5317
 8840TIP3    H248012   6.501   6.000  11.327  0.5651  0.3560 -0.6385
 8841TIP3   OH248013   4.225   4.641   0.134 -0.1281 -0.4301 -0.1989
 8841TIP3    H148014   4.251   4.653   0.225 -0.0251 -0.2011 -0.2589
 8841TIP3    H248015   4.284   4.573   0.101  0.7677  0.4798 -0.4937
 8842TIP3   OH248016   6.984   2.769  14.152 -0.4707  0.7923  0.0461
 8842TIP3    H148017   6.917   2.725  14.203  1.1483 -0.6869  0.9508
 8842TIP3    H248018   6.977   2.730  14.065 -0.2299  0.0203  0.3672
 8843TIP3   OH248019   7.011   3.705  14.657 -0.0870 -0.2646 -0.0167
 8843TIP3    H148020   7.048   3.786  14.622  0.6879 -0.6467 -0.1023
 8843TIP3    H248021   7.047   3.697  14.745 -1.5823  0.3972  0.6744
 8844TIP3   OH248022   6.101   1.756  15.364 -0.0215 -0.4249 -0.6973
 8844TIP3    H148023   6.194   1.768  15.383 -0.0802 -0.3141 -0.4784
 8844TIP3    H248024   6.059   1.831  15.406  0.0099  0.6527 -2.5451
 8845TIP3   OH248025   5.097   4.353  14.167 -0.1249 -0.3805  0.2565
 8845TIP3    H148026   5.181   4.393  14.187 -0.4449  0.6012 -0.2803
 8845TIP3    H248027   5.115   4.259  14.160  0.4837 -0.4342  2.3791
 8846TIP3   OH248028   7.310   2.904   0.013  0.4438 -0.3515  0.4506
 8846TIP3    H148029   7.364   2.931  -0.061  1.0452 -1.7216  0.3675
 8846TIP3    H248030   7.239   2.854  -0.026 -0.1770  0.3505  0.6706
 8847TIP3   OH248031   6.593   4.830  14.818  0.0073 -0.1213 -0.0459
 8847TIP3    H148032   6.528   4.856  14.883 -0.0895 -0.7781  0.1198
 8847TIP3    H248033   6.547   4.832  14.735 -0.9142 -2.9872  0.3519
 8848TIP3   OH248034   6.143   5.800  13.471  0.6809 -0.3554 -0.5576
 8848TIP3    H148035   6.109   5.715  13.442  0.8474 -0.8634  0.6909
 8848TIP3    H248036   6.210   5.778  13.535 -0.0996  0.7272  0.6665
 8849TIP3   OH248037   6.515   3.433  14.827  0.4094  0.2524 -0.4438
 8849TIP3    H148038   6.451   3.443  14.897 -0.7573  0.5409 -1.5409
 8849TIP3    H248039   6.529   3.339  14.821  2.3397  0.3443  1.7801
 8850TIP3   OH248040   5.066   4.541  13.536 -0.2262 -0.5294 -0.3314
 8850TIP3    H148041   5.046   4.606  13.602 -1.7845  0.1011 -1.3965
 8850TIP3    H248042   5.126   4.585  13.476 -0.7441 -0.2900 -0.6772
 8851TIP3   OH248043   0.272   4.875  15.401  0.1783 -0.3383  0.6575
 8851TIP3    H148044   0.292   4.784  15.379 -1.5579 -0.0814 -2.2541
 8851TIP3    H248045   0.348   4.906  15.449  1.9234 -2.5497 -0.6084
 8852TIP3   OH248046   0.136   3.345  15.871  0.2425  0.5388 -0.2293
 8852TIP3    H148047   0.105   3.261  15.836 -0.9321  0.5380  0.7594
 8852TIP3    H248048   0.139   3.331  15.966  1.7871  1.0577 -0.1867
 8853TIP3   OH248049   6.066   4.343  14.319 -0.4468 -0.3660  0.2993
 8853TIP3    H148050   6.000   4.277  14.300 -1.3413  0.3176  1.0000
 8853TIP3    H248051   6.139   4.294  14.357  0.1629 -1.3484 -2.0421
 8854TIP3   OH248052   5.278   5.461  13.945 -0.0013  0.3017  0.1412
 8854TIP3    H148053   5.309   5.371  13.956 -2.4107 -0.9095 -2.3385
 8854TIP3    H248054   5.184   5.456  13.965 -0.4258  1.9648 -1.3425
 8855TIP3   OH248055   5.865   4.960   1.503 -0.4548 -0.1427  0.1586
 8855TIP3    H148056   5.947   4.935   1.546  0.6084  1.6826 -0.7718
 8855TIP3    H248057   5.798   4.948   1.571  0.7403 -0.4417  1.3047
 8856TIP3   OH248058   6.980   6.694  14.603  0.2453 -0.6074 -0.3470
 8856TIP3    H148059   7.056   6.637  14.586  0.0711 -1.1617  0.6948
 8856TIP3    H248060   6.906   6.645  14.568 -0.0903 -1.6694  1.7459
 8857TIP3   OH248061   6.161   2.068  12.519 -0.4580  0.1217 -0.4466
 8857TIP3    H148062   6.152   2.150  12.568  2.6301  0.6897 -0.7175
 8857TIP3    H248063   6.159   2.000  12.587  0.2036  0.6493  0.1089
 8858TIP3   OH248064   6.401   5.402   2.198 -0.5112 -0.2382  0.0078
 8858TIP3    H148065   6.366   5.313   2.203 -1.4404  0.1754  1.0854
 8858TIP3    H248066   6.352   5.451   2.264  0.9385  0.7586  0.3785
 8859TIP3   OH248067   6.672   5.378  14.268  0.3616 -0.5196 -0.3111
 8859TIP3    H148068   6.764   5.366  14.247  0.3326 -0.8180 -0.2658
 8859TIP3    H248069   6.626   5.366  14.185  0.6810  3.6839 -1.2109
 8860TIP3   OH248070   5.945   3.783  14.791  0.4830 -0.1565 -0.0906
 8860TIP3    H148071   5.909   3.845  14.854  0.0593  0.2480 -0.7456
 8860TIP3    H248072   5.885   3.785  14.717 -0.2451 -2.2828  0.4057
 8861TIP3   OH248073   0.214   2.435  13.740 -0.0387 -0.2259  0.3263
 8861TIP3    H148074   0.283   2.408  13.801  0.2594 -0.7806 -0.2507
 8861TIP3    H248075   0.139   2.454  13.796  0.3780 -0.2653  0.9060
 8862TIP3   OH248076   6.869   5.328  14.519 -0.2279 -0.0537 -0.4694
 8862TIP3    H148077   6.947   5.356  14.472 -1.0354  2.3118 -0.4709
 8862TIP3    H248078   6.895   5.247  14.563  2.2636  0.7695 -0.3563
 8863TIP3   OH248079   5.227   2.239  13.759  0.3970  0.1931  0.0824
 8863TIP3    H148080   5.243   2.216  13.667  1.4542  0.3602  0.2208
 8863TIP3    H248081   5.306   2.286  13.786 -0.1469  0.6402  0.9187
 8864TIP3   OH248082   0.434   1.632  14.061 -0.4623 -0.2784 -0.2055
 8864TIP3    H148083   0.518   1.591  14.041 -0.3380  0.1403 -0.5360
 8864TIP3    H248084   0.411   1.598  14.148  0.9436  1.0538  0.7121
 8865TIP3   OH248085   4.596   2.477  14.754  0.1274 -0.5192 -0.5052
 8865TIP3    H148086   4.673   2.528  14.731 -0.1434 -0.2388 -0.7961
 8865TIP3    H248087   4.571   2.508  14.841  1.4365 -1.9157  0.3933
 8866TIP3   OH248088   4.264   5.510  11.316  0.4708  0.0262 -0.5535
 8866TIP3    H148089   4.239   5.513  11.409  0.4223 -0.4390 -0.5501
 8866TIP3    H248090   4.294   5.421  11.302  0.5363  0.1116 -0.9743
 8867TIP3   OH248091   0.465   3.983  13.361 -0.3383 -0.3126  0.4764
 8867TIP3    H148092   0.386   3.972  13.308 -0.2942 -1.0044  0.5465
 8867TIP3    H248093   0.454   4.068  13.403  0.3881  0.9997 -1.9076
 8868TIP3   OH248094   0.253   5.260  14.438 -0.6488  0.0946  0.0173
 8868TIP3    H148095   0.326   5.300  14.392  0.0488  0.5702  1.5334
 8868TIP3    H248096   0.186   5.248  14.370 -1.4419  5.1014 -0.2155
 8869TIP3   OH248097   6.461   4.291  13.344  0.7562 -0.3947  0.0272
 8869TIP3    H148098   6.528   4.353  13.373 -0.6673  1.1345  0.1355
 8869TIP3    H248099   6.459   4.224  13.412  0.0513  1.1729  1.5711
 8870TIP3   OH248100   6.455   2.514  15.507  0.3097  0.4395  0.5079
 8870TIP3    H148101   6.384   2.570  15.477 -0.5273 -0.7328  0.2627
 8870TIP3    H248102   6.531   2.541  15.455 -0.1969  1.0287  0.0722
 8871TIP3   OH248103   5.971   1.046  14.451 -0.2103 -0.3148 -0.0778
 8871TIP3    H148104   6.064   1.066  14.453 -0.5660  1.4365  0.0344
 8871TIP3    H248105   5.953   1.007  14.537  0.3846 -0.5198 -0.0470
 8872TIP3   OH248106   5.462   1.495  12.739 -0.1385 -0.8440  0.1061
 8872TIP3    H148107   5.479   1.408  12.703  1.6666  0.7605 -3.1141
 8872TIP3    H248108   5.373   1.515  12.712  0.1030 -0.9314 -0.7664
 8873TIP3   OH248109   1.479   6.498   0.004 -0.3713  0.0180 -0.0436
 8873TIP3    H148110   1.469   6.531   0.093 -1.5413 -1.3027  0.3440
 8873TIP3    H248111   1.519   6.570  -0.045 -2.2752  1.7569  0.8961
 8874TIP3   OH248112   6.043   5.792  15.959  0.2181  0.2667  0.6371
 8874TIP3    H148113   6.052   5.745  16.042  1.3045  1.3901  1.1656
 8874TIP3    H248114   6.086   5.735  15.895 -1.2996 -0.9748  0.6847
 8875TIP3   OH248115   7.091   4.967  14.729 -0.3658 -0.1787  0.1487
 8875TIP3    H148116   7.008   4.978  14.775  0.4917 -0.1243  1.7152
 8875TIP3    H248117   7.092   4.874  14.705  0.4554 -0.9280  2.8462
 8876TIP3   OH248118   0.114   2.679   0.545 -0.1934 -0.2237  0.0169
 8876TIP3    H148119   0.189   2.739   0.551 -2.2549  2.6936 -1.9934
 8876TIP3    H248120   0.140   2.614   0.480  1.3580 -0.4701  0.8514
 8877TIP3   OH248121   6.748   4.270  13.326 -0.0244  0.3149 -0.1218
 8877TIP3    H148122   6.696   4.326  13.383 -1.4038  0.5808 -1.6148
 8877TIP3    H248123   6.839   4.297  13.341 -0.5158  1.5052  0.7092
 8878TIP3   OH248124   7.301   4.267  14.611 -0.1033  0.6336 -0.2214
 8878TIP3    H148125   7.390   4.287  14.581  0.1922  0.7443  0.6960
 8878TIP3    H248126   7.313   4.239  14.702 -1.2121  2.3430  0.4561
 8879TIP3   OH248127   0.314   6.400  14.410 -0.4491 -0.1083 -0.8408
 8879TIP3    H148128   0.330   6.452  14.489 -1.9439 -0.6500 -0.1633
 8879TIP3    H248129   0.245   6.449  14.364 -1.3357 -1.0849 -0.5654
 8880TIP3   OH248130   0.236   4.477  13.499 -0.0924 -0.0637 -0.0202
 8880TIP3    H148131   0.280   4.528  13.431 -0.9590 -0.7654 -1.1253
 8880TIP3    H248132   0.144   4.500  13.490 -0.5737 -2.2106 -0.9129
 8881TIP3   OH248133   5.557   4.125  13.951 -0.1079 -0.2611 -0.6107
 8881TIP3    H148134   5.552   4.221  13.951  0.2979 -0.2220  1.0255
 8881TIP3    H248135   5.467   4.096  13.936 -0.5392  0.3926  0.6147
 8882TIP3   OH248136   1.546   5.915  13.201 -0.4105  0.2006  0.0633
 8882TIP3    H148137   1.475   5.965  13.162 -0.0247 -0.0631 -0.9951
 8882TIP3    H248138   1.502   5.840  13.242 -0.6887 -0.3026 -1.1411
 8883TIP3   OH248139   7.188   2.399  14.703  0.4316  0.1971  0.5645
 8883TIP3    H148140   7.107   2.356  14.728  0.7463 -1.6795 -1.5263
 8883TIP3    H248141   7.161   2.470  14.644  0.2244  0.4473  0.9572
 8884TIP3   OH248142   1.725   1.081  14.725 -0.0339  0.1516  0.0644
 8884TIP3    H148143   1.665   1.006  14.724 -2.2713  1.8387  2.0164
 8884TIP3    H248144   1.751   1.090  14.816  0.9397  1.1741 -0.3038
 8885TIP3   OH248145   4.754   3.178   0.172  0.6150 -0.4891  0.2987
 8885TIP3    H148146   4.847   3.198   0.176  0.1632  2.1529 -0.8529
 8885TIP3    H248147   4.744   3.122   0.095  1.0628  0.5727 -0.5463
 8886TIP3   OH248148   7.183   4.110  15.573 -0.8782 -0.6518 -0.4297
 8886TIP3    H148149   7.162   4.033  15.520 -2.0766 -0.3168 -0.4563
 8886TIP3    H248150   7.202   4.074  15.660 -0.3371 -1.0755 -0.7215
 8887TIP3   OH248151   6.567   0.901  13.382 -0.3949  0.2345 -0.0438
 8887TIP3    H148152   6.641   0.935  13.333  0.5177  0.1702  1.2502
 8887TIP3    H248153   6.598   0.818  13.419 -1.7514 -0.7375 -1.0505
 8888TIP3   OH248154   0.195   5.951  14.229 -0.3969 -0.1392  0.3674
 8888TIP3    H148155   0.287   5.971  14.213 -0.7761 -0.3425 -2.2568
 8888TIP3    H248156   0.195   5.862  14.263  0.3756 -0.1034  0.4753
 8889TIP3   OH248157   6.377   3.833  14.691 -0.4756  0.3800  0.4027
 8889TIP3    H148158   6.407   3.750  14.655  0.2342  0.9795 -0.4270
 8889TIP3    H248159   6.445   3.857  14.754  0.5293  1.4284 -1.0201
 8890TIP3   OH248160   0.588   6.402  12.159 -0.7541  0.4121 -0.1804
 8890TIP3    H148161   0.539   6.359  12.089  1.3653 -1.1551 -0.7542
 8890TIP3    H248162   0.623   6.329  12.211  2.6393  1.3745 -0.9624
 8891TIP3   OH248163   4.582   5.323  13.941 -0.3190 -0.2255 -0.3773
 8891TIP3    H148164   4.624   5.307  13.857  0.2898 -1.0007  0.0653
 8891TIP3    H248165   4.651   5.307  14.006 -0.3016  2.0393  0.2054
 8892TIP3   OH248166   6.387   2.924  14.853 -0.5653  0.0544 -0.0156
 8892TIP3    H148167   6.403   2.842  14.807 -0.4505 -0.1367  0.3623
 8892TIP3    H248168   6.329   2.900  14.926 -0.6087  0.3239  0.0390
 8893TIP3   OH248169   6.092   4.950  15.447  0.0344  0.0284 -0.0742
 8893TIP3    H148170   6.052   4.979  15.530 -0.8059  0.1050 -0.4980
 8893TIP3    H248171   6.151   4.880  15.472  0.9007  1.0396  0.7765
 8894TIP3   OH248172   5.311   1.391  14.292 -0.4400 -0.2415  0.2027
 8894TIP3    H148173   5.218   1.377  14.274 -0.7848  0.3385  1.4968
 8894TIP3    H248174   5.333   1.471  14.244 -1.4342  1.4766  2.5216
 8895TIP3   OH248175   5.856   6.812   0.451  0.1187 -0.5176 -0.7011
 8895TIP3    H148176   5.900   6.858   0.380  0.9661 -0.5364 -0.1910
 8895TIP3    H248177   5.904   6.730   0.461 -0.0708 -0.5718 -0.1909
 8896TIP3   OH248178   0.024   2.669  14.954 -0.2552  0.3007 -0.0189
 8896TIP3    H148179   0.008   2.759  14.925 -0.7258  0.0680 -0.4609
 8896TIP3    H248180   0.106   2.644  14.911 -0.6390  0.1662 -0.6596
 8897TIP3   OH248181   0.507   0.189  14.635 -0.6550  0.0044  0.7998
 8897TIP3    H148182   0.425   0.208  14.682 -0.9902  1.2438 -0.2439
 8897TIP3    H248183   0.484   0.120  14.574 -0.8531  0.1641  0.6945
 8898TIP3   OH248184   0.739   2.795  14.267  0.0216  0.0708  0.1011
 8898TIP3    H148185   0.788   2.777  14.187  0.1406 -2.2217  0.6639
 8898TIP3    H248186   0.789   2.753  14.336 -2.2912 -1.6398  0.8022
 8899TIP3   OH248187   1.726   4.411  15.170  0.0143  0.3516 -0.4410
 8899TIP3    H148188   1.631   4.417  15.157  0.2114  0.8224 -1.7395
 8899TIP3    H248189   1.740   4.442  15.259 -1.3870 -2.7334  0.9045
 8900TIP3   OH248190   3.374   5.268   1.234  0.1219 -0.1370 -0.1946
 8900TIP3    H148191   3.310   5.197   1.230  2.3223 -2.0686 -2.1882
 8900TIP3    H248192   3.434   5.242   1.304  0.2943  0.3528 -0.1594
 8901TIP3   OH248193   6.713   4.738  14.180  0.1575  0.7522  0.0931
 8901TIP3    H148194   6.807   4.739  14.166  0.5505  2.2572  2.5526
 8901TIP3    H248195   6.700   4.786  14.262 -2.7392  0.5319 -0.1763
 8902TIP3   OH248196   5.045   3.661  13.506  0.3910 -0.1594 -0.6526
 8902TIP3    H148197   5.041   3.732  13.442 -0.5973 -0.3800 -0.8553
 8902TIP3    H248198   5.135   3.629  13.503  0.5226  0.2977 -1.4269
 8903TIP3   OH248199   5.049   6.070  13.094 -0.2049  0.1998 -0.7277
 8903TIP3    H148200   5.057   6.063  13.190  2.6465  1.3559 -0.8362
 8903TIP3    H248201   5.092   5.991  13.062 -0.9510 -0.0666 -1.0813
 8904TIP3   OH248202   6.733   2.774  14.766 -0.1828 -0.1153 -0.1590
 8904TIP3    H148203   6.745   2.829  14.844 -1.3952  0.2839 -0.2409
 8904TIP3    H248204   6.640   2.751  14.767  0.2324 -1.9390 -0.2899
 8905TIP3   OH248205   6.907   1.988  13.781  0.2632 -0.3206  0.3908
 8905TIP3    H148206   6.893   2.075  13.818 -0.7248 -0.6787  0.8548
 8905TIP3    H248207   6.991   1.959  13.818 -0.1095 -0.1569  1.3658
 8906TIP3   OH248208   5.741   5.516   0.479 -0.0198  0.1268  0.2085
 8906TIP3    H148209   5.771   5.476   0.397 -0.1107  0.5519 -0.0322
 8906TIP3    H248210   5.678   5.582   0.452 -0.8339 -0.4520  0.6894
 8907TIP3   OH248211   7.101   3.483  14.479  0.2446  0.1415 -0.6377
 8907TIP3    H148212   7.196   3.486  14.489  0.2970 -0.0815 -1.0655
 8907TIP3    H248213   7.069   3.548  14.542  0.7444  1.1710 -1.4335
 8908TIP3   OH248214   6.820   4.224  13.742  0.1785  0.4266 -0.3711
 8908TIP3    H148215   6.900   4.231  13.690 -0.1864 -0.7936 -1.1035
 8908TIP3    H248216   6.756   4.186  13.683 -0.7957  0.8635  0.3887
 8909TIP3   OH248217   6.828   3.488  14.868  0.7206 -0.3043  0.4275
 8909TIP3    H148218   6.878   3.447  14.798  0.5297 -0.9758  0.6815
 8909TIP3    H248219   6.746   3.514  14.826  0.1323 -1.7329  0.6464
 8910TIP3   OH248220   5.506   7.267  11.322  0.2655  0.1634 -0.1056
 8910TIP3    H148221   5.420   7.305  11.341  0.4356  0.2396  0.5008
 8910TIP3    H248222   5.564   7.343  11.312  0.9565  0.0398  2.7247
 8911TIP3   OH248223   6.537   4.351  13.708 -0.0645 -0.4325  0.0752
 8911TIP3    H148224   6.477   4.278  13.725 -0.2791 -0.6515 -1.6090
 8911TIP3    H248225   6.617   4.327  13.754 -0.6451 -1.0051  0.8085
 8912TIP3   OH248226   7.260   3.064  12.078  0.1817  0.5915  0.3707
 8912TIP3    H148227   7.214   2.981  12.075 -2.5690  2.0307  1.3277
 8912TIP3    H248228   7.231   3.110  11.999  2.1841  0.4537 -0.4972
 8913TIP3   OH248229   6.351   2.944  13.097 -0.0597 -0.6430 -0.0005
 8913TIP3    H148230   6.290   2.916  13.165 -0.7889 -1.4958 -0.9762
 8913TIP3    H248231   6.337   2.881  13.026 -0.3835  1.0909 -1.5116
 8914TIP3   OH248232   6.622   5.119  15.743 -0.5248  0.3385 -0.2151
 8914TIP3    H148233   6.660   5.109  15.831 -0.6969  1.9862  0.0586
 8914TIP3    H248234   6.683   5.072  15.686  0.2027  0.2174  0.6324
 8915TIP3   OH248235   0.474   3.596  13.849 -0.0319 -0.2637 -0.2333
 8915TIP3    H148236   0.505   3.505  13.854 -2.1001 -0.9248  1.4298
 8915TIP3    H248237   0.399   3.593  13.790 -2.8781 -0.5533  3.1920
 8916TIP3   OH248238   6.035   4.769  13.723  0.2205  0.0268  0.3452
 8916TIP3    H148239   6.092   4.842  13.700 -1.5193  1.9661  2.0326
 8916TIP3    H248240   6.026   4.774  13.818 -1.5439 -1.1441  0.2664
 8917TIP3   OH248241   4.436   4.772   1.207 -0.6363 -0.0250 -0.3781
 8917TIP3    H148242   4.525   4.805   1.213 -0.1034 -1.4058 -0.4939
 8917TIP3    H248243   4.445   4.683   1.172 -2.0672 -0.0975 -0.6082
 8918TIP3   OH248244   6.732   1.705  12.668  0.3400  0.5379  0.1021
 8918TIP3    H148245   6.780   1.649  12.606 -2.0856 -1.2819 -0.2107
 8918TIP3    H248246   6.696   1.775  12.614 -0.9026 -0.4759 -0.4225
 8919TIP3   OH248247   6.177   3.444  15.824 -0.5714 -0.3778  0.3023
 8919TIP3    H148248   6.135   3.424  15.907  0.1965 -1.3911  0.4550
 8919TIP3    H248249   6.230   3.366  15.803  1.2198  0.8393  0.1296
 8920TIP3   OH248250   7.086   3.673   0.654  0.0942 -0.5616  0.3558
 8920TIP3    H148251   7.041   3.647   0.574 -1.3117  1.0838  0.6029
 8920TIP3    H248252   7.024   3.728   0.701  0.6230 -2.0636  2.9498
 8921TIP3   OH248253   1.974   4.218  14.122  0.0174  0.6577 -0.8657
 8921TIP3    H148254   2.002   4.128  14.103 -0.1404  0.6225 -0.9325
 8921TIP3    H248255   1.980   4.263  14.038  0.7886  0.8957 -0.6810
 8922TIP3   OH248256   1.503   5.195  13.438 -0.4405 -0.5518 -0.2465
 8922TIP3    H148257   1.452   5.116  13.456  0.2473 -0.5075  2.1042
 8922TIP3    H248258   1.443   5.267  13.456 -0.2222 -0.5198  0.3609
 8923TIP3   OH248259   5.063   6.437   0.735 -0.3964 -0.3095 -0.3222
 8923TIP3    H148260   5.130   6.434   0.804  1.1749  0.0646 -1.7952
 8923TIP3    H248261   5.104   6.392   0.661 -1.7871 -0.0549 -1.2531
 8924TIP3   OH248262   4.415   5.084   0.932 -0.5236 -0.0074  0.5798
 8924TIP3    H148263   4.411   5.166   0.883 -0.4079  0.7297  1.7780
 8924TIP3    H248264   4.332   5.041   0.914 -0.8361  0.6568  0.4201
 8925TIP3   OH248265   4.315   5.777  15.997 -0.4015 -0.1796  0.0033
 8925TIP3    H148266   4.327   5.807  15.907 -0.9347 -0.9949 -0.3380
 8925TIP3    H248267   4.248   5.709  15.991 -1.0885  0.3909  1.1380
 8926TIP3   OH248268   0.973   3.194   0.852 -0.0518  0.2078  0.3608
 8926TIP3    H148269   1.062   3.226   0.870 -0.2063  0.7262  0.2237
 8926TIP3    H248270   0.923   3.273   0.833  0.1870 -0.2997 -2.7381
 8927TIP3   OH248271   6.577   4.158  15.191  0.4256  0.2647 -0.5068
 8927TIP3    H148272   6.671   4.142  15.187  0.9065  2.4834  1.0684
 8927TIP3    H248273   6.563   4.235  15.136 -0.2871  0.6188  0.1574
 8928TIP3   OH248274   6.825   4.754  13.267 -0.4359 -0.7247 -0.3239
 8928TIP3    H148275   6.849   4.844  13.243 -0.7903 -1.1861 -2.4782
 8928TIP3    H248276   6.819   4.756  13.362  2.6442  0.7679 -0.1199
 8929TIP3   OH248277   5.813   3.510   0.009 -0.4600  0.0963  0.2284
 8929TIP3    H148278   5.808   3.601   0.039 -1.4899  0.1929 -0.2193
 8929TIP3    H248279   5.830   3.517  -0.085  0.2181 -0.1880  0.3246
 8930TIP3   OH248280   5.952   5.716  14.904  0.1552  0.2976 -0.1540
 8930TIP3    H148281   6.027   5.701  14.846  0.8944  1.5102  0.4737
 8930TIP3    H248282   5.984   5.694  14.991 -0.9599 -1.5225 -0.1826
 8931TIP3   OH248283   5.965   4.232  12.983  0.3492 -0.5981  0.4625
 8931TIP3    H148284   5.930   4.143  12.974  0.7324 -0.7006 -0.0763
 8931TIP3    H248285   6.057   4.219  13.007  0.0590 -0.3323  1.7558
 8932TIP3   OH248286   1.738   4.423  13.476  0.2308  0.5626 -0.1326
 8932TIP3    H148287   1.712   4.514  13.487  0.4205  0.5238  0.6434
 8932TIP3    H248288   1.655   4.376  13.462  0.1270  0.8393 -0.4544
 8933TIP3   OH248289   5.940   5.958  15.651  0.1597  0.4066 -0.0770
 8933TIP3    H148290   5.911   6.048  15.663  0.2122  0.7569 -2.3367
 8933TIP3    H248291   6.029   5.956  15.686 -0.1302  1.0313  0.7065
 8934TIP3   OH248292   6.582   4.474  14.539  0.2276  0.5288  0.0376
 8934TIP3    H148293   6.600   4.421  14.461 -0.3926 -0.2903  0.4395
 8934TIP3    H248294   6.556   4.410  14.605  0.2087  1.2750  0.7509
 8935TIP3   OH248295   6.692   3.500  15.126  0.2422 -0.7184  0.6630
 8935TIP3    H148296   6.597   3.510  15.127  0.3337  0.2809  0.0636
 8935TIP3    H248297   6.718   3.527  15.038  1.1361 -0.4408  1.0066
 8936TIP3   OH248298   0.222   2.391  15.278 -0.2276  0.1558 -0.5612
 8936TIP3    H148299   0.265   2.433  15.352 -1.7892 -0.5803  0.7891
 8936TIP3    H248300   0.288   2.392  15.208  1.2652  0.8433  0.8311
 8937TIP3   OH248301   6.858   2.655   0.205  0.0344 -0.3414 -0.0898
 8937TIP3    H148302   6.812   2.635   0.124  1.7941  1.5677 -1.6056
 8937TIP3    H248303   6.798   2.712   0.253 -0.7916 -1.0560 -0.2490
 8938TIP3   OH248304   1.652   6.572  14.338  0.3624 -0.3212  0.2616
 8938TIP3    H148305   1.711   6.497  14.331  1.0097  0.2781 -0.7301
 8938TIP3    H248306   1.686   6.623  14.412  0.7220 -0.2939  0.0752
 8939TIP3   OH248307   0.002   4.267  15.412 -0.2359  0.0745 -0.2703
 8939TIP3    H148308  -0.049   4.220  15.478  1.4230 -0.3805  0.7212
 8939TIP3    H248309   0.089   4.226  15.414  0.4851  1.4944 -1.1890
 8940TIP3   OH248310   6.125   2.308   1.758  0.7183 -0.4260  0.1738
 8940TIP3    H148311   6.110   2.270   1.671  1.8407 -1.9218  0.6194
 8940TIP3    H248312   6.194   2.254   1.796 -0.8495 -0.7458  2.6097
 8941TIP3   OH248313   6.228   5.026   1.158 -0.2352  0.2510 -0.5300
 8941TIP3    H148314   6.185   4.947   1.127  0.1629 -0.2487  0.1659
 8941TIP3    H248315   6.318   5.020   1.126  0.9580 -1.5975  2.8640
 8942TIP3   OH248316   6.961   3.214  11.274  0.1092  0.8872  0.2525
 8942TIP3    H148317   6.902   3.266  11.220  0.5264  1.5410  0.4199
 8942TIP3    H248318   7.005   3.155  11.212  0.4418  1.4986 -0.1011
 8943TIP3   OH248319   5.158   2.770  13.040 -0.0746 -0.5802 -0.4043
 8943TIP3    H148320   5.215   2.702  13.005 -0.0954 -1.7498  1.7437
 8943TIP3    H248321   5.079   2.723  13.067 -0.2283  0.3437  0.7962
 8944TIP3   OH248322   6.666   3.505   1.221 -0.6857 -0.0169  0.0522
 8944TIP3    H148323   6.573   3.492   1.202 -0.3000 -2.5097 -0.3596
 8944TIP3    H248324   6.677   3.475   1.311 -0.2106 -0.1551 -0.0492
 8945TIP3   OH248325   5.949   1.229  15.267  0.1222 -0.0959 -0.8902
 8945TIP3    H148326   5.946   1.309  15.319 -0.0198 -1.5066  1.3292
 8945TIP3    H248327   5.915   1.255  15.181  1.1931  2.4700 -0.5801
 8946TIP3   OH248328   6.669   2.866  14.325  0.2655  0.2962  0.0948
 8946TIP3    H148329   6.694   2.930  14.259 -0.2190 -0.8496 -1.2170
 8946TIP3    H248330   6.663   2.917  14.406  0.1786  1.8478 -0.8553
 8947TIP3   OH248331   5.837   0.908  14.953 -0.7402  0.1564 -0.0453
 8947TIP3    H148332   5.798   0.861  15.026 -0.2435 -0.0634  0.0744
 8947TIP3    H248333   5.797   0.995  14.957  0.2797  0.5739  1.2850
 8948TIP3   OH248334   4.649   6.948   0.433 -0.4559  0.4661  0.6555
 8948TIP3    H148335   4.728   6.894   0.439 -0.9252 -0.4242 -0.8282
 8948TIP3    H248336   4.578   6.891   0.463 -0.7099  0.8218  0.7328
 8949TIP3   OH248337   0.768   2.102  15.942  0.1799  0.4293 -0.0482
 8949TIP3    H148338   0.807   2.065  15.863  0.3695 -1.5041  0.9235
 8949TIP3    H248339   0.831   2.168  15.971  1.0547 -0.2260 -0.4247
 8950TIP3   OH248340   6.914   3.846  13.875  0.3530  0.0193  0.2812
 8950TIP3    H148341   6.957   3.822  13.793 -1.6426 -3.3291  0.1483
 8950TIP3    H248342   6.975   3.817  13.943  0.2662 -0.7522  0.0319
 8951TIP3   OH248343   6.804   4.931   1.082  0.2913  0.1308  0.0222
 8951TIP3    H148344   6.752   4.902   1.007  1.0760  1.7597 -1.1935
 8951TIP3    H248345   6.883   4.969   1.043  0.9919  0.4665  1.7156
 8952TIP3   OH248346   6.658   3.443  15.570 -0.3189 -0.1488  0.3409
 8952TIP3    H148347   6.678   3.382  15.499 -0.9882  0.1666 -0.1204
 8952TIP3    H248348   6.563   3.444  15.576 -0.2811  0.1292  0.9854
 8953TIP3   OH248349   0.132   3.856  13.037  0.2585 -0.1563 -0.0631
 8953TIP3    H148350   0.179   3.773  13.051  0.3637 -0.4605 -2.0145
 8953TIP3    H248351   0.133   3.867  12.942  1.0224  2.5559  0.2274
 8954TIP3   OH248352   6.680   3.250  13.480 -0.1529  0.5856 -0.6386
 8954TIP3    H148353   6.672   3.342  13.506 -0.0345  1.0862 -2.2762
 8954TIP3    H248354   6.590   3.223  13.461 -0.0220  0.8220 -1.6165
 8955TIP3   OH248355   5.011   5.742  15.879 -0.3991 -0.2229 -0.6281
 8955TIP3    H148356   5.097   5.716  15.913 -1.0802  0.2420  1.4992
 8955TIP3    H248357   5.031   5.806  15.810  0.9512  0.7305  0.6133
 8956TIP3   OH248358   2.483   6.591  15.132  0.3091 -0.2472  0.1908
 8956TIP3    H148359   2.463   6.501  15.160  1.4992 -0.2760  0.9706
 8956TIP3    H248360   2.521   6.633  15.209  2.5283  0.0248 -0.9925
 8957TIP3   OH248361   6.837   2.490  10.704 -0.3203  0.0955  0.0515
 8957TIP3    H148362   6.933   2.485  10.710 -0.3220  1.0191  1.1418
 8957TIP3    H248363   6.821   2.544  10.627  0.0987  1.4902  0.9073
 8958TIP3   OH248364   1.594   3.222  14.450  0.1365  0.2523 -0.0420
 8958TIP3    H148365   1.511   3.184  14.420 -0.2548  0.8584  0.2472
 8958TIP3    H248366   1.621   3.280  14.378  0.1051  0.3556  0.0293
 8959TIP3   OH248367   7.303   6.206  13.757  0.0333 -0.0032 -0.2645
 8959TIP3    H148368   7.326   6.182  13.847 -2.7190 -0.4281  0.3725
 8959TIP3    H248369   7.362   6.278  13.736  1.8388 -0.9853  1.2676
 8960TIP3   OH248370   6.973   4.714  14.677  0.0849  0.3469 -0.5667
 8960TIP3    H148371   6.885   4.717  14.641 -0.9535  0.1746  1.8719
 8960TIP3    H248372   6.980   4.628  14.718  1.5254  0.2219 -1.0186
 8961TIP3   OH248373   5.682   2.476  15.722 -0.7385  0.2321 -0.4488
 8961TIP3    H148374   5.711   2.387  15.702  0.7103  0.5974 -0.0083
 8961TIP3    H248375   5.679   2.481  15.817 -1.2545  0.5300 -0.4739
 8962TIP3   OH248376   7.101   5.103  13.448 -0.3234  0.7371  0.0036
 8962TIP3    H148377   7.024   5.152  13.477  2.5574  5.1785  0.5577
 8962TIP3    H248378   7.147   5.083  13.529 -0.2777 -0.9500 -0.4179
 8963TIP3   OH248379   5.918   4.107  14.361 -0.0783 -0.2739 -0.0930
 8963TIP3    H148380   5.857   4.172  14.327 -2.4942 -2.3730  0.0293
 8963TIP3    H248381   5.863   4.048  14.414  2.2649 -1.5662  0.9937
 8964TIP3   OH248382   7.141   4.437  15.020 -0.3088  0.1785 -0.2238
 8964TIP3    H148383   7.132   4.360  15.077 -1.9595 -0.4831 -1.3243
 8964TIP3    H248384   7.231   4.465  15.031  0.1855 -1.6321  0.5764
 8965TIP3   OH248385   6.111   3.799  14.542  0.0176 -0.2294  0.0822
 8965TIP3    H148386   6.198   3.794  14.583 -0.8432 -2.1922  1.8050
 8965TIP3    H248387   6.120   3.746  14.463 -0.0090 -1.8376  1.1167
 8966TIP3   OH248388   4.673   3.159  14.865 -0.8161 -0.7050 -0.2244
 8966TIP3    H148389   4.596   3.117  14.829 -1.7391  0.4354  0.3890
 8966TIP3    H248390   4.686   3.237  14.811 -0.3322 -0.6752 -0.0733
 8967TIP3   OH248391   4.720   3.053  15.449  0.3089 -0.2091 -0.2004
 8967TIP3    H148392   4.736   3.148  15.445  1.9347 -0.4388  0.4662
 8967TIP3    H248393   4.661   3.036  15.376 -0.7466  1.4636  0.2184
 8968TIP3   OH248394   6.198   4.290   0.338 -0.2757  0.0292  0.3793
 8968TIP3    H148395   6.145   4.354   0.385 -3.0143 -1.8791  0.0093
 8968TIP3    H248396   6.175   4.303   0.246  0.2052 -0.5680  0.1750
 8969TIP3   OH248397   6.473   4.785  14.346 -0.1118 -0.2623  0.1024
 8969TIP3    H148398   6.477   4.728  14.269  0.1175  1.1373 -0.9491
 8969TIP3    H248399   6.384   4.820  14.345 -0.0503 -0.0976  0.3566
 8970TIP3   OH248400   3.806   6.523  15.591 -0.3709 -0.7325 -0.2292
 8970TIP3    H148401   3.844   6.488  15.510  0.0131 -0.7840 -0.0308
 8970TIP3    H248402   3.860   6.485  15.661 -1.1192 -1.2238  0.0879
 8971TIP3   OH248403   0.890   4.144  14.670  0.2781 -0.0680 -0.6846
 8971TIP3    H148404   0.799   4.125  14.648  0.4730 -2.8025  0.6997
 8971TIP3    H248405   0.889   4.163  14.764  0.8687  1.8466 -1.0483
 8972TIP3   OH248406   4.708   7.217   0.444  0.5399  0.2523  0.1468
 8972TIP3    H148407   4.796   7.237   0.413  0.8535 -1.5569 -0.1395
 8972TIP3    H248408   4.694   7.125   0.421 -0.9522  0.1698  1.3013
 8973TIP3   OH248409   5.098   5.577   0.718 -0.6343 -0.1136 -0.0350
 8973TIP3    H148410   5.132   5.545   0.802  1.2726  0.9659 -0.3501
 8973TIP3    H248411   5.166   5.555   0.655 -2.5704 -1.9554 -1.5324
 8974TIP3   OH248412   6.357   5.194  15.753 -0.6266 -0.3443  0.8318
 8974TIP3    H148413   6.440   5.147  15.743 -0.4236 -0.0080  0.9246
 8974TIP3    H248414   6.312   5.182  15.669 -0.7176 -0.9744  0.9730
 8975TIP3   OH248415   5.208   3.830  14.149  0.2843  0.2626  0.8113
 8975TIP3    H148416   5.252   3.892  14.091 -1.6249  0.7899 -0.1048
 8975TIP3    H248417   5.267   3.755  14.153  0.0454 -0.1778 -2.5794
 8976TIP3   OH248418   7.333   6.433  14.361  0.3071 -0.2522  0.1163
 8976TIP3    H148419   7.262   6.369  14.367 -0.0856  0.2076  0.4864
 8976TIP3    H248420   7.360   6.431  14.269 -1.7751  1.2321 -0.5726
 8977TIP3   OH248421   7.303   5.277  13.355 -0.3506  0.1012  0.1334
 8977TIP3    H148422   7.243   5.205  13.373 -0.3012  0.2636  0.9304
 8977TIP3    H248423   7.367   5.240  13.294 -1.5291  0.0635 -1.1189
 8978TIP3   OH248424   7.313   5.115  13.913 -0.5341 -0.1649  0.0155
 8978TIP3    H148425   7.303   5.020  13.906 -0.7946 -0.2462  1.4301
 8978TIP3    H248426   7.317   5.145  13.822 -2.8205 -1.2755 -0.4844
 8979TIP3   OH248427   5.425   4.854  14.960  0.0551  0.1559  0.3229
 8979TIP3    H148428   5.384   4.938  14.942 -0.8450 -0.0151  1.5114
 8979TIP3    H248429   5.519   4.871  14.956 -0.1128  1.4620  1.6009
 8980TIP3   OH248430   7.032   1.753  14.842 -0.0021 -0.7272  0.4469
 8980TIP3    H148431   7.044   1.692  14.769  0.0346  0.8266 -0.8576
 8980TIP3    H248432   7.024   1.839  14.801 -1.0495  0.0460  2.2082
 8981TIP3   OH248433   1.268   4.771  14.356  0.3522 -0.0301 -0.3944
 8981TIP3    H148434   1.307   4.765  14.443 -2.5409 -1.6658  0.8696
 8981TIP3    H248435   1.282   4.684  14.317 -3.1192 -1.1378  0.6442
 8982TIP3   OH248436   5.135   1.428  12.800 -0.1840  0.4464  0.0216
 8982TIP3    H148437   5.084   1.380  12.734 -1.2082  1.0030  0.4039
 8982TIP3    H248438   5.133   1.519  12.769  1.9030  0.2328 -0.7966
 8983TIP3   OH248439   3.591   3.474  14.561 -0.4947  1.3696  0.6797
 8983TIP3    H148440   3.561   3.547  14.505  2.8117  1.3704 -1.2561
 8983TIP3    H248441   3.639   3.517  14.632 -0.9968  1.1944  1.1214
 8984TIP3   OH248442   6.041   2.814   1.660  0.3140 -0.6417  0.5639
 8984TIP3    H148443   5.981   2.887   1.646 -0.3611 -1.2613  0.2441
 8984TIP3    H248444   6.128   2.854   1.655 -0.0526  0.1416  0.3781
 8985TIP3   OH248445   6.403   3.367  13.656 -0.0479  0.2223  0.0019
 8985TIP3    H148446   6.447   3.308  13.718  0.8011  0.5977 -0.2340
 8985TIP3    H248447   6.368   3.309  13.588 -0.0945 -0.0977  0.2992
 8986TIP3   OH248448   1.022   2.360  12.458  0.1172 -0.2024 -0.4127
 8986TIP3    H148449   1.038   2.270  12.487  2.3143 -0.0585 -1.1360
 8986TIP3    H248450   0.926   2.367  12.458 -0.0735 -1.5691  2.5778
 8987TIP3   OH248451   6.356   4.617  14.119 -0.5007  0.5284 -0.7313
 8987TIP3    H148452   6.263   4.640  14.130 -0.9048 -0.5630 -1.8223
 8987TIP3    H248453   6.355   4.528  14.085  0.9950 -0.1674  0.9676
 8988TIP3   OH248454   6.381   1.545  13.739  0.1092  0.2946 -0.9142
 8988TIP3    H148455   6.451   1.482  13.721  1.6200  1.8747 -0.7213
 8988TIP3    H248456   6.392   1.612  13.672 -0.2374  1.3562  0.0850
 8989TIP3   OH248457   6.266   5.269   0.383  0.0667 -0.3139 -1.0323
 8989TIP3    H148458   6.192   5.230   0.336  0.3662 -0.5484 -1.3083
 8989TIP3    H248459   6.270   5.359   0.351  0.1238 -0.4050 -1.2802
 8990TIP3   OH248460   0.451   6.228   1.123 -0.5331  0.4489 -0.2610
 8990TIP3    H148461   0.391   6.303   1.115 -0.7313  0.6552  2.4590
 8990TIP3    H248462   0.395   6.151   1.110 -1.3109  0.6589  1.6187
 8991TIP3   OH248463   5.878   3.603  15.040 -0.3395  0.0033 -0.5603
 8991TIP3    H148464   5.953   3.643  15.084  0.1459 -0.8289 -0.6024
 8991TIP3    H248465   5.894   3.618  14.947  1.2184 -2.5309 -0.7598
 8992TIP3   OH248466   5.066   3.592   1.116  0.4901 -0.1113  0.0442
 8992TIP3    H148467   5.074   3.613   1.209  0.0858 -0.4563  0.1633
 8992TIP3    H248468   5.146   3.545   1.095  1.0937  0.9680 -0.0622
 8993TIP3   OH248469   6.285   5.559  14.289  0.4175 -0.4393 -0.6186
 8993TIP3    H148470   6.336   5.639  14.277  1.5326 -0.6770  2.3377
 8993TIP3    H248471   6.217   5.582  14.352 -0.5822 -1.2595 -1.3655
 8994TIP3   OH248472   0.645   0.397  14.104 -0.0315  0.3536 -0.4552
 8994TIP3    H148473   0.575   0.334  14.090  0.3816 -0.9819  3.1858
 8994TIP3    H248474   0.725   0.345  14.106  0.4124  1.0728  1.6669
 8995TIP3   OH248475   0.530   6.075  13.624  0.3344  0.3591 -0.0103
 8995TIP3    H148476   0.465   6.025  13.575  0.2373  0.1444  0.3340
 8995TIP3    H248477   0.610   6.070  13.572 -0.9410  3.9584 -2.4935
 8996TIP3   OH248478   0.823   5.814  14.183  0.8751  0.2791 -0.2946
 8996TIP3    H148479   0.770   5.737  14.161  0.3578  1.2648 -2.5592
 8996TIP3    H248480   0.772   5.861  14.248 -0.2290  0.3091 -1.1782
 8997TIP3   OH248481   6.610   6.409  14.755 -0.7530  0.5934  0.3102
 8997TIP3    H148482   6.544   6.447  14.812  0.0573  0.0540  1.6234
 8997TIP3    H248483   6.655   6.344  14.809 -1.1066 -1.1577 -1.4393
 8998TIP3   OH248484   6.601   0.199  15.757 -0.2567  0.5088  0.0766
 8998TIP3    H148485   6.523   0.148  15.777 -0.4908  0.6648 -0.4220
 8998TIP3    H248486   6.670   0.160  15.810 -0.5768  0.0891  0.1837
 8999TIP3   OH248487   7.190   6.518  14.610  0.3781  0.2143 -0.4168
 8999TIP3    H148488   7.237   6.446  14.653  1.6902  0.4169 -1.4648
 8999TIP3    H248489   7.223   6.517  14.520 -1.5726  0.4390 -1.1642
 9000TIP3   OH248490   1.537   6.492  15.190 -0.3080 -0.5411  0.4348
 9000TIP3    H148491   1.450   6.506  15.153  1.0689  0.4807 -2.5229
 9000TIP3    H248492   1.534   6.401  15.223 -2.2305 -0.7608 -0.2530
 9001TIP3   OH248493   0.132   5.925  12.599 -0.1270  0.5129  0.0362
 9001TIP3    H148494   0.163   5.863  12.665 -0.0387  0.7107  0.1801
 9001TIP3    H248495   0.147   5.881  12.516 -0.5141  0.1380  0.1628
 9002TIP3   OH248496   0.447   7.250  15.036  0.2245 -0.4069  0.3913
 9002TIP3    H148497   0.450   7.339  15.071  1.3546 -0.8039  1.3319
 9002TIP3    H248498   0.485   7.195  15.105  0.0652 -1.5407 -0.4029
 9003TIP3   OH248499   5.253   6.404   0.940  0.0793  0.7072  1.0936
 9003TIP3    H148500   5.179   6.370   0.991 -0.7631  0.4273 -0.2874
 9003TIP3    H248501   5.322   6.338   0.951 -1.0175 -0.7166 -0.2968
 9004TIP3   OH248502   1.002   5.892   0.373 -0.1813 -0.7975  0.2774
 9004TIP3    H148503   0.917   5.934   0.358  1.0643  2.5035  1.9731
 9004TIP3    H248504   1.039   5.882   0.286 -1.7181 -0.9622 -0.3740
 9005TIP3   OH248505   1.587   4.805  14.183 -0.3077  0.1102 -0.1374
 9005TIP3    H148506   1.677   4.797  14.152 -0.5429  0.9815 -1.1148
 9005TIP3    H248507   1.593   4.864  14.259 -0.2532  1.6615 -1.3079
 9006TIP3   OH248508   6.501   0.888   0.760 -0.3290  0.2548  0.4232
 9006TIP3    H148509   6.437   0.859   0.825 -0.4142 -1.7878 -0.5135
 9006TIP3    H248510   6.580   0.838   0.780  1.5070  3.7695  2.4393
 9007TIP3   OH248511   6.598   6.413  15.606 -0.7357 -0.1098 -0.2378
 9007TIP3    H148512   6.516   6.363  15.608 -1.7214  1.4769 -0.0549
 9007TIP3    H248513   6.623   6.414  15.514 -1.4954  0.2823 -0.4467
 9008TIP3   OH248514   0.817   6.348  14.335  0.1268 -0.2792  0.8485
 9008TIP3    H148515   0.825   6.299  14.417 -0.3378 -1.1479  0.3790
 9008TIP3    H248516   0.749   6.412  14.352  0.7384  0.2156  1.4674
 9009TIP3   OH248517   0.363   5.442  14.778 -0.5851 -0.9228 -0.4775
 9009TIP3    H148518   0.287   5.469  14.727 -0.7280  0.0388  0.2243
 9009TIP3    H248519   0.430   5.507  14.758 -0.6312 -0.5548  0.5093
 9010TIP3   OH248520   0.258   6.727  13.399 -0.0326  0.5294  0.3331
 9010TIP3    H148521   0.238   6.815  13.429 -0.0797  0.2946  1.0165
 9010TIP3    H248522   0.177   6.695  13.359  1.1163  2.2421 -3.5892
 9011TIP3   OH248523   0.005   4.892  14.510  0.1829 -0.1045 -0.3703
 9011TIP3    H148524  -0.074   4.859  14.468 -0.3026 -0.0295  0.4768
 9011TIP3    H248525   0.076   4.865  14.452 -0.5951  1.2214 -1.9653
 9012TIP3   OH248526   1.387   6.487  15.522 -0.0096 -0.2149  0.4160
 9012TIP3    H148527   1.300   6.500  15.484  0.3808 -4.0884 -2.1216
 9012TIP3    H248528   1.370   6.463  15.613 -1.3811  1.9002  0.7632
 9013TIP3   OH248529   1.252   5.990  13.968  0.1923  0.0500 -0.5376
 9013TIP3    H148530   1.275   5.902  13.936  0.6007  0.0378 -0.2174
 9013TIP3    H248531   1.287   5.993  14.057 -0.2117  0.3825 -0.3913
 9014TIP3   OH248532   0.295   4.870  14.372 -0.1898  0.5140  0.6197
 9014TIP3    H148533   0.340   4.829  14.445  1.3270 -0.5805 -0.8956
 9014TIP3    H248534   0.351   4.943  14.347  0.3363 -0.3558 -0.7573
 9015TIP3   OH248535   6.699   5.717  15.732  0.5048 -0.1417 -0.8774
 9015TIP3    H148536   6.674   5.773  15.806  1.0487 -1.5363  0.3883
 9015TIP3    H248537   6.689   5.628  15.765  0.8101 -0.7909 -2.4806
 9016TIP3   OH248538   6.386   0.799  12.640 -0.1877 -0.0997 -0.7122
 9016TIP3    H148539   6.466   0.755  12.610 -0.3678 -0.7252 -0.2954
 9016TIP3    H248540   6.383   0.880  12.590  1.0483  0.2322 -0.2629
 9017TIP3   OH248541   7.321   0.780  13.312 -0.0876 -0.3054  0.3552
 9017TIP3    H148542   7.246   0.737  13.271 -0.4950  0.1266  0.6290
 9017TIP3    H248543   7.394   0.763  13.253 -0.1424 -1.7482  0.6870
 9018TIP3   OH248544   1.783   0.754  14.023  0.0256 -0.0584 -0.1003
 9018TIP3    H148545   1.755   0.846  14.030  0.8188  0.1504  0.3053
 9018TIP3    H248546   1.724   0.706  14.081  1.3755  0.5724  1.8420
 9019TIP3   OH248547   1.548   5.568  14.276 -0.0408 -0.2379 -0.2468
 9019TIP3    H148548   1.606   5.634  14.239 -0.1020  0.0517  0.1678
 9019TIP3    H248549   1.499   5.615  14.344 -2.9826  0.3285 -2.6366
 9020TIP3   OH248550   5.632   6.546   1.282  0.3640 -0.3743 -0.5206
 9020TIP3    H148551   5.557   6.594   1.316 -0.0295 -0.6807 -0.9618
 9020TIP3    H248552   5.705   6.575   1.336  0.2551  1.2185 -1.2226
 9021TIP3   OH248553   2.557   6.856   0.472 -0.5666  0.5984  0.4277
 9021TIP3    H148554   2.645   6.819   0.486 -1.0644 -1.4042 -1.4968
 9021TIP3    H248555   2.511   6.840   0.554  0.1761 -0.3367  0.6712
 9022TIP3   OH248556   6.984   5.326   1.111 -0.4510 -0.0875  0.0663
 9022TIP3    H148557   6.911   5.295   1.165 -0.2510  0.6102  0.7590
 9022TIP3    H248558   6.962   5.299   1.022 -1.0326 -0.8174  0.4296
 9023TIP3   OH248559   1.597   6.257  14.996  1.0907  0.2094  0.1994
 9023TIP3    H148560   1.563   6.176  15.034 -0.3159  1.4496  1.6693
 9023TIP3    H248561   1.592   6.244  14.901 -0.4022 -0.9038  0.4201
 9024TIP3   OH248562   1.175   6.913  13.348  0.6947 -0.0632 -0.2446
 9024TIP3    H148563   1.234   6.921  13.423  1.7216 -3.1680 -0.6817
 9024TIP3    H248564   1.150   7.004  13.328  1.9370  0.9633  2.6016
 9025TIP3   OH248565   2.360   7.105  11.573  0.5965 -0.0472 -0.2991
 9025TIP3    H148566   2.377   7.145  11.487  0.2086 -0.3636 -0.5233
 9025TIP3    H248567   2.415   7.027  11.574 -0.5080 -0.8363 -0.8476
 9026TIP3   OH248568   2.597   7.025  15.193 -0.1411  0.1861 -0.0128
 9026TIP3    H148569   2.640   7.078  15.126  1.2669 -0.1710  0.6050
 9026TIP3    H248570   2.517   7.074  15.214  1.2652  2.2087  0.7341
 9027TIP3   OH248571   1.564   6.805  12.602 -0.7851  0.4401  0.2914
 9027TIP3    H148572   1.487   6.751  12.621  0.8003 -1.4459  1.6163
 9027TIP3    H248573   1.551   6.834  12.513 -2.1748 -1.3953 -0.1476
 9028TIP3   OH248574   0.856   5.438  15.368  0.3701 -0.6841  0.0107
 9028TIP3    H148575   0.904   5.520  15.381  2.1632 -1.9843  1.7843
 9028TIP3    H248576   0.901   5.395  15.297  0.7014 -1.0589  0.4453
 9029TIP3   OH248577   7.279   6.786  13.343 -0.1319  0.4859  0.3651
 9029TIP3    H148578   7.240   6.818  13.424 -2.6532 -1.1535 -0.1414
 9029TIP3    H248579   7.303   6.695  13.362  0.0963  0.3726 -0.4341
 9030TIP3   OH248580   6.123   1.261  13.352 -0.3737 -0.7252  0.0112
 9030TIP3    H148581   6.191   1.212  13.398 -1.8168 -1.9359  0.9202
 9030TIP3    H248582   6.052   1.198  13.340 -0.8583  0.1689 -2.0210
 9031TIP3   OH248583   1.159   0.502  15.783 -0.1646  0.3852  0.0093
 9031TIP3    H148584   1.135   0.435  15.719 -1.7993  1.0759 -0.1269
 9031TIP3    H248585   1.227   0.461  15.836  0.7259 -0.4323 -1.7347
 9032TIP3   OH248586   6.704   1.782  13.460 -0.3951  0.0780  0.4762
 9032TIP3    H148587   6.665   1.695  13.451 -0.4327  0.1236  0.2050
 9032TIP3    H248588   6.742   1.800  13.375 -1.4747  0.8568  0.1458
 9033TIP3   OH248589   5.128   1.530   0.117  0.2968 -0.7373 -0.2634
 9033TIP3    H148590   5.214   1.489   0.133  0.2793 -0.6093  0.1671
 9033TIP3    H248591   5.095   1.550   0.205 -0.9432 -2.3473 -0.3442
 9034TIP3   OH248592   1.469   5.873  14.209  0.1756 -0.3211 -0.4178
 9034TIP3    H148593   1.458   5.932  14.284  0.8320 -0.6491 -0.0522
 9034TIP3    H248594   1.391   5.818  14.211 -0.1057  0.0763 -0.3411
 9035TIP3   OH248595   0.522   5.414  15.188  0.6839  0.4233 -0.0581
 9035TIP3    H148596   0.580   5.448  15.257  2.2435 -0.7233 -0.7845
 9035TIP3    H248597   0.567   5.336  15.155 -1.7654 -1.0757  0.0523
 9036TIP3   OH248598   0.650   5.511  13.947 -0.0997  0.0776 -0.0540
 9036TIP3    H148599   0.680   5.471  14.029  2.0339 -1.1028 -1.3714
 9036TIP3    H248600   0.557   5.490  13.943  0.1482 -1.3578  1.2157
 9037TIP3   OH248601   0.310   1.622  14.899 -0.2056  0.3425  0.7282
 9037TIP3    H148602   0.366   1.637  14.975  0.9511  1.6600 -0.3555
 9037TIP3    H248603   0.362   1.568  14.840 -1.0346 -0.5250  0.7713
 9038TIP3   OH248604   1.962   6.834  12.458  0.2962 -0.3227 -0.1215
 9038TIP3    H148605   2.051   6.867  12.473  0.5194 -1.4515  1.1372
 9038TIP3    H248606   1.934   6.878  12.378  2.0162 -0.0115 -0.5901
 9039TIP3   OH248607   0.376   6.462  14.828 -0.4354 -0.0460 -0.1327
 9039TIP3    H148608   0.470   6.478  14.824 -0.4427  0.6630  2.0082
 9039TIP3    H248609   0.341   6.504  14.749  1.0881 -0.7568 -1.1960
 9040TIP3   OH248610   2.528   0.845  14.552  0.0119  0.0425 -0.7423
 9040TIP3    H148611   2.558   0.777  14.613  0.2033  1.2761  0.5437
 9040TIP3    H248612   2.609   0.886  14.521 -0.1773  0.7342 -0.3115
 9041TIP3   OH248613   1.265   6.459  14.933  0.1514 -0.3771  0.6424
 9041TIP3    H148614   1.310   6.413  14.863 -0.1432 -0.3073  0.4057
 9041TIP3    H248615   1.303   6.547  14.933  1.3368 -0.8755  1.6679
 9042TIP3   OH248616   0.166   5.328  13.968  0.7416 -0.2403  0.6651
 9042TIP3    H148617   0.125   5.243  13.949  0.0420  0.1100  0.6169
 9042TIP3    H248618   0.115   5.363  14.041  0.8846  0.2513  0.5292
 9043TIP3   OH248619   0.676   6.266   0.944 -0.1222 -0.1759 -0.0739
 9043TIP3    H148620   0.614   6.254   1.016 -0.0856 -1.1018 -0.1941
 9043TIP3    H248621   0.759   6.283   0.988 -0.4955  1.2482  0.0858
 9044TIP3   OH248622   2.452   6.846   1.779 -0.2326  0.2357 -0.0905
 9044TIP3    H148623   2.359   6.868   1.771 -0.3789 -0.5903 -0.7479
 9044TIP3    H248624   2.498   6.929   1.763 -0.7770  0.1159 -2.4722
 9045TIP3   OH248625   1.158   1.899   0.310 -0.2954  0.0044 -0.3691
 9045TIP3    H148626   1.142   1.991   0.291  1.6187  0.2742 -0.7156
 9045TIP3    H248627   1.140   1.855   0.227 -2.1526 -0.0834  0.0455
 9046TIP3   OH248628   7.201   0.446  14.169 -0.3352  0.1839 -0.1235
 9046TIP3    H148629   7.185   0.520  14.228 -2.6296 -1.2374  1.1196
 9046TIP3    H248630   7.139   0.458  14.098  0.9008  0.6824 -1.1415
 9047TIP3   OH248631   6.957   6.757  14.861  0.1000 -0.3342  0.3058
 9047TIP3    H148632   6.975   6.752  14.767  0.4959 -1.7267  0.4468
 9047TIP3    H248633   7.007   6.685  14.899  0.4941  0.6455  1.6754
 9048TIP3   OH248634   6.829   7.034  14.696  0.0901 -0.3266  0.7146
 9048TIP3    H148635   6.840   7.086  14.616 -1.0487 -0.9734  0.1214
 9048TIP3    H248636   6.770   6.963  14.670 -0.6569 -0.2839  2.2600
 9049TIP3   OH248637   0.013   2.335  14.315 -0.0020 -0.1137  0.3090
 9049TIP3    H148638   0.009   2.240  14.326 -1.7658 -0.4202 -2.4150
 9049TIP3    H248639   0.107   2.356  14.319  0.4217 -1.9953  0.6490
 9050TIP3   OH248640   6.874   6.581   0.642 -0.2613  0.4346  0.3389
 9050TIP3    H148641   6.792   6.624   0.666 -2.0127 -3.3105  1.4267
 9050TIP3    H248642   6.846   6.500   0.598  2.8810  0.8188 -2.5117
 9051TIP3   OH248643   0.935   5.641  14.625 -0.0193 -0.2645  0.2389
 9051TIP3    H148644   0.973   5.571  14.677  1.0152  0.4179  0.4172
 9051TIP3    H248645   1.003   5.664  14.562 -0.3839  0.4891  0.1105
 9052TIP3   OH248646   5.075   0.864  14.529  0.2377 -0.2170 -0.2192
 9052TIP3    H148647   5.163   0.902  14.534  0.3400 -0.6624  1.8142
 9052TIP3    H248648   5.018   0.937  14.505  0.8230  0.6134  0.8856
 9053TIP3   OH248649   1.345   6.259  14.211 -0.3552  0.0797 -0.1038
 9053TIP3    H148650   1.291   6.336  14.229 -2.2856 -1.1385 -0.5986
 9053TIP3    H248651   1.379   6.274  14.123 -1.3415  0.0193 -0.4995
 9054TIP3   OH248652   1.422   1.126  14.438  0.1890  0.7313 -0.0222
 9054TIP3    H148653   1.410   1.095  14.528 -1.5445  1.7096  0.1012
 9054TIP3    H248654   1.411   1.047  14.385 -1.6736  0.6621  0.4456
 9055TIP3   OH248655   3.438   5.913  15.589  0.3247 -0.1832 -0.2463
 9055TIP3    H148656   3.415   5.823  15.566  1.8891 -0.6601  0.0058
 9055TIP3    H248657   3.515   5.905  15.646  2.5229  1.4091 -2.8461
 9056TIP3   OH248658   0.845   0.683  12.532 -0.3738  0.2423 -0.1806
 9056TIP3    H148659   0.911   0.634  12.582  0.7495  1.3848 -0.5072
 9056TIP3    H248660   0.883   0.691  12.445 -0.5703  1.6566 -0.1365
 9057TIP3   OH248661   1.018   5.679  13.653  0.5709  0.0855 -0.3564
 9057TIP3    H148662   0.942   5.631  13.686  1.3187 -0.9389 -0.1183
 9057TIP3    H248663   1.083   5.612  13.633  1.3538  0.9387 -0.7356
 9058TIP3   OH248664   0.952   4.528  13.463  0.2083 -0.4332  0.5667
 9058TIP3    H148665   0.881   4.468  13.440  0.7782 -0.1901 -1.8674
 9058TIP3    H248666   0.910   4.613  13.470  0.4290 -0.0731 -2.0900
 9059TIP3   OH248667   1.085   4.933   0.044  0.1294  0.1349  0.3886
 9059TIP3    H148668   1.006   4.933   0.099 -0.3974  2.4747 -0.3317
 9059TIP3    H248669   1.147   4.989   0.091  0.7109 -0.2065  0.0346
 9060TIP3   OH248670   7.092   5.750   0.342 -0.0780 -0.2784  0.1541
 9060TIP3    H148671   7.163   5.804   0.307 -1.3533  0.2249 -1.7121
 9060TIP3    H248672   7.045   5.807   0.403  1.7522 -0.9579  2.2846
 9061TIP3   OH248673   6.391   0.282  14.553 -0.3756  0.6008  0.0773
 9061TIP3    H148674   6.389   0.190  14.526  0.8687  0.7099 -0.4534
 9061TIP3    H248675   6.306   0.318  14.525  0.0374  0.1691 -1.7955
 9062TIP3   OH248676   2.713   6.482   0.916 -0.7742 -0.0917  0.7553
 9062TIP3    H148677   2.680   6.409   0.863  0.0991 -0.3986  0.6186
 9062TIP3    H248678   2.659   6.557   0.891  0.9521  0.2639 -2.1190
 9063TIP3   OH248679   0.326   4.860   1.340  0.1159 -0.5645  0.0249
 9063TIP3    H148680   0.395   4.877   1.275 -0.6937 -0.1139 -0.7236
 9063TIP3    H248681   0.295   4.772   1.321  0.9648 -1.0476  0.8194
 9064TIP3   OH248682   1.624   6.012  14.002 -0.0306  0.1743 -0.4392
 9064TIP3    H148683   1.567   5.987  14.075  0.7844  1.4882  0.6844
 9064TIP3    H248684   1.566   6.016  13.926 -1.3128  0.8532  0.5567
 9065TIP3   OH248685   2.039   4.590  14.267 -0.1001 -0.0470  0.6741
 9065TIP3    H148686   1.989   4.671  14.274  0.6544  0.4927 -0.1728
 9065TIP3    H248687   1.977   4.527  14.229  0.1602  0.9094 -1.4099
 9066TIP3   OH248688   6.500   6.066  12.685 -0.3366  0.2848  0.2417
 9066TIP3    H148689   6.473   6.074  12.594  1.1515 -1.0001 -0.3370
 9066TIP3    H248690   6.538   6.151  12.707 -1.8642  1.0316  0.0817
 9067TIP3   OH248691   0.743   5.501  14.263 -0.0047 -0.2055 -0.7390
 9067TIP3    H148692   0.717   5.556  14.337  0.2151 -0.7419 -0.2547
 9067TIP3    H248693   0.796   5.432  14.303  0.7278 -0.0801 -1.4971
 9068TIP3   OH248694   1.732   4.067  14.049 -0.0760  0.0279  0.2837
 9068TIP3    H148695   1.641   4.097  14.052  0.1733  0.7103  1.4705
 9068TIP3    H248696   1.766   4.101  13.966 -1.3000 -1.4136 -0.8216
 9069TIP3   OH248697   7.168   5.156  15.561  0.4910 -0.3677  0.2377
 9069TIP3    H148698   7.209   5.211  15.627  0.7065 -0.7570  0.4289
 9069TIP3    H248699   7.220   5.170  15.482  1.3837 -1.3469  0.6471
 9070TIP3   OH248700   6.312   6.742   1.991 -0.1626 -0.3730  0.0347
 9070TIP3    H148701   6.381   6.769   1.930 -0.8691  3.7212  0.9052
 9070TIP3    H248702   6.355   6.740   2.077 -0.7559  0.7612  0.3681
 9071TIP3   OH248703   7.077   6.464  11.894  0.8183 -0.2845 -0.1294
 9071TIP3    H148704   7.054   6.451  11.986  1.8605 -1.1694  0.0235
 9071TIP3    H248705   6.997   6.443  11.845  0.6914 -1.3005  0.4964
 9072TIP3   OH248706   6.825   5.197   1.357  0.4332 -0.0356  0.2166
 9072TIP3    H148707   6.783   5.111   1.347 -0.2720  0.0329  2.3712
 9072TIP3    H248708   6.755   5.260   1.342  0.9932  0.2094 -1.5567
 9073TIP3   OH248709   2.546   4.238  14.552  0.4900  0.4656 -0.2140
 9073TIP3    H148710   2.465   4.246  14.602  1.1017  0.0812  0.8434
 9073TIP3    H248711   2.518   4.241  14.460 -0.8777 -1.2919  0.1278
 9074TIP3   OH248712   7.004   6.999  13.386 -0.1682 -0.3365 -0.2113
 9074TIP3    H148713   7.065   6.945  13.435 -0.7689 -2.5040 -1.7718
 9074TIP3    H248714   6.938   7.026  13.449  0.4560 -0.9559  0.7079
 9075TIP3   OH248715   1.729   7.205  14.008  0.2763  0.3249  0.1539
 9075TIP3    H148716   1.781   7.139  13.962 -0.1475 -0.3760  0.6730
 9075TIP3    H248717   1.659   7.228  13.947 -0.3228 -0.6504  0.4773
 9076TIP3   OH248718   0.090   0.744  14.803  0.8958 -0.6012  0.4347
 9076TIP3    H148719   0.000   0.748  14.837  0.5982 -0.0791 -0.3832
 9076TIP3    H248720   0.110   0.835  14.779  2.0897 -0.5218  1.7358
 9077TIP3   OH248721   1.169   5.936  15.382  0.4442  0.7629 -0.3853
 9077TIP3    H148722   1.094   5.928  15.323  0.2586 -1.8930  0.1294
 9077TIP3    H248723   1.131   5.946  15.469  0.6897  1.3771 -0.3493
 9078TIP3   OH248724   1.397   0.396  15.303  0.4959 -0.4307 -0.0398
 9078TIP3    H148725   1.492   0.395  15.291  0.4885  0.2351 -0.1825
 9078TIP3    H248726   1.364   0.453  15.233  0.0715  0.0747  0.5651
 9079TIP3   OH248727   5.271   7.012   1.490  0.5880  0.8204  0.1925
 9079TIP3    H148728   5.334   7.029   1.421  1.9419 -1.4251  0.8157
 9079TIP3    H248729   5.323   6.979   1.563 -1.4313 -3.2427 -0.0350
 9080TIP3   OH248730   6.856   1.252  14.723 -0.1196 -0.1478  0.1354
 9080TIP3    H148731   6.923   1.320  14.731 -0.1559 -0.3213  2.1924
 9080TIP3    H248732   6.777   1.299  14.699 -0.0738  0.5306  1.2576
 9081TIP3   OH248733   1.004   0.042  13.022 -0.5287 -0.0053  0.1177
 9081TIP3    H148734   0.987   0.136  13.019 -0.4450 -0.0078 -0.6204
 9081TIP3    H248735   0.955   0.011  13.098 -0.8813  0.5691  0.1301
 9082TIP3   OH248736   2.722   6.858   0.012  0.4645  0.3796 -0.4538
 9082TIP3    H148737   2.676   6.932   0.051 -0.0257  0.3843 -1.0416
 9082TIP3    H248738   2.739   6.884  -0.078  2.3047  0.6911 -0.0448
 9083TIP3   OH248739   6.177   7.285  15.162  0.0675 -0.0031  0.3802
 9083TIP3    H148740   6.196   7.218  15.097 -0.9332  1.7004 -1.7015
 9083TIP3    H248741   6.157   7.236  15.242 -0.9251 -2.1879 -1.1742
 9084TIP3   OH248742   6.909   7.019   0.106  0.0591  0.1625  0.3774
 9084TIP3    H148743   6.922   6.978   0.021  2.0405 -1.5863  1.4927
 9084TIP3    H248744   6.956   7.103   0.100  0.8580 -0.3083  0.0027
 9085TIP3   OH248745   2.204   6.849  14.872  0.1623  0.5982  0.1503
 9085TIP3    H148746   2.281   6.810  14.830 -0.4392 -0.8561  0.3786
 9085TIP3    H248747   2.199   6.808  14.958 -0.9999  0.4879  0.0492
 9086TIP3   OH248748   6.871   6.323  13.402 -0.3051 -0.1554 -0.0261
 9086TIP3    H148749   6.884   6.249  13.342 -0.4096 -1.6958  1.8200
 9086TIP3    H248750   6.959   6.343  13.434 -0.5236 -0.7948  0.9957
 9087TIP3   OH248751   1.883   1.152  15.709  0.0160  0.0667  0.2071
 9087TIP3    H148752   1.924   1.065  15.708  0.3769  0.2012  1.7553
 9087TIP3    H248753   1.943   1.206  15.759 -0.6109  1.0189 -0.0562
 9088TIP3   OH248754   0.494   7.050  14.862 -0.2626  0.0750  0.1670
 9088TIP3    H148755   0.457   7.129  14.901 -0.3655 -1.0207  2.3805
 9088TIP3    H248756   0.567   7.027  14.919  1.1080 -0.2423 -1.6767
 9089TIP3   OH248757   1.365   0.133  15.092  0.1597  0.3087  0.4274
 9089TIP3    H148758   1.305   0.205  15.069  0.6613  1.5663  2.8461
 9089TIP3    H248759   1.424   0.172  15.156  0.9768 -2.0695  1.1418
 9090TIP3   OH248760   0.707   7.093  14.284 -0.0427 -0.4970  0.0692
 9090TIP3    H148761   0.713   7.052  14.370 -0.7177  2.1376  1.4540
 9090TIP3    H248762   0.616   7.123  14.278 -0.0598 -0.8546 -1.6652
 9091TIP3   OH248763   2.426   2.081  13.866 -0.3652 -0.2870 -0.4458
 9091TIP3    H148764   2.447   1.994  13.898 -1.4901 -1.4646 -2.7931
 9091TIP3    H248765   2.468   2.085  13.780  1.0272  2.0875  0.3044
 9092TIP3   OH248766   0.638   1.866  15.115 -0.0381  0.0818  0.2954
 9092TIP3    H148767   0.714   1.810  15.105  0.5207  1.0364 -0.8810
 9092TIP3    H248768   0.644   1.930  15.044 -1.6004  0.5539  0.5426
 9093TIP3   OH248769   5.623   4.041   1.569  0.4602  0.1019  0.2749
 9093TIP3    H148770   5.547   4.036   1.511 -1.0939  1.3634  2.1206
 9093TIP3    H248771   5.612   3.968   1.630  0.6041  0.3889  0.6529
 9094TIP3   OH248772   1.410   0.478  15.049  0.8690  0.0718 -0.0281
 9094TIP3    H148773   1.340   0.421  15.017  0.2032  0.1897  1.1564
 9094TIP3    H248774   1.466   0.493  14.973  0.4736 -1.3075 -0.6141
 9095TIP3   OH248775   7.104   7.212   0.089  0.3637 -0.3927 -0.3353
 9095TIP3    H148776   7.102   7.304   0.113 -1.1558 -0.7287  0.9341
 9095TIP3    H248777   7.194   7.184   0.104 -0.0807 -0.1037  3.1799
 9096TIP3   OH248778   0.372   0.867  14.542 -0.2862  0.6148 -0.0308
 9096TIP3    H148779   0.388   0.779  14.507  0.5708  0.3025  1.0960
 9096TIP3    H248780   0.277   0.876  14.542 -0.3825 -0.2944 -0.2114
 9097TIP3   OH248781   0.372   0.823  15.359 -0.0679  0.3668 -0.5539
 9097TIP3    H148782   0.358   0.862  15.445 -0.3806  1.2232 -0.9918
 9097TIP3    H248783   0.396   0.732  15.378  1.5680  0.9905  0.5025
 9098TIP3   OH248784   6.660   0.633  13.588 -0.4471  0.1758  0.0112
 9098TIP3    H148785   6.754   0.645  13.577 -0.7791  0.9495 -2.1373
 9098TIP3    H248786   6.639   0.678  13.670  1.2512 -1.1696  1.2281
 9099TIP3   OH248787   6.924   5.972  14.738  0.1452 -0.2214  0.1642
 9099TIP3    H148788   6.831   5.987  14.756  0.2177  1.1487 -0.5721
 9099TIP3    H248789   6.963   6.060  14.734  1.3812 -0.7628 -0.0402
 9100TIP3   OH248790   2.005   6.816  14.673 -0.7729  0.5577 -0.0804
 9100TIP3    H148791   2.033   6.792  14.761 -2.9353 -1.4595  0.0959
 9100TIP3    H248792   1.982   6.908  14.679 -0.5282  0.5313  1.3669
 9101TIP3   OH248793   6.249   1.369  13.947  0.3809 -0.0544  0.4374
 9101TIP3    H148794   6.227   1.403  14.034  0.3349  1.7151 -0.2542
 9101TIP3    H248795   6.296   1.440  13.905  0.9873 -1.1536 -0.7620
 9102TIP3   OH248796   7.078   6.088  13.621  0.0239  0.3642  0.6673
 9102TIP3    H148797   7.163   6.111  13.660  0.2885  1.7533 -0.6592
 9102TIP3    H248798   7.052   6.166  13.572 -1.0107 -0.7879 -0.6854
 9103TIP3   OH248799   0.089   7.048  14.653  0.0678  0.5246  0.4337
 9103TIP3    H148800   0.046   7.122  14.610 -1.0299  0.6437  1.7294
 9103TIP3    H248801   0.177   7.047  14.615 -0.3176  1.6933 -0.5395
 9104TIP3   OH248802   1.658   2.552  14.925 -0.0988 -0.0458 -0.1002
 9104TIP3    H148803   1.657   2.551  14.830  1.2489  1.2112 -0.1440
 9104TIP3    H248804   1.580   2.601  14.950  1.0000  2.0108 -0.6368
 9105TIP3   OH248805   1.053   6.442  13.864 -0.2200 -1.2981 -0.6310
 9105TIP3    H148806   1.057   6.358  13.819  3.5109 -1.8238  0.5829
 9105TIP3    H248807   1.053   6.420  13.957  0.7375  0.0561 -0.3040
 9106TIP3   OH248808   3.116   4.881  15.024 -0.0277  0.0236  0.4816
 9106TIP3    H148809   3.164   4.911  15.101  0.8160 -0.4692  0.1534
 9106TIP3    H248810   3.076   4.799  15.052 -0.9727  0.6039  0.8599
 9107TIP3   OH248811   2.105   3.654  14.385  0.0392  0.7338 -0.1805
 9107TIP3    H148812   2.171   3.707  14.341  0.1784  0.5683 -0.1725
 9107TIP3    H248813   2.146   3.568  14.395 -0.5773  0.3275 -1.1257
 9108TIP3   OH248814   1.340   5.352  13.605  0.2655  0.3188  0.2588
 9108TIP3    H148815   1.256   5.376  13.644 -0.8042 -1.2212 -1.0389
 9108TIP3    H248816   1.405   5.373  13.673 -1.3003  0.1021  1.8442
 9109TIP3   OH248817   6.203   0.960  14.067  0.4679 -0.2275 -0.1322
 9109TIP3    H148818   6.250   1.015  14.004  2.1852  0.2170  1.4962
 9109TIP3    H248819   6.185   1.019  14.140  0.2557 -1.2513  0.6414
 9110TIP3   OH248820   6.400   1.413  15.026  0.0477 -0.0419  0.3746
 9110TIP3    H148821   6.371   1.489  14.976 -0.1129 -0.9533 -0.9374
 9110TIP3    H248822   6.343   1.342  14.998  1.7603 -1.2192 -0.2352
 9111TIP3   OH248823   1.250   4.292  15.359  0.5752  0.2235 -0.6852
 9111TIP3    H148824   1.316   4.303  15.291 -1.2428  1.4075 -2.3138
 9111TIP3    H248825   1.230   4.381  15.388  2.8695 -0.3413  3.0143
 9112TIP3   OH248826   5.095   0.459  15.976 -0.5379 -0.4743 -0.8106
 9112TIP3    H148827   5.137   0.426  16.056 -1.4628  1.4289  0.4717
 9112TIP3    H248828   5.140   0.541  15.957 -1.7251  0.1220 -1.0803
 9113TIP3   OH248829   6.651   1.725   0.482  0.0771  0.6878 -0.3275
 9113TIP3    H148830   6.574   1.711   0.537  0.0050  0.4261 -0.4926
 9113TIP3    H248831   6.705   1.787   0.531 -0.7675  1.7551 -0.7251
 9114TIP3   OH248832   6.001   6.886  13.219  0.3666  0.1020  0.6786
 9114TIP3    H148833   6.010   6.970  13.265  1.4829 -0.4698  1.5426
 9114TIP3    H248834   6.009   6.908  13.126  1.2425  0.8893  0.9339
 9115TIP3   OH248835   0.402   1.296  15.011 -0.2429  0.0254 -0.0640
 9115TIP3    H148836   0.383   1.385  14.980  2.3600  0.8432  0.5125
 9115TIP3    H248837   0.462   1.309  15.085 -0.8457 -2.1675  0.8445
 9116TIP3   OH248838   1.685   0.585  14.198  0.1477 -0.1404  0.4791
 9116TIP3    H148839   1.717   0.495  14.197 -0.0177 -0.1992  0.5063
 9116TIP3    H248840   1.617   0.585  14.266  1.1112  0.3284  1.4567
 9117TIP3   OH248841   7.272   3.923  13.343  0.1339  0.4728 -0.3178
 9117TIP3    H148842   7.233   3.945  13.258 -0.0531 -0.1304 -0.3931
 9117TIP3    H248843   7.228   3.842  13.369  0.5092  0.4181  0.1516
 9118TIP3   OH248844   0.769   4.823  14.351  0.4253 -0.0313 -0.2414
 9118TIP3    H148845   0.795   4.769  14.425  0.8198 -2.2010 -1.9211
 9118TIP3    H248846   0.852   4.852  14.312  0.2197  1.1855  0.1943
 9119TIP3   OH248847   5.896   0.807   0.230  0.0216  0.2358  0.2997
 9119TIP3    H148848   5.879   0.899   0.210 -0.4458 -0.1219 -0.9844
 9119TIP3    H248849   5.889   0.802   0.326  2.8662  2.0610  0.6519
 9120TIP3   OH248850   0.033   6.875  12.764 -0.5215 -0.3406 -0.2739
 9120TIP3    H148851   0.040   6.905  12.854 -0.1895 -0.6372 -0.2019
 9120TIP3    H248852   0.088   6.936  12.714  0.7731 -1.2772 -0.0243
 9121TIP3   OH248853   1.742   6.236   0.122  0.2737  0.2529 -0.5801
 9121TIP3    H148854   1.760   6.266   0.212  0.4495 -0.8715 -0.2393
 9121TIP3    H248855   1.829   6.220   0.085  0.1858  0.3727 -0.8356
 9122TIP3   OH248856   0.483   3.757  14.070 -0.1336 -0.2667 -0.1680
 9122TIP3    H148857   0.476   3.721  13.982  2.8155  1.7670 -1.2747
 9122TIP3    H248858   0.426   3.834  14.069  2.5600  1.7466 -1.3932
 9123TIP3   OH248859   6.978   0.001  13.817 -0.1958 -0.0051  0.6312
 9123TIP3    H148860   6.947  -0.074  13.767  0.0494  0.2645  0.0755
 9123TIP3    H248861   6.919   0.072  13.792  0.3317  0.2951  0.2195
 9124TIP3   OH248862   5.124   4.444  13.910 -0.2948 -0.2578  0.2537
 9124TIP3    H148863   5.109   4.418  14.001  1.5397 -1.4744  0.2481
 9124TIP3    H248864   5.114   4.539  13.911 -1.1706 -0.3456  1.5442
 9125TIP3   OH248865   1.849   7.107  14.526  0.9660  0.3489  0.4784
 9125TIP3    H148866   1.939   7.139  14.535  0.4528  1.0941  3.3632
 9125TIP3    H248867   1.801   7.180  14.486  1.5926  0.0131 -0.9049
 9126TIP3   OH248868   0.794   5.202   1.961  0.1506  0.2640  0.0196
 9126TIP3    H148869   0.705   5.234   1.976  0.1897  0.3846 -0.0052
 9126TIP3    H248870   0.823   5.247   1.882  0.2410  0.2422  0.0402
 9127TIP3   OH248871   3.876   4.633  11.467 -0.1331  0.0529 -0.3144
 9127TIP3    H148872   3.789   4.595  11.481 -0.0265  0.6196  2.1544
 9127TIP3    H248873   3.893   4.620  11.374 -1.2280 -3.4893 -0.0815
 9128TIP3   OH248874   0.984   5.965  15.199 -0.7932  0.0173  0.0272
 9128TIP3    H148875   0.914   5.958  15.264 -2.0120 -0.2177 -1.2643
 9128TIP3    H248876   0.947   6.020  15.130  0.2031 -0.3324 -0.7993
 9129TIP3   OH248877   0.169   4.257  15.147  0.3338  0.1445 -0.5477
 9129TIP3    H148878   0.105   4.328  15.152 -0.1287 -0.3110  0.0663
 9129TIP3    H248879   0.253   4.300  15.163  0.1709  0.7084 -1.1283
 9130TIP3   OH248880   1.028   2.023  14.863 -0.4198 -0.2427  0.3428
 9130TIP3    H148881   1.121   2.041  14.846 -0.1906  0.3304  2.0902
 9130TIP3    H248882   1.015   1.933  14.833  0.4453  0.0240 -0.8675
 9131TIP3   OH248883   7.090   2.942  14.861 -1.0350  0.0156 -0.5053
 9131TIP3    H148884   7.057   2.878  14.924  0.4649 -1.1935 -0.9366
 9131TIP3    H248885   7.019   2.951  14.797 -0.6091 -2.5151 -1.3866
 9132TIP3   OH248886   2.696   5.261  14.501 -0.3104  0.4558 -0.2946
 9132TIP3    H148887   2.603   5.279  14.516 -0.7789 -0.9951 -1.3681
 9132TIP3    H248888   2.723   5.326  14.436 -0.9945 -0.1475 -1.1915
 9133TIP3   OH248889   0.046   6.428  14.087 -0.1715  0.3112 -0.3519
 9133TIP3    H148890   0.011   6.487  14.021  0.5077  0.6100 -0.4478
 9133TIP3    H248891   0.126   6.392  14.049 -1.2921 -1.7607 -0.8594
 9134TIP3   OH248892   1.020   5.568  14.136  0.3147  0.0822 -0.0180
 9134TIP3    H148893   0.964   5.494  14.112 -1.9824  1.3923  1.1766
 9134TIP3    H248894   0.967   5.645  14.116  1.7501  1.3602  1.0413
 9135TIP3   OH248895   0.049   4.473  15.237  0.0770 -0.0304 -0.1173
 9135TIP3    H148896   0.033   4.410  15.307 -0.6550  0.7372  0.4122
 9135TIP3    H248897   0.008   4.554  15.267  1.2026  0.7655 -0.6905
 9136TIP3   OH248898   6.518   6.852   0.373 -0.5484  0.1849 -0.2466
 9136TIP3    H148899   6.470   6.849   0.291 -1.2359  5.2857 -0.2387
 9136TIP3    H248900   6.610   6.850   0.348 -0.7635  0.9816 -1.1425
 9137TIP3   OH248901   6.094   7.223   0.961  0.3468  0.0518  0.3416
 9137TIP3    H148902   6.065   7.313   0.976  0.2925 -0.1366  1.4151
 9137TIP3    H248903   6.190   7.230   0.957  0.4820 -0.1118  2.5120
 9138TIP3   OH248904   6.446   5.997   0.124 -0.0655 -0.0553  1.0499
 9138TIP3    H148905   6.475   5.917   0.080  0.3050  0.4759  0.3297
 9138TIP3    H248906   6.352   5.999   0.109  0.0570  0.1119  0.3093
 9139TIP3   OH248907   6.381   0.791   0.984 -0.7647 -0.4822  0.5276
 9139TIP3    H148908   6.411   0.722   1.044 -0.1218 -1.2289 -0.6295
 9139TIP3    H248909   6.378   0.870   1.037  1.9189 -0.6786  1.0242
 9140TIP3   OH248910   2.289   5.578  14.784 -0.0783  0.3025  0.3800
 9140TIP3    H148911   2.208   5.528  14.775 -0.6227  1.1169  0.6698
 9140TIP3    H248912   2.279   5.624  14.867  0.4111  0.9026  0.1081
 9141TIP3   OH248913   2.608   2.536  14.544  1.0719  0.0041 -0.2574
 9141TIP3    H148914   2.612   2.631  14.535 -1.9096  0.1565 -0.4062
 9141TIP3    H248915   2.518   2.518  14.573  1.5753 -2.7673 -0.2722
 9142TIP3   OH248916   5.541   0.952  15.765  0.3596  0.6448  0.1609
 9142TIP3    H148917   5.597   1.006  15.709 -0.2352  0.5429 -0.5501
 9142TIP3    H248918   5.484   1.015  15.809 -1.4387  0.5291 -1.8986
 9143TIP3   OH248919   2.364   0.141  15.804 -0.1862 -0.3511  0.1712
 9143TIP3    H148920   2.432   0.126  15.871 -0.3737 -1.4699  0.1248
 9143TIP3    H248921   2.353   0.236  15.801  1.3303 -0.1670  0.2318
 9144TIP3   OH248922   0.650   0.585  14.298 -0.0655 -0.7203 -0.0080
 9144TIP3    H148923   0.631   0.535  14.377  2.5023 -1.0768  0.3962
 9144TIP3    H248924   0.657   0.520  14.228 -2.5313 -0.3921 -0.6422
 9145TIP3   OH248925   2.381   4.858  14.974 -0.3104  0.2892 -0.3538
 9145TIP3    H148926   2.408   4.921  15.041 -2.4073  0.7265  0.1091
 9145TIP3    H248927   2.417   4.775  15.004 -1.1964  0.4890  1.3175
 9146TIP3   OH248928   2.985   0.633  15.694  0.6781  0.2984 -0.2264
 9146TIP3    H148929   3.012   0.704  15.751  2.3238 -0.3402 -0.1591
 9146TIP3    H248930   2.963   0.675  15.611  0.2401  1.0214  0.2559
 9147TIP3   OH248931   3.366   0.349  14.842 -0.6176  0.6716  0.4094
 9147TIP3    H148932   3.304   0.280  14.865 -1.0411  1.2312  0.9828
 9147TIP3    H248933   3.332   0.427  14.886  1.7195  0.5185  2.5792
 9148TIP3   OH248934   1.545   4.690  10.447  0.3668 -0.0337  0.5281
 9148TIP3    H148935   1.620   4.717  10.395  0.1247  0.5234  0.4661
 9148TIP3    H248936   1.580   4.630  10.512  1.0529  1.1137  1.2355
 9149TIP3   OH248937   1.214   6.543  12.653 -0.0197  0.0685 -0.0265
 9149TIP3    H148938   1.218   6.606  12.725  0.4859 -1.0963  0.9951
 9149TIP3    H248939   1.227   6.595  12.574 -1.8605  1.5516  0.6178
 9150TIP3   OH248940   1.575   6.861  14.524 -0.0098  0.1226  0.6922
 9150TIP3    H148941   1.657   6.813  14.538  0.0045  0.6143  2.4696
 9150TIP3    H248942   1.552   6.843  14.433  0.9968 -1.7056  0.7622
 9151TIP3   OH248943   0.155   0.304  14.981  0.3544 -0.9387  0.0969
 9151TIP3    H148944   0.193   0.392  14.983  3.0823 -2.0435 -0.5517
 9151TIP3    H248945   0.150   0.277  15.072 -0.4991 -0.1254  0.2978
 9152TIP3   OH248946   3.387   6.962   2.032 -0.2894 -0.4212  0.0240
 9152TIP3    H148947   3.386   6.894   1.964 -0.2961 -1.2832  0.8613
 9152TIP3    H248948   3.295   6.974   2.055 -0.3798  0.6343 -0.8502
 9153TIP3   OH248949   0.581   6.572  15.922  0.0401  0.2787 -0.4194
 9153TIP3    H148950   0.633   6.607  15.994 -0.0671  0.2817 -0.3440
 9153TIP3    H248951   0.555   6.649  15.871 -0.2781  0.3223 -0.1973
 9154TIP3   OH248952   2.552   6.020  13.988 -0.6226 -0.2552  0.3236
 9154TIP3    H148953   2.632   6.003  14.039 -0.5973  0.2548  0.4565
 9154TIP3    H248954   2.583   6.032  13.898 -0.5340  0.0766  0.3986
 9155TIP3   OH248955   2.596   5.170  14.855 -0.0468 -0.3687  0.1845
 9155TIP3    H148956   2.579   5.261  14.831  2.6057  0.5261  1.4918
 9155TIP3    H248957   2.573   5.165  14.947 -2.7451 -1.7757 -0.5135
 9156TIP3   OH248958   0.440   7.322  13.396  0.9638 -0.7583 -0.2914
 9156TIP3    H148959   0.367   7.303  13.455  1.3058 -0.2980  0.2911
 9156TIP3    H248960   0.420   7.409  13.362  1.4089 -0.4968  0.1205
 9157TIP3   OH248961   1.356   6.999  15.946 -0.0789  0.2076  0.3262
 9157TIP3    H148962   1.432   7.026  15.893  0.3746  0.1926  0.9663
 9157TIP3    H248963   1.391   6.990  16.034 -1.1460  1.6407  0.9080
 9158TIP3   OH248964   5.386   4.356  13.522 -0.6302  0.2434  0.2493
 9158TIP3    H148965   5.318   4.386  13.463 -0.3085 -0.4245 -0.4671
 9158TIP3    H248966   5.338   4.307  13.590 -0.8881  0.0681 -0.0607
 9159TIP3   OH248967   2.357   2.050  14.871  0.1186  0.1461  0.0624
 9159TIP3    H148968   2.436   2.018  14.829 -0.0655 -0.6704  0.3209
 9159TIP3    H248969   2.285   2.016  14.818 -0.1865 -2.4974  2.0414
 9160TIP3   OH248970   1.271   2.651  14.312  0.2754 -0.0081  0.3923
 9160TIP3    H148971   1.344   2.589  14.316  1.2435  1.0990  0.0061
 9160TIP3    H248972   1.240   2.658  14.402  2.0426  1.1752  0.9199
 9161TIP3   OH248973   6.290   5.132  15.461  0.2598 -0.4689  0.1329
 9161TIP3    H148974   6.216   5.092  15.506 -0.4129 -1.1885 -1.5821
 9161TIP3    H248975   6.330   5.061  15.411  2.0282 -0.0549  0.9167
 9162TIP3   OH248976   0.647   4.810  13.619 -0.0760 -0.3251  0.8176
 9162TIP3    H148977   0.575   4.871  13.628  2.0755  2.7723 -1.8153
 9162TIP3    H248978   0.690   4.809  13.705 -0.5406  1.3527  1.0737
 9163TIP3   OH248979   1.038   0.394   0.126  0.7075 -1.0655  0.0415
 9163TIP3    H148980   0.943   0.402   0.132  0.7466 -1.1025  0.6935
 9163TIP3    H248981   1.070   0.484   0.129  0.7401 -1.0930  0.6793
 9164TIP3   OH248982   0.458   5.769  13.125 -0.6684  0.0980 -0.1986
 9164TIP3    H148983   0.377   5.812  13.153 -1.1667 -1.9344  1.6169
 9164TIP3    H248984   0.511   5.840  13.089 -3.3830  1.4294 -1.7785
 9165TIP3   OH248985   6.111   6.603  14.098  0.0316 -0.8119 -0.0459
 9165TIP3    H148986   6.203   6.611  14.074 -0.2756 -0.9841 -1.3162
 9165TIP3    H248987   6.087   6.514  14.075 -0.4503 -0.7733  0.2890
 9166TIP3   OH248988   6.678   5.130  14.918 -0.6121  0.2917 -0.8148
 9166TIP3    H148989   6.701   5.068  14.850 -1.3004  0.8169 -1.5468
 9166TIP3    H248990   6.761   5.157  14.956 -0.0429  1.6851 -2.9766
 9167TIP3   OH248991   5.428   0.680   0.636  0.6771  0.2825  0.1960
 9167TIP3    H148992   5.376   0.757   0.658  1.6165  0.7940  0.6688
 9167TIP3    H248993   5.368   0.624   0.586  0.7352  2.4564 -2.4300
 9168TIP3   OH248994   6.752   6.839  15.664  0.8297 -0.4396 -0.4308
 9168TIP3    H148995   6.767   6.904  15.596 -1.8589  0.8459  0.1571
 9168TIP3    H248996   6.773   6.755  15.622  2.0959  0.5819 -1.8823
 9169TIP3   OH248997   2.461   3.925  15.551 -0.5321  0.0058  0.1914
 9169TIP3    H148998   2.551   3.921  15.581 -0.6635 -0.7467  0.4734
 9169TIP3    H248999   2.450   4.016  15.520  0.4715 -0.0539 -0.3492
 9170TIP3   OH249000   2.021   5.692  15.169  0.8417 -0.1270  0.2311
 9170TIP3    H149001   1.937   5.686  15.123 -0.4528  1.0136  2.3237
 9170TIP3    H249002   2.048   5.783  15.157  0.7001  0.0681  1.3448
 9171TIP3   OH249003   6.232   1.182  12.574 -0.1686 -0.4451 -0.4073
 9171TIP3    H149004   6.213   1.161  12.666 -2.8414  0.1926 -0.7986
 9171TIP3    H249005   6.319   1.144  12.559 -0.1407 -1.4708  2.0807
 9172TIP3   OH249006   7.160   5.950  14.348 -0.3299  0.3227 -0.1240
 9172TIP3    H149007   7.209   5.879  14.307 -0.0649 -0.2203  1.1051
 9172TIP3    H249008   7.224   5.994  14.404 -0.3695  1.8571 -1.2748
 9173TIP3   OH249009   1.316   6.080  13.676 -0.1886  0.5665 -0.2551
 9173TIP3    H149010   1.304   6.059  13.769 -1.4764  0.3145 -0.4691
 9173TIP3    H249011   1.396   6.034  13.651  0.9302  1.7189  1.0497
 9174TIP3   OH249012   0.780   0.609  15.336 -0.0479  0.1555  0.4982
 9174TIP3    H149013   0.720   0.534  15.333 -1.8876  1.6457 -1.5438
 9174TIP3    H249014   0.738   0.671  15.394  1.1202 -0.0764  1.6046
 9175TIP3   OH249015   5.889   5.049  12.573  1.2542 -0.5281 -0.6936
 9175TIP3    H149016   5.845   4.965  12.566  1.4439 -0.5849 -1.2543
 9175TIP3    H249017   5.853   5.102  12.501  0.4658  0.1782  0.2145
 9176TIP3   OH249018   6.871   4.139  15.022  0.2141 -0.4403  0.3682
 9176TIP3    H149019   6.928   4.083  14.970  0.8636  0.8441 -0.3510
 9176TIP3    H249020   6.913   4.143  15.108  1.7831  1.2530 -0.4268
 9177TIP3   OH249021   6.571   0.308  13.184 -0.5605 -0.8852  0.1067
 9177TIP3    H149022   6.487   0.345  13.212 -0.1745  0.6212 -0.6737
 9177TIP3    H249023   6.591   0.354  13.103  1.6013 -0.3717  0.9115
 9178TIP3   OH249024   6.687   6.140  13.086  0.2448  0.3607 -0.1309
 9178TIP3    H149025   6.693   6.115  13.179 -1.3179 -1.4981 -0.4952
 9178TIP3    H249026   6.605   6.189  13.080 -0.1815 -0.4187 -0.7148
 9179TIP3   OH249027   2.343   1.176  13.451  0.2229 -0.1781  0.7389
 9179TIP3    H149028   2.346   1.204  13.543  0.3404  0.7658  0.4515
 9179TIP3    H249029   2.308   1.087  13.455  1.4704 -0.6332  1.8016
 9180TIP3   OH249030   0.172   7.192  14.914  0.0809  0.1456  0.2781
 9180TIP3    H149031   0.256   7.219  14.950 -0.4605  0.6979  1.1651
 9180TIP3    H249032   0.121   7.273  14.908 -0.5625 -0.2548  0.2428
 9181TIP3   OH249033   6.020   4.695  15.875  0.0758  0.5923 -0.0183
 9181TIP3    H149034   5.992   4.659  15.791  0.3335 -0.8997  0.5292
 9181TIP3    H249035   5.941   4.694  15.929  0.3581 -0.2651  0.3803
 9182TIP3   OH249036   1.109   4.242  15.075 -0.1830 -0.4277  0.5183
 9182TIP3    H149037   1.021   4.279  15.070 -0.8764 -2.2507 -1.3358
 9182TIP3    H249038   1.113   4.200  15.161 -1.3697 -0.9625  0.3067
 9183TIP3   OH249039   0.026   5.324  15.699  0.1853 -0.8070  0.0095
 9183TIP3    H149040   0.096   5.265  15.670  0.2097 -0.6807 -0.1881
 9183TIP3    H249041   0.051   5.349  15.788 -0.4543 -2.0619  0.5585
 9184TIP3   OH249042   0.084   6.729  14.890  0.4281 -0.1232 -0.0954
 9184TIP3    H149043   0.070   6.694  14.801  1.7041  0.7420 -0.6493
 9184TIP3    H249044   0.111   6.654  14.941  0.2037 -0.5318 -0.5690
 9185TIP3   OH249045   4.073   5.113  13.972 -0.0057  0.0011 -0.0998
 9185TIP3    H149046   4.020   5.189  13.950  1.1236  1.0480  0.7326
 9185TIP3    H249047   4.054   5.050  13.903 -2.8958  0.0475  0.6079
 9186TIP3   OH249048   0.496   6.704  15.176 -0.4738  0.9419  0.1739
 9186TIP3    H149049   0.439   6.764  15.128 -0.6362 -0.6280 -1.6337
 9186TIP3    H249050   0.442   6.673  15.249 -0.9865  1.6373  0.0933
 9187TIP3   OH249051   3.136   6.607  14.327  0.3080 -0.2841 -0.7511
 9187TIP3    H149052   3.224   6.643  14.320  0.5302 -0.5992  0.2592
 9187TIP3    H249053   3.085   6.676  14.370  0.5858 -0.9001  0.6143
 9188TIP3   OH249054   2.978   7.218  15.708  0.1347 -0.3292  0.0219
 9188TIP3    H149055   2.985   7.146  15.645 -4.0398 -0.1455 -0.7782
 9188TIP3    H249056   2.955   7.175  15.791 -3.1991  0.0457 -0.6421
 9189TIP3   OH249057   1.641   6.663  13.073  0.1054 -0.5950  0.0864
 9189TIP3    H149058   1.555   6.652  13.114  0.4537 -0.6369  0.8157
 9189TIP3    H249059   1.630   6.735  13.011 -0.2690 -0.1203  0.7081
 9190TIP3   OH249060   0.798   6.678  12.538 -0.1219 -0.7748 -0.4053
 9190TIP3    H149061   0.782   6.589  12.568  2.3605 -1.0663  0.1907
 9190TIP3    H249062   0.724   6.729  12.572 -1.3860 -2.5471 -0.4842
 9191TIP3   OH249063   3.126   1.049  15.298 -0.5939 -1.1354  0.3535
 9191TIP3    H149064   3.198   0.989  15.318  1.3849  0.8649 -0.5306
 9191TIP3    H249065   3.109   1.095  15.380 -1.6951 -2.4326  0.8708
 9192TIP3   OH249066   7.039   0.619  12.333 -0.7260 -0.1771  0.7512
 9192TIP3    H149067   7.092   0.648  12.259  0.3561 -1.8184  0.8736
 9192TIP3    H249068   7.017   0.701  12.379  0.5075  0.6516 -0.0904
 9193TIP3   OH249069   0.981   6.029  14.079  0.5900  0.0785  0.3427
 9193TIP3    H149070   1.044   5.977  14.027 -0.6185 -1.0171 -0.0542
 9193TIP3    H249071   0.933   5.964  14.129  0.3065  0.9863  1.2565
 9194TIP3   OH249072   1.660   5.318  14.105 -0.2256 -0.5270 -0.2451
 9194TIP3    H149073   1.700   5.375  14.170 -1.1379 -0.1065 -0.0529
 9194TIP3    H249074   1.586   5.278  14.150 -0.4477 -0.7579 -0.8123
 9195TIP3   OH249075   4.144   5.704  13.996  0.0418  0.6208 -0.2391
 9195TIP3    H149076   4.203   5.660  14.056  2.7164  1.8871 -1.8640
 9195TIP3    H249077   4.114   5.781  14.044  2.4732  1.8438 -0.6094
 9196TIP3   OH249078   2.174   4.514  14.790  0.2167 -0.0173 -0.0498
 9196TIP3    H149079   2.113   4.488  14.720 -0.8496  0.7946  0.5594
 9196TIP3    H249080   2.148   4.603  14.812 -0.7890 -0.9800  2.7971
 9197TIP3   OH249081   3.228   6.094  13.282 -0.0683  0.4793 -0.1030
 9197TIP3    H149082   3.272   6.147  13.217  1.3031 -1.0812 -0.4855
 9197TIP3    H249083   3.299   6.049  13.328 -1.1483 -0.3328  0.7928
 9198TIP3   OH249084   2.353   2.871  13.858 -0.4358  0.1591 -0.3795
 9198TIP3    H149085   2.276   2.868  13.801 -1.6444  1.2697  1.1906
 9198TIP3    H249086   2.343   2.950  13.910  0.2011 -1.2771  2.0309
 9199TIP3   OH249087   2.685   1.183  13.161 -0.7621  0.1595  0.7063
 9199TIP3    H149088   2.647   1.159  13.076  1.0943 -0.6205  0.0833
 9199TIP3    H249089   2.629   1.254  13.192 -2.1265 -0.2786 -0.6605
 9200TIP3   OH249090   3.085   6.051  14.454 -0.9051  0.5260 -0.1138
 9200TIP3    H149091   3.010   6.066  14.512  1.0853  0.1335  2.6399
 9200TIP3    H249092   3.072   5.962  14.421 -1.2334  0.1802  0.9504
 9201TIP3   OH249093   3.064   6.689  15.050  0.3774  0.2224  0.4824
 9201TIP3    H149094   3.078   6.732  14.965 -2.5628 -0.8907 -0.6576
 9201TIP3    H249095   3.063   6.596  15.029  0.4804 -0.0886  1.8701
 9202TIP3   OH249096   1.097   6.598  14.167 -0.0944 -0.2069 -0.4340
 9202TIP3    H149097   1.054   6.514  14.151  0.4295 -0.9376  1.7203
 9202TIP3    H249098   1.035   6.664  14.136 -1.2818 -1.3569 -0.5307
 9203TIP3   OH249099   1.538   7.253  14.699 -0.5394 -0.4553  0.4117
 9203TIP3    H149100   1.599   7.256  14.626 -0.5494  0.5645  0.4388
 9203TIP3    H249101   1.463   7.203  14.666 -0.3803 -0.3220 -0.1460
 9204TIP3   OH249102   0.937   0.133   0.246 -0.1937  0.6947  0.1100
 9204TIP3    H149103   0.982   0.217   0.248  1.1003 -0.0157  1.5425
 9204TIP3    H249104   0.847   0.153   0.271  0.1319  1.6266  0.5438
 9205TIP3   OH249105   2.658   5.002  10.944  0.4634 -0.1301  0.0530
 9205TIP3    H149106   2.594   5.008  11.015 -0.0752 -0.7423 -0.3800
 9205TIP3    H249107   2.606   4.993  10.865  1.0842 -0.6785 -0.2996
 9206TIP3   OH249108   3.638   0.993   0.168  0.6308 -0.3856 -0.6717
 9206TIP3    H149109   3.643   1.025   0.078  2.3396 -1.6529 -1.0655
 9206TIP3    H249110   3.713   0.933   0.176  0.0873 -0.8315  1.3723
 9207TIP3   OH249111   2.833   0.007  14.011 -0.2566  0.1182  0.1167
 9207TIP3    H149112   2.887  -0.049  14.066  0.6509  0.3433 -0.5317
 9207TIP3    H249113   2.764  -0.051  13.978 -0.0880 -0.3065  0.5116
 9208TIP3   OH249114   7.324   0.707  15.631 -0.1446  0.1646 -0.8015
 9208TIP3    H149115   7.365   0.739  15.550  0.2664 -1.2285 -1.1720
 9208TIP3    H249116   7.294   0.619  15.608  2.7646 -1.5006  1.4480
 9209TIP3   OH249117   3.159   0.869  13.363 -0.1115 -0.1578  0.2478
 9209TIP3    H149118   3.126   0.863  13.273  1.3105  2.3550 -0.4986
 9209TIP3    H249119   3.106   0.938  13.403  2.1312  1.7908 -0.0450
 9210TIP3   OH249120   2.769   6.496  14.938  0.0482 -0.3210  0.5274
 9210TIP3    H149121   2.675   6.481  14.943  0.2233 -2.1478 -1.2859
 9210TIP3    H249122   2.778   6.577  14.888 -0.5368 -0.8782 -0.5024
 9211TIP3   OH249123   0.967   4.831  13.735 -0.3951 -0.0443  0.0877
 9211TIP3    H149124   0.941   4.830  13.643 -1.1120  0.2758  0.2787
 9211TIP3    H249125   1.017   4.750  13.747 -1.6029 -0.8566 -0.2237
 9212TIP3   OH249126   2.760   1.107  14.750 -0.0070 -0.0538  0.4494
 9212TIP3    H149127   2.829   1.146  14.804  0.1091  0.2581  0.0846
 9212TIP3    H249128   2.697   1.072  14.813  0.0225  0.4915  0.7868
 9213TIP3   OH249129   3.559   6.604  15.725 -0.0002  0.0666 -0.2999
 9213TIP3    H149130   3.530   6.694  15.715  2.0735  0.8620  0.4714
 9213TIP3    H249131   3.644   6.601  15.680 -0.7445 -1.8993 -1.6360
 9214TIP3   OH249132   2.979   6.801  14.019  0.3340 -0.7055 -0.0244
 9214TIP3    H149133   3.072   6.805  14.044  0.3787 -0.6710 -0.1961
 9214TIP3    H249134   2.964   6.708  14.002  0.8300 -0.4692 -1.8454
 9215TIP3   OH249135   4.604   6.162  13.506  0.6454  0.1859 -0.1722
 9215TIP3    H149136   4.671   6.191  13.568 -0.2212  0.3168  0.7228
 9215TIP3    H249137   4.572   6.242  13.466  1.5143  0.0661 -1.1255
 9216TIP3   OH249138   2.019   2.133  14.790  0.2538  0.3925 -0.2060
 9216TIP3    H149139   1.988   2.212  14.835  0.5593 -0.8012  2.2115
 9216TIP3    H249140   2.093   2.163  14.738  0.3517  1.7121  0.6643
 9217TIP3   OH249141   3.420   4.128  14.243 -0.7174 -0.5288  0.4268
 9217TIP3    H149142   3.439   4.187  14.315 -1.5682  1.1225 -0.6818
 9217TIP3    H249143   3.404   4.043  14.284 -1.2626  0.4072  2.1615
 9218TIP3   OH249144   1.856   6.747  12.861 -0.0316 -0.1021 -0.0002
 9218TIP3    H149145   1.850   6.672  12.801  0.3742 -0.3287  0.2412
 9218TIP3    H249146   1.772   6.793  12.851 -1.3632 -2.0528  1.8046
 9219TIP3   OH249147   3.521   5.238  14.889  0.0117  0.4374 -0.1167
 9219TIP3    H149148   3.461   5.171  14.920  0.8876 -0.5315 -0.5152
 9219TIP3    H249149   3.564   5.270  14.969 -0.5890  0.7327  0.1007
 9220TIP3   OH249150   1.607   6.914  13.809  0.1248 -0.6385  0.4088
 9220TIP3    H149151   1.658   6.910  13.890 -1.0989  1.4270  1.3268
 9220TIP3    H249152   1.520   6.883  13.832 -0.2312 -0.0444 -0.0885
 9221TIP3   OH249153   2.205   5.698   0.948 -0.2486 -0.4099  0.3054
 9221TIP3    H149154   2.241   5.628   1.002 -0.0642 -0.3376  0.2737
 9221TIP3    H249155   2.280   5.737   0.904 -0.0835  1.1807  1.9263
 9222TIP3   OH249156   3.973   6.485  13.289 -0.9007 -0.2299  0.2575
 9222TIP3    H149157   3.929   6.538  13.356  0.1984 -0.2203  0.9911
 9222TIP3    H249158   4.041   6.543  13.254 -1.3235 -0.3167 -0.7134
 9223TIP3   OH249159   0.677   6.855  15.505 -0.4891  0.2970 -0.6331
 9223TIP3    H149160   0.725   6.873  15.424  0.1977 -0.3368 -0.3766
 9223TIP3    H249161   0.727   6.901  15.572  0.4367 -1.3099 -0.1937
 9224TIP3   OH249162   1.031   7.213   0.780  0.1347 -0.2710 -0.1914
 9224TIP3    H149163   0.974   7.245   0.711 -2.2688  0.7007  2.1851
 9224TIP3    H249164   1.063   7.129   0.747 -1.0118  0.1176 -2.4130
 9225TIP3   OH249165   2.463   5.100  12.738  0.5960 -0.3315  0.3428
 9225TIP3    H149166   2.415   5.033  12.786  0.0971  0.0095  0.3346
 9225TIP3    H249167   2.417   5.108  12.654  0.9413 -0.3191  0.1514
 9226TIP3   OH249168   4.180   6.073  15.326 -0.0300  0.3633 -0.2392
 9226TIP3    H149169   4.187   6.012  15.253  0.2420 -0.1078  0.1832
 9226TIP3    H249170   4.092   6.057  15.362 -0.1083  0.4939 -0.3716
 9227TIP3   OH249171   2.432   6.621  14.519  0.0635 -0.2247 -0.3491
 9227TIP3    H149172   2.340   6.599  14.508  0.4435 -1.3390 -1.4244
 9227TIP3    H249173   2.465   6.555  14.581 -0.2476  1.2384  1.4253
 9228TIP3   OH249174   6.157   0.081   0.314 -0.1308  0.3303 -0.8645
 9228TIP3    H149175   6.214   0.153   0.287 -0.8949  0.5705 -1.8309
 9228TIP3    H249176   6.139   0.033   0.233 -1.8640  0.6479 -0.6719
 9229TIP3   OH249177   4.355   6.974  14.012  0.0845  0.7272 -0.4624
 9229TIP3    H149178   4.397   7.006  13.933 -0.4195  1.0380 -0.6067
 9229TIP3    H249179   4.421   6.918  14.054  0.3995  0.6761 -1.0255
 9230TIP3   OH249180   1.800   3.006  13.719 -0.1461 -0.3478  0.0329
 9230TIP3    H149181   1.729   3.002  13.784  0.4089 -0.5402  0.6245
 9230TIP3    H249182   1.817   3.099  13.707 -0.1674 -0.3182  0.2415
 9231TIP3   OH249183   3.058   1.056  14.161  0.8886  0.3885  0.4104
 9231TIP3    H149184   3.112   0.977  14.171  1.4535  0.7225  0.0618
 9231TIP3    H249185   3.111   1.113  14.105 -0.5730  0.0371 -1.3741
 9232TIP3   OH249186   3.000   5.246   0.769  0.0414 -0.4117 -0.5574
 9232TIP3    H149187   3.076   5.304   0.756  1.2395 -1.8233 -0.0070
 9232TIP3    H249188   3.004   5.222   0.861  0.3721 -2.4565 -1.0738
 9233TIP3   OH249189   6.271   6.780  12.877  0.0071 -0.9880  0.2737
 9233TIP3    H149190   6.342   6.807  12.818 -0.3506  0.2626  0.3912
 9233TIP3    H249191   6.310   6.785  12.964  0.7352 -3.4915  0.1188
 9234TIP3   OH249192   2.883   6.254  14.988 -0.0844  0.0625 -0.0006
 9234TIP3    H149193   2.868   6.346  14.967 -1.7300 -0.1034  0.3433
 9234TIP3    H249194   2.795   6.219  15.005  0.4517 -1.7426 -0.8505
 9235TIP3   OH249195   3.909   6.920   0.508  0.6136 -0.0525 -0.1267
 9235TIP3    H149196   3.877   7.004   0.475  2.1958  0.4722 -0.3534
 9235TIP3    H249197   3.897   6.860   0.435  1.0616  0.3698 -0.5539
 9236TIP3   OH249198   2.795   5.512  15.131  0.4244  0.3583 -0.0618
 9236TIP3    H149199   2.708   5.548  15.110  0.0874 -0.7815 -0.6372
 9236TIP3    H249200   2.815   5.453  15.058  1.8951  0.9676 -0.1704
 9237TIP3   OH249201   2.861   6.355  15.329  0.2263 -0.1819 -0.1959
 9237TIP3    H149202   2.848   6.450  15.330  0.8609 -0.0941  0.9393
 9237TIP3    H249203   2.774   6.319  15.314 -0.2926  0.5429  0.9884
 9238TIP3   OH249204   1.073   6.287  14.603  0.6530 -0.0508 -0.0388
 9238TIP3    H149205   1.119   6.308  14.684  1.1311  0.0729 -0.3388
 9238TIP3    H249206   1.125   6.217  14.563  0.9312  0.5130 -0.6820
 9239TIP3   OH249207   1.107   5.098  14.032  0.0598  0.4478 -0.3479
 9239TIP3    H149208   1.110   5.193  14.043 -0.6388  0.4060  0.2981
 9239TIP3    H249209   1.045   5.084  13.961 -0.6865  0.4340  0.2985
 9240TIP3   OH249210   3.966   1.072  14.008 -0.4936 -0.3239  0.0254
 9240TIP3    H149211   3.907   1.084  13.934  0.1648 -0.2270 -0.4860
 9240TIP3    H249212   3.975   1.160  14.046 -1.6723 -0.5540  0.8759
 9241TIP3   OH249213   3.980   0.244  15.207 -0.1164  0.3694  0.5157
 9241TIP3    H149214   3.900   0.202  15.177  0.0105  0.3552  0.1891
 9241TIP3    H249215   3.958   0.337  15.211 -0.1798  0.3541  0.5168
 9242TIP3   OH249216   2.879   6.220  12.361 -0.3182 -1.1807  0.3618
 9242TIP3    H149217   2.936   6.173  12.422 -0.4789 -1.7469  0.0810
 9242TIP3    H249218   2.793   6.220  12.404  0.1586  0.7790  1.3683
 9243TIP3   OH249219   2.508   5.334  15.137  0.1729 -0.4547  0.1216
 9243TIP3    H149220   2.591   5.320  15.182 -0.0463 -1.3906  0.2449
 9243TIP3    H249221   2.506   5.428  15.120  2.7943 -0.8204 -2.8319
 9244TIP3   OH249222   3.132   3.460  14.263  0.3979  0.4832  0.1527
 9244TIP3    H149223   3.095   3.494  14.182 -0.3761 -1.5753 -0.3831
 9244TIP3    H249224   3.125   3.532  14.325 -2.8359  0.7568 -0.4642
 9245TIP3   OH249225   4.813   6.977  13.339 -0.4923 -0.1621 -0.2942
 9245TIP3    H149226   4.741   6.915  13.328  0.1583 -0.6715 -1.7896
 9245TIP3    H249227   4.886   6.923  13.370 -0.5918  0.2682  0.7226
 9246TIP3   OH249228   3.337   4.568  14.003 -0.1555 -0.0018  0.1854
 9246TIP3    H149229   3.362   4.476  14.011 -2.2280 -0.7855 -1.8053
 9246TIP3    H249230   3.418   4.612  13.977  0.8390 -1.2678  1.0497
 9247TIP3   OH249231   2.894   6.279  15.625  0.4706  0.5142  0.6767
 9247TIP3    H149232   2.892   6.279  15.529  0.0780  1.2816  0.6861
 9247TIP3    H249233   2.843   6.202  15.649  0.1664  0.5886  0.2777
 9248TIP3   OH249234   4.199   6.602  14.228  0.1841  0.6089 -0.3524
 9248TIP3    H149235   4.157   6.524  14.191  1.8317  0.1505 -1.2864
 9248TIP3    H249236   4.217   6.578  14.319 -1.1235  0.6347 -0.0787
 9249TIP3   OH249237   3.883   6.338  12.978 -0.2212 -0.1969 -0.0625
 9249TIP3    H149238   3.834   6.381  12.908 -0.4562 -1.6311 -0.8212
 9249TIP3    H249239   3.971   6.375  12.973 -0.4527  0.2822 -0.6062
 9250TIP3   OH249240   1.941   6.533  15.580 -0.4862  0.3689  0.2350
 9250TIP3    H149241   1.921   6.547  15.488 -2.1650  0.5395  0.6129
 9250TIP3    H249242   1.859   6.504  15.619 -0.0937  1.4101  1.9002
 9251TIP3   OH249243   1.533   5.101  11.333  0.4175  0.3131 -0.4342
 9251TIP3    H149244   1.612   5.049  11.315  0.3930  0.1845 -0.1771
 9251TIP3    H249245   1.523   5.157  11.256  0.2371 -0.3300 -0.8882
 9252TIP3   OH249246   2.732   6.338  15.960 -0.3043 -0.4471 -0.4730
 9252TIP3    H149247   2.789   6.414  15.965  1.5451 -1.8998  1.4209
 9252TIP3    H249248   2.643   6.374  15.960  0.5476  1.7071  0.1382
 9253TIP3   OH249249   4.361   4.964  14.891  0.4543 -0.1844  0.1959
 9253TIP3    H149250   4.421   5.022  14.845  0.0209 -1.8798 -2.6489
 9253TIP3    H249251   4.275   5.001  14.877  0.4587  0.1338  0.9806
 9254TIP3   OH249252   2.828   6.221  14.186  0.0474  0.1812 -0.0354
 9254TIP3    H149253   2.856   6.216  14.094  1.0557 -0.0298  0.2689
 9254TIP3    H249254   2.900   6.266  14.230 -0.1020 -0.3666  0.7803
 9255TIP3   OH249255   3.966   5.993  12.674 -0.0377  0.1058 -0.5500
 9255TIP3    H149256   3.928   5.960  12.756  1.5120 -0.1712  0.0833
 9255TIP3    H249257   4.037   5.932  12.655 -0.0684  0.4646 -1.8523
 9256TIP3   OH249258   1.027   0.446  14.422  0.3486  0.3160  0.4157
 9256TIP3    H149259   1.089   0.515  14.398  0.2208  0.4974  0.6063
 9256TIP3    H249260   1.082   0.369  14.437  0.2862 -0.2570 -2.1243
 9257TIP3   OH249261   1.039   7.305  15.371 -0.5938  0.2012 -0.4161
 9257TIP3    H149262   1.096   7.380  15.357 -0.4377  0.3688  1.0911
 9257TIP3    H249263   0.971   7.313  15.303  0.3664  0.7564 -1.3267
 9258TIP3   OH249264   2.202   4.845   0.418  0.1910  0.4331 -0.3159
 9258TIP3    H149265   2.241   4.793   0.488 -1.6755  0.2043  0.5746
 9258TIP3    H249266   2.148   4.783   0.369 -0.5879  1.1570 -0.3772
 9259TIP3   OH249267   1.862   5.905  14.942 -0.3079 -0.0409 -0.2436
 9259TIP3    H149268   1.889   5.989  14.903  2.1997  0.2084  1.8822
 9259TIP3    H249269   1.932   5.884  15.004 -1.3951 -3.2403 -0.0141
 9260TIP3   OH249270   3.051   7.291  14.217 -0.5306  0.2004 -0.1257
 9260TIP3    H149271   3.065   7.289  14.312  2.1633  1.0278 -0.4697
 9260TIP3    H249272   3.054   7.199  14.190  0.7995  0.1141  0.3175
 9261TIP3   OH249273   2.874   6.998  13.867 -0.7006 -0.0979  0.0377
 9261TIP3    H149274   2.896   6.931  13.932 -0.0132  0.5042  0.4290
 9261TIP3    H249275   2.844   6.948  13.791  3.6283 -1.1252 -1.1782
 9262TIP3   OH249276   7.291   1.442  15.282  0.2389 -0.1081 -0.0256
 9262TIP3    H149277   7.318   1.493  15.206  1.2385 -0.8723 -0.1921
 9262TIP3    H249278   7.358   1.459  15.348  0.0019 -0.3592  0.2835
 9263TIP3   OH249279   2.134   0.308  14.396 -0.4507 -0.4424  0.6054
 9263TIP3    H149280   2.058   0.291  14.341  0.5925 -0.7947 -0.7636
 9263TIP3    H249281   2.197   0.349  14.337 -0.2303  1.5004  2.1284
 9264TIP3   OH249282   2.867   3.869  11.680 -0.1596 -0.0050 -0.0468
 9264TIP3    H149283   2.897   3.946  11.631 -0.3244 -0.3381 -0.6757
 9264TIP3    H249284   2.771   3.879  11.681 -0.1324  0.2014  0.5388
 9265TIP3   OH249285   1.787   6.369   0.388 -0.0998 -0.1199 -0.4762
 9265TIP3    H149286   1.790   6.285   0.434  0.2610  0.6272  0.8910
 9265TIP3    H249287   1.731   6.424   0.443 -0.5145  0.4771 -1.4815
 9266TIP3   OH249288   1.721   6.773  14.917 -0.2247  0.1488  0.1109
 9266TIP3    H149289   1.774   6.736  14.987 -0.3597  1.4138  0.9019
 9266TIP3    H249290   1.649   6.710  14.906  1.2247 -1.3721 -0.7192
 9267TIP3   OH249291   0.040   5.357   1.508 -0.0929 -0.4032 -1.0313
 9267TIP3    H149292  -0.043   5.403   1.522 -0.3650 -1.5184  1.1788
 9267TIP3    H249293   0.019   5.265   1.521  1.5919 -0.6507 -0.0008
 9268TIP3   OH249294   3.512   0.224  14.422  0.5390 -0.2539 -0.1436
 9268TIP3    H149295   3.434   0.223  14.365 -1.4631  0.7066  2.4620
 9268TIP3    H249296   3.549   0.311  14.411  0.1715 -0.0805 -0.0222
 9269TIP3   OH249297   2.099   7.117  15.317 -0.0272  0.4581 -0.0430
 9269TIP3    H149298   2.098   7.039  15.262  0.6728 -0.1047  0.7202
 9269TIP3    H249299   2.063   7.186  15.262 -1.3776 -0.5726 -0.4838
 9270TIP3   OH249300   4.138   5.159   2.579 -0.4403  0.2465  0.6797
 9270TIP3    H149301   4.052   5.121   2.563 -0.1856  0.0147 -0.1708
 9270TIP3    H249302   4.141   5.173   2.673 -1.7222  1.0101  0.6120
 9271TIP3   OH249303   3.377   6.433   0.958  0.0813  0.4880  0.4035
 9271TIP3    H149304   3.296   6.473   0.989 -0.2661  0.0690  0.0497
 9271TIP3    H249305   3.431   6.423   1.037 -0.7888 -0.5538  0.8759
 9272TIP3   OH249306   3.606   5.405  15.384  0.2339 -0.0062 -0.0678
 9272TIP3    H149307   3.518   5.374  15.405 -0.0719  1.9138  1.5869
 9272TIP3    H249308   3.614   5.489  15.428  2.6888  0.1516 -0.7073
 9273TIP3   OH249309   1.612   5.928  15.283 -0.2993 -0.0235 -0.2671
 9273TIP3    H149310   1.656   5.876  15.350 -0.9573 -0.5863 -0.2710
 9273TIP3    H249311   1.672   6.002  15.267  0.1094 -0.1743  0.5439
 9274TIP3   OH249312   4.163   7.278  14.845 -0.2204 -0.3178 -0.5181
 9274TIP3    H149313   4.174   7.355  14.902 -1.6033 -1.1730  0.9554
 9274TIP3    H249314   4.235   7.284  14.782  0.4631  1.4699  0.3930
 9275TIP3   OH249315   2.794   4.208  14.022  0.2125 -0.2488  0.0365
 9275TIP3    H149316   2.814   4.163  14.104  0.6981 -0.0144  0.0539
 9275TIP3    H249317   2.820   4.299  14.037  0.2255 -0.1871 -0.3443
 9276TIP3   OH249318   1.587   6.474  13.702  0.3273  0.0919  0.1748
 9276TIP3    H149319   1.588   6.382  13.675  0.7308  0.6330 -1.8026
 9276TIP3    H249320   1.504   6.485  13.747 -0.1210 -1.0357 -0.3521
 9277TIP3   OH249321   1.846   6.685  13.958  0.1504 -0.3214 -0.0308
 9277TIP3    H149322   1.906   6.609  13.957 -0.7829 -1.0795  0.5595
 9277TIP3    H249323   1.768   6.655  13.911 -0.1367  0.3548  0.0077
 9278TIP3   OH249324   2.240   6.847  14.237 -0.1962 -0.5246  0.6516
 9278TIP3    H149325   2.241   6.887  14.324 -0.0639 -0.9711  0.8554
 9278TIP3    H249326   2.147   6.843  14.214 -0.2960 -1.3453  1.2047
 9279TIP3   OH249327   0.644   7.069   0.590  0.6185  0.2200  0.5255
 9279TIP3    H149328   0.561   7.116   0.588  0.5534  0.0599 -1.5930
 9279TIP3    H249329   0.664   7.059   0.684 -2.2506 -0.6681  1.0872
 9280TIP3   OH249330   1.211   0.067   1.068 -0.0764  0.1495 -0.1272
 9280TIP3    H149331   1.295   0.029   1.041  0.4516  0.6665  0.7337
 9280TIP3    H249332   1.214   0.065   1.164 -0.4309  1.4911 -0.0739
 9281TIP3   OH249333   4.821   0.380  14.063  0.4530 -0.0894 -0.0081
 9281TIP3    H149334   4.738   0.415  14.096  0.5169 -0.3802  0.4680
 9281TIP3    H249335   4.884   0.450  14.078  0.4025 -0.0721  0.1223
 9282TIP3   OH249336   2.637   0.312  14.723 -0.7562 -0.3777  0.8198
 9282TIP3    H149337   2.692   0.343  14.651 -0.1387  0.6496  1.7147
 9282TIP3    H249338   2.610   0.224  14.696 -0.1032 -0.2093 -0.4252
 9283TIP3   OH249339   1.513   7.110   0.745 -0.1714 -0.2032  0.0839
 9283TIP3    H149340   1.490   7.146   0.831  2.9338  3.0148 -0.3041
 9283TIP3    H249341   1.606   7.090   0.753  0.8476  2.7091 -3.2863
 9284TIP3   OH249342   2.207   5.724  13.371  0.6193  0.1350  0.2719
 9284TIP3    H149343   2.182   5.811  13.402 -0.8715 -0.3059  0.3209
 9284TIP3    H249344   2.298   5.714  13.400  0.3306  1.0917  1.5481
 9285TIP3   OH249345   3.738   7.222  11.942  0.8602  0.0485 -0.1072
 9285TIP3    H149346   3.684   7.153  11.981 -0.7341  1.3517  0.0313
 9285TIP3    H249347   3.738   7.292  12.006 -0.1126  1.4021 -1.5391
 9286TIP3   OH249348   0.973   7.263   0.071 -0.2431 -0.1924 -0.6037
 9286TIP3    H149349   1.009   7.325   0.008  2.8634 -0.9544  0.3456
 9286TIP3    H249350   0.961   7.314   0.151  0.0992 -0.2865 -0.4940
 9287TIP3   OH249351   3.413   1.844  13.832  0.3762  0.6039  0.0004
 9287TIP3    H149352   3.431   1.877  13.743  0.1016 -0.9731 -0.6520
 9287TIP3    H249353   3.334   1.791  13.822 -0.2360  1.2277  1.3928
 9288TIP3   OH249354   3.037   0.974  14.872 -0.3781  0.3843  0.2298
 9288TIP3    H149355   2.997   1.005  14.953  0.4855 -0.3712  0.9466
 9288TIP3    H249356   3.023   0.880  14.873 -0.6950  0.4138 -0.6877
 9289TIP3   OH249357   1.149   0.396  12.836  0.4150 -0.2664 -0.1619
 9289TIP3    H149358   1.085   0.428  12.901 -0.6791 -0.3596 -1.1842
 9289TIP3    H249359   1.227   0.449  12.852 -0.0554  0.1582  0.8063
 9290TIP3   OH249360   2.993   6.590   0.406  0.2270  0.1217  0.1502
 9290TIP3    H149361   3.037   6.524   0.459 -2.5453 -0.7135  1.4948
 9290TIP3    H249362   3.041   6.589   0.323  3.0592 -0.3137  1.7194
 9291TIP3   OH249363   2.643   6.853  14.357 -0.0048 -0.2973 -0.0575
 9291TIP3    H149364   2.564   6.808  14.388 -0.3919 -0.4692 -1.2780
 9291TIP3    H249365   2.659   6.818  14.270  0.0383  1.4685 -0.7864
 9292TIP3   OH249366   2.131   7.333  12.418 -0.3093 -0.2462 -0.0831
 9292TIP3    H149367   2.184   7.329  12.497  0.8272  2.7045 -0.6345
 9292TIP3    H249368   2.175   7.273  12.357 -0.1400 -1.1221  0.8792
 9293TIP3   OH249369   1.223   7.225  12.993 -0.5393  0.8164 -0.4078
 9293TIP3    H149370   1.198   7.150  12.940 -0.3260 -0.8030  1.7511
 9293TIP3    H249371   1.145   7.280  12.994 -1.1591 -0.0431 -0.8467
 9294TIP3   OH249372   3.433   5.207  14.253  0.7177  0.0790  0.0675
 9294TIP3    H149373   3.437   5.126  14.303 -0.1651 -0.0347 -0.0501
 9294TIP3    H249374   3.448   5.276  14.318  0.9861 -0.1426  0.2421
 9295TIP3   OH249375   2.866   1.748  13.767  0.0035 -0.5285  0.2522
 9295TIP3    H149376   2.874   1.693  13.689  0.2326 -2.2186  1.4540
 9295TIP3    H249377   2.803   1.703  13.823  0.4230  0.2603  1.3845
 9296TIP3   OH249378   3.508   1.506  14.900  0.1932 -0.0629  0.4069
 9296TIP3    H149379   3.568   1.569  14.940  0.5660  0.4731 -0.9906
 9296TIP3    H249380   3.526   1.424  14.947  0.9774  0.4360  0.9965
 9297TIP3   OH249381   3.920   6.585  14.775  0.4524  0.0564  0.5397
 9297TIP3    H149382   3.955   6.517  14.833  0.0204  0.3242  1.1204
 9297TIP3    H249383   3.869   6.642  14.833  0.0412  0.3448 -0.0995
 9298TIP3   OH249384   3.774   6.249  14.705  0.5655  0.4593 -0.3850
 9298TIP3    H149385   3.785   6.176  14.644  1.1871 -1.1577  1.6055
 9298TIP3    H249386   3.681   6.271  14.699  0.3823 -0.4549 -1.0633
 9299TIP3   OH249387   2.321   0.739  13.002 -0.5374 -0.4311 -0.8673
 9299TIP3    H149388   2.331   0.756  13.096 -2.1877 -1.0977 -0.5436
 9299TIP3    H249389   2.280   0.818  12.968 -1.4420 -0.8254 -0.7137
 9300TIP3   OH249390   3.111   6.739  15.955 -0.3592  0.2399 -0.0900
 9300TIP3    H149391   3.145   6.675  15.892 -0.7935  1.1123 -1.2204
 9300TIP3    H249392   3.040   6.693  16.000  0.3387 -0.5831  0.2040
 9301TIP3   OH249393   2.332   0.129  14.484 -0.5944  0.2405  0.0890
 9301TIP3    H149394   2.263   0.087  14.433 -0.8814 -0.7637  1.3005
 9301TIP3    H249395   2.330   0.221  14.456 -1.7178  0.0021 -0.6270
 9302TIP3   OH249396   2.173   6.183  15.001  0.4631 -0.3508  0.0501
 9302TIP3    H149397   2.142   6.173  14.911 -0.8708 -0.0048  0.4604
 9302TIP3    H249398   2.094   6.173  15.054  0.9898  0.9751  1.0941
 9303TIP3   OH249399   0.902   1.844  14.517 -0.3503  0.4202 -0.2914
 9303TIP3    H149400   0.821   1.810  14.478  0.1178 -1.2741  0.1816
 9303TIP3    H249401   0.966   1.839  14.446 -0.8936  2.8526 -1.0229
 9304TIP3   OH249402   7.255   4.776  15.856 -0.6203 -0.2003  0.1287
 9304TIP3    H149403   7.210   4.702  15.814 -0.7672 -1.4144  2.3366
 9304TIP3    H249404   7.311   4.812  15.787 -1.9617 -1.1767 -1.5371
 9305TIP3   OH249405   1.440   5.665  14.547 -0.0199 -0.5792 -0.0274
 9305TIP3    H149406   1.494   5.643  14.622  0.0433  2.3807  0.8610
 9305TIP3    H249407   1.392   5.743  14.574 -0.2180  0.3750 -2.9315
 9306TIP3   OH249408   7.064   6.237   0.467 -0.1780 -0.2862  0.1902
 9306TIP3    H149409   7.067   6.198   0.555 -0.1112  1.3269  0.9133
 9306TIP3    H249410   7.152   6.273   0.454 -0.5220  0.4529 -0.0960
 9307TIP3   OH249411   3.780   0.729  15.749 -0.4871  0.4322 -0.1363
 9307TIP3    H149412   3.749   0.739  15.659  0.8953 -0.2912 -0.6935
 9307TIP3    H249413   3.776   0.635  15.765 -1.3848  0.6125  0.8137
 9308TIP3   OH249414   7.275   6.827   0.388  0.7662 -0.2479  0.1951
 9308TIP3    H149415   7.213   6.894   0.360 -0.1994 -1.3705 -0.3723
 9308TIP3    H249416   7.361   6.869   0.380  0.3035  0.3447 -1.8002
 9309TIP3   OH249417   3.041   7.196  11.855  0.1811  0.1267 -0.0460
 9309TIP3    H149418   3.071   7.144  11.780  2.0645  1.0111  0.0704
 9309TIP3    H249419   2.995   7.270  11.815 -0.7146 -0.5450 -0.2681
 9310TIP3   OH249420   1.234   5.273  14.322 -0.2029 -0.4840  0.0290
 9310TIP3    H149421   1.196   5.211  14.384 -1.4085  0.2500  0.0466
 9310TIP3    H249422   1.209   5.359  14.355 -1.2231 -0.0877 -1.6665
 9311TIP3   OH249423   3.299   0.605  12.016 -0.6922 -0.3937  0.3421
 9311TIP3    H149424   3.318   0.521  12.058  1.7180 -0.9952 -1.7992
 9311TIP3    H249425   3.267   0.661  12.087 -0.7311 -2.5866  2.1263
 9312TIP3   OH249426   1.821   6.350  14.359  0.4433 -0.3521 -0.0860
 9312TIP3    H149427   1.776   6.299  14.291  1.7628 -0.4300 -0.9142
 9312TIP3    H249428   1.914   6.333  14.344  0.8805  1.9340 -0.0972
 9313TIP3   OH249429   3.017   7.001   0.308 -0.1583  0.0070 -0.5226
 9313TIP3    H149430   3.110   6.981   0.311 -0.5653 -1.8889  0.3402
 9313TIP3    H249431   3.011   7.083   0.261  1.7591 -1.0834 -2.7409
 9314TIP3   OH249432   3.718   0.164  14.634  0.0143  0.3595 -0.0984
 9314TIP3    H149433   3.670   0.113  14.569  0.0669 -0.3684  0.4208
 9314TIP3    H249434   3.687   0.254  14.623  1.8952  0.7217 -2.8536
 9315TIP3   OH249435   3.045   6.880   0.795 -0.2008  0.3177 -0.1024
 9315TIP3    H149436   3.136   6.873   0.766 -0.5211 -0.8208 -0.9004
 9315TIP3    H249437   2.998   6.912   0.718 -0.9824 -2.2289 -0.7346
 9316TIP3   OH249438   3.975   0.955  14.282 -0.7115 -0.1728  0.7243
 9316TIP3    H149439   3.952   0.989  14.195  1.3598 -2.0117 -0.5933
 9316TIP3    H249440   3.891   0.936  14.324 -1.7161 -0.8417 -1.5292
 9317TIP3   OH249441   1.292   6.740  15.917  0.1552  0.2261 -0.0353
 9317TIP3    H149442   1.264   6.830  15.935  0.1241 -0.0431  1.2992
 9317TIP3    H249443   1.375   6.750  15.870  1.3059  0.9404  2.0632
 9318TIP3   OH249444   3.434   0.808  13.418  0.5744 -0.2818 -0.4727
 9318TIP3    H149445   3.439   0.858  13.500 -0.8771  0.2340 -0.6761
 9318TIP3    H249446   3.349   0.833  13.380  1.0253 -0.8713 -1.9017
 9319TIP3   OH249447   1.825   5.715  14.736 -0.0971 -0.0694  0.1137
 9319TIP3    H149448   1.807   5.781  14.804  0.5397  0.7804 -0.5417
 9319TIP3    H249449   1.749   5.656  14.740 -0.4184  0.3951  1.0623
 9320TIP3   OH249450   2.728   5.708  14.080 -0.0766  0.2831  0.3042
 9320TIP3    H149451   2.723   5.618  14.110 -0.9664  0.5133  0.8834
 9320TIP3    H249452   2.649   5.749  14.115 -1.3901  0.4684 -2.6966
 9321TIP3   OH249453   3.541   6.792   0.511 -0.1536 -0.0684 -0.1598
 9321TIP3    H149454   3.547   6.877   0.555 -1.0967 -0.0209 -0.1189
 9321TIP3    H249455   3.578   6.730   0.575  1.1608  0.3991 -0.4633
 9322TIP3   OH249456   3.405   6.045  14.478  0.2193  0.2022  0.0995
 9322TIP3    H149457   3.326   6.036  14.530 -0.7667 -0.2086 -1.4370
 9322TIP3    H249458   3.374   6.076  14.393  1.5392 -1.5035 -1.0310
 9323TIP3   OH249459   4.933   7.153   0.846 -0.0179  0.1974  0.2912
 9323TIP3    H149460   4.972   7.179   0.930  1.0088  0.1132 -0.1537
 9323TIP3    H249461   4.910   7.235   0.803 -2.0054  0.2137  1.3190
 9324TIP3   OH249462   2.910   5.224   0.176 -0.1764 -0.1220  0.1861
 9324TIP3    H149463   2.866   5.254   0.255  0.5311 -0.5313  0.7494
 9324TIP3    H249464   2.880   5.283   0.107 -0.8232  0.2175  0.7535
 9325TIP3   OH249465   1.312   4.571  15.085  0.4081 -0.2893 -0.0048
 9325TIP3    H149466   1.406   4.593  15.087  0.4094 -0.3426  1.5893
 9325TIP3    H249467   1.280   4.597  15.172 -1.0784 -0.1799 -0.5758
 9326TIP3   OH249468   3.924   0.557  14.374 -0.5990  0.2231 -0.2417
 9326TIP3    H149469   4.011   0.596  14.370 -0.3288 -0.5370 -2.6685
 9326TIP3    H249470   3.867   0.621  14.331 -0.4951 -1.0870 -2.4043
 9327TIP3   OH249471   1.880   6.665  15.125  0.4702 -0.2843 -0.0153
 9327TIP3    H149472   1.854   6.639  15.214 -1.2626 -1.8348 -0.9332
 9327TIP3    H249473   1.934   6.593  15.093 -3.5068 -2.5060 -2.1938
 9328TIP3   OH249474   4.156   6.041  15.799 -0.2249  0.0111 -0.1667
 9328TIP3    H149475   4.066   6.038  15.765 -0.0128  0.4793 -0.7789
 9328TIP3    H249476   4.146   6.081  15.886 -0.6135  0.0571 -0.2273
 9329TIP3   OH249477   3.270   5.880  14.901 -0.0716 -0.0404  0.0807
 9329TIP3    H149478   3.230   5.959  14.864 -1.0348 -0.6478 -0.1889
 9329TIP3    H249479   3.201   5.840  14.952  0.2791 -0.9667 -0.1660
 9330TIP3   OH249480   2.935   6.976   0.565  0.6897 -0.5874 -0.0312
 9330TIP3    H149481   2.976   6.986   0.479 -0.1554 -0.3851 -0.4118
 9330TIP3    H249482   2.882   6.897   0.556 -1.0771  0.6261 -0.3604
 9331TIP3   OH249483   0.371   6.625  13.695  0.1435 -0.3690  0.0863
 9331TIP3    H149484   0.313   6.615  13.620  0.2734 -0.3380 -0.0187
 9331TIP3    H249485   0.443   6.564  13.678  0.6310  0.3027 -0.2578
 9332TIP3   OH249486   1.000   0.813  13.696 -0.5906  0.0146  0.0913
 9332TIP3    H149487   0.918   0.780  13.660 -0.4660  0.8963 -1.0239
 9332TIP3    H249488   0.975   0.858  13.777 -1.0400 -0.8061  0.4147
 9333TIP3   OH249489   1.367   4.958  13.509  0.4750  0.1860 -0.1448
 9333TIP3    H149490   1.277   4.942  13.480  0.6976 -0.2025 -0.6291
 9333TIP3    H249491   1.358   5.011  13.588 -0.1550  1.0679 -0.7874
 9334TIP3   OH249492   4.465   6.052  15.550 -0.4499 -0.0727  0.4763
 9334TIP3    H149493   4.512   6.133  15.569  2.1417 -1.5736  0.7174
 9334TIP3    H249494   4.400   6.077  15.484  1.9495  1.7267 -1.2879
 9335TIP3   OH249495   4.234   6.659  15.560  0.2513  0.0377  0.5277
 9335TIP3    H149496   4.194   6.575  15.537  0.3928 -0.0458  0.5827
 9335TIP3    H249497   4.161   6.719  15.571  0.2544  0.5473 -1.9511
 9336TIP3   OH249498   1.957   6.134  14.778  0.5538  0.5515  0.0631
 9336TIP3    H149499   1.979   6.061  14.721 -2.1362 -0.9607  0.9033
 9336TIP3    H249500   1.918   6.199  14.719 -0.2317 -0.1141 -0.1568
 9337TIP3   OH249501   2.753   7.129  14.953  0.3353  0.4969 -0.3928
 9337TIP3    H149502   2.767   7.222  14.970  0.0331  0.4718  0.0237
 9337TIP3    H249503   2.669   7.125  14.908 -0.9962  0.2225  2.0239
 9338TIP3   OH249504   2.851   6.239  13.904  0.0289  0.3022 -0.4940
 9338TIP3    H149505   2.872   6.252  13.812  0.6925  1.1178 -0.2367
 9338TIP3    H249506   2.776   6.180  13.904  0.9407 -0.8713 -1.5016
 9339TIP3   OH249507   4.811   5.873  13.117 -0.0114 -0.5981 -0.4115
 9339TIP3    H149508   4.873   5.902  13.184  0.7914 -1.9508 -0.5339
 9339TIP3    H249509   4.732   5.849  13.166  0.2065 -0.5934 -0.0582
 9340TIP3   OH249510   3.054   7.023  12.882 -0.0562  0.3253  0.6296
 9340TIP3    H149511   2.983   7.057  12.827 -0.1279  1.7974  1.5915
 9340TIP3    H249512   3.107   7.101  12.902  2.3937 -0.9063 -0.8887
 9341TIP3   OH249513   2.615   5.926  14.651  0.4832  0.1199 -0.4640
 9341TIP3    H149514   2.593   5.890  14.565 -1.1991 -0.0039  0.0016
 9341TIP3    H249515   2.585   5.859  14.713  1.0008  0.5430  0.2482
 9342TIP3   OH249516   0.970   1.291  13.901  0.1279 -0.1150  0.0045
 9342TIP3    H149517   0.994   1.250  13.818 -1.5295  1.3879 -1.2486
 9342TIP3    H249518   0.875   1.282  13.906  0.2994 -1.0928  2.2645
 9343TIP3   OH249519   3.515   5.169   0.247  0.6291  0.3762 -0.7473
 9343TIP3    H149520   3.538   5.255   0.283  1.0646  0.3419 -0.9397
 9343TIP3    H249521   3.421   5.175   0.229  0.2846  0.2237  0.8739
 9344TIP3   OH249522   3.720   0.032  15.414  1.0528 -0.1157  0.8119
 9344TIP3    H149523   3.752  -0.052  15.447  0.4054 -0.5919  0.2351
 9344TIP3    H249524   3.733   0.028  15.320  0.6732  0.2817  0.7406
 9345TIP3   OH249525   0.944   6.906  12.713  0.2831  0.1217 -0.0003
 9345TIP3    H149526   0.928   6.838  12.648  1.7997  0.4427 -0.7249
 9345TIP3    H249527   0.880   6.974  12.693 -0.7405 -0.7538  0.2549
 9346TIP3   OH249528   2.680   1.777  15.456 -0.1470 -0.7754 -0.1432
 9346TIP3    H149529   2.736   1.788  15.533  0.2002  0.2358 -0.5375
 9346TIP3    H249530   2.629   1.857  15.452  0.8660 -0.1893 -1.7962
 9347TIP3   OH249531   4.688   0.066  13.784 -0.2925 -0.4342  0.0015
 9347TIP3    H149532   4.717   0.157  13.778 -0.5720 -0.2932  0.7177
 9347TIP3    H249533   4.702   0.042  13.876  1.9282 -1.8435 -0.6466
 9348TIP3   OH249534   2.563   6.147  14.986  0.5775  0.7608 -0.3223
 9348TIP3    H149535   2.500   6.154  14.914 -0.0900  3.0620  0.4464
 9348TIP3    H249536   2.543   6.222  15.042  3.2202  0.8255  0.5650
 9349TIP3   OH249537   1.547   0.330   0.023  0.3209 -0.4761  0.1152
 9349TIP3    H149538   1.523   0.339  -0.069  0.4283 -1.1561  0.0191
 9349TIP3    H249539   1.468   0.356   0.071  1.1596  2.7284 -0.0914
 9350TIP3   OH249540   0.269   5.595  14.328  0.4489 -0.4376  0.0625
 9350TIP3    H149541   0.323   5.640  14.393  2.2080 -0.7154 -1.1848
 9350TIP3    H249542   0.331   5.543  14.277 -1.2199 -2.1459 -0.2770
 9351TIP3   OH249543   3.021   3.625  14.035  0.4142 -0.1319 -0.1510
 9351TIP3    H149544   2.954   3.625  14.104 -0.4407  1.4781 -0.9713
 9351TIP3    H249545   3.088   3.686  14.066  0.7227 -0.4935 -0.0953
 9352TIP3   OH249546   0.215   6.198  15.583  0.3192 -0.1990  0.0107
 9352TIP3    H149547   0.208   6.116  15.534  4.7853 -1.6773  1.6216
 9352TIP3    H249548   0.281   6.248  15.536  1.2670  0.3222  1.8361
 9353TIP3   OH249549   0.808   3.843  13.515  0.1470  0.1723  0.3025
 9353TIP3    H149550   0.902   3.848  13.494 -0.1331  0.8510 -0.8462
 9353TIP3    H249551   0.806   3.832  13.610  1.4208 -1.3238  0.1750
 9354TIP3   OH249552   5.540   5.795  15.151 -0.4824 -0.5180  0.8956
 9354TIP3    H149553   5.456   5.822  15.113  0.6009  0.0958 -1.1146
 9354TIP3    H249554   5.528   5.809  15.245 -2.8653 -1.0845  0.7235
 9355TIP3   OH249555   6.137   6.999  15.190 -0.3012  0.0268  0.1894
 9355TIP3    H149556   6.130   7.036  15.279 -0.6578 -3.0602  1.5159
 9355TIP3    H249557   6.048   7.005  15.155 -0.3576  0.4153  0.3946
 9356TIP3   OH249558   3.037   0.182  13.728  0.7321  0.0534 -0.4021
 9356TIP3    H149559   2.966   0.122  13.705  0.3359  0.2939  0.1766
 9356TIP3    H249560   2.993   0.260  13.761  1.2755 -0.5436  1.7955
 9357TIP3   OH249561   0.851   6.868  15.811 -0.0205 -0.2496 -0.2536
 9357TIP3    H149562   0.909   6.943  15.822  0.1210 -0.4815  0.6476
 9357TIP3    H249563   0.909   6.792  15.813 -0.2758 -0.4404 -0.0744
 9358TIP3   OH249564   1.715   0.276  14.790 -0.2205 -0.7071  0.1026
 9358TIP3    H149565   1.718   0.265  14.695 -2.8073 -0.2268 -0.0561
 9358TIP3    H249566   1.749   0.193  14.825  4.0032  0.3657 -1.2070
 9359TIP3   OH249567   6.851   6.262  15.948  0.2089 -0.2126  0.1873
 9359TIP3    H149568   6.942   6.237  15.965  0.4318  0.3668 -0.1727
 9359TIP3    H249569   6.812   6.183  15.909  0.9513  0.0239 -1.0593
 9360TIP3   OH249570   1.867   6.549  13.645  0.6212 -0.0897  0.5618
 9360TIP3    H149571   1.885   6.640  13.668  1.3903  0.0826 -0.7132
 9360TIP3    H249572   1.771   6.543  13.645  0.5308  1.0653 -0.6696
 9361TIP3   OH249573   3.989   6.155   0.384  0.8975  0.1970  0.2453
 9361TIP3    H149574   3.893   6.146   0.390  0.7378  0.4677 -1.7373
 9361TIP3    H249575   4.020   6.066   0.367  0.7428  0.5614 -2.0420
 9362TIP3   OH249576   3.417   7.204   3.504  0.1354  0.4923 -0.4680
 9362TIP3    H149577   3.438   7.153   3.426  0.1733  0.1339 -0.2216
 9362TIP3    H249578   3.367   7.144   3.559 -1.5674  1.3300 -1.0588
 9363TIP3   OH249579   3.815   7.210  10.843  0.0903  0.3066  0.3103
 9363TIP3    H149580   3.910   7.203  10.842  0.0924  0.3482  0.1862
 9363TIP3    H249581   3.792   7.243  10.756 -0.1115 -0.7010 -0.0373
 9364TIP3   OH249582   4.069   5.636  14.309  0.3570 -0.4579  0.0856
 9364TIP3    H149583   4.027   5.628  14.394 -0.4865  0.8734 -0.1888
 9364TIP3    H249584   4.139   5.701  14.323 -0.2476  0.3060 -0.4008
 9365TIP3   OH249585   3.325   6.282  15.244 -0.3657 -0.1923 -0.6206
 9365TIP3    H149586   3.337   6.230  15.165 -1.1718  1.1787 -1.6577
 9365TIP3    H249587   3.404   6.266  15.296  0.5338 -0.4563 -2.0536
 9366TIP3   OH249588   2.930   4.942  12.908 -0.0023 -0.3294 -0.2375
 9366TIP3    H149589   2.896   4.930  12.820 -0.3075  0.6093 -0.2547
 9366TIP3    H249590   2.963   5.032  12.909 -0.1605 -0.2784  0.6537
 9367TIP3   OH249591   2.594   6.872  10.136 -0.5920  0.1313 -0.7751
 9367TIP3    H149592   2.603   6.892  10.043  0.2029 -0.5800 -0.8490
 9367TIP3    H249593   2.623   6.782  10.145 -0.5446  0.2355  0.1882
 9368TIP3   OH249594   1.679   5.245  12.205  0.2398  0.1673  0.1911
 9368TIP3    H149595   1.703   5.183  12.273 -0.5687  0.6727  0.9505
 9368TIP3    H249596   1.706   5.330  12.239  0.4507  0.3488 -0.4139
 9369TIP3   OH249597   4.048   5.210  13.607  0.2703  0.1827 -1.2172
 9369TIP3    H149598   4.132   5.187  13.567  1.3301  0.4014  0.8289
 9369TIP3    H249599   4.020   5.288  13.558  2.6557  1.8136 -0.0892
 9370TIP3   OH249600   3.727   6.467  13.577 -0.5421 -0.3880  0.3370
 9370TIP3    H149601   3.779   6.403  13.527  2.2077  1.6803  0.3876
 9370TIP3    H249602   3.660   6.496  13.516 -0.7333 -2.0130 -0.2587
 9371TIP3   OH249603   1.508   0.202  13.752  0.0236  0.0550  0.2987
 9371TIP3    H149604   1.431   0.179  13.802 -0.8309  1.1082 -0.5007
 9371TIP3    H249605   1.496   0.159  13.667  0.8145 -0.6130  0.5133
 9372TIP3   OH249606   1.348   6.054  12.343 -0.1055  0.5635 -0.1154
 9372TIP3    H149607   1.333   6.077  12.435 -0.9671 -0.7534  0.0884
 9372TIP3    H249608   1.306   6.124  12.293 -0.0426  1.0345  0.4879
 9373TIP3   OH249609   3.305   6.553  14.043 -0.2092 -0.2023 -0.6614
 9373TIP3    H149610   3.250   6.614  13.992 -0.5281 -0.0412 -0.1279
 9373TIP3    H249611   3.334   6.605  14.118 -1.3436 -1.0108  0.3533
 9374TIP3   OH249612   6.804   6.361   0.498 -0.1170 -0.2029  0.6881
 9374TIP3    H149613   6.881   6.305   0.495 -0.5334 -0.7963  0.9143
 9374TIP3    H249614   6.767   6.357   0.410 -0.3566 -0.5891  0.8040
 9375TIP3   OH249615   0.178   4.068  15.351  0.3405  0.2298 -0.9028
 9375TIP3    H149616   0.209   4.135  15.291 -0.4995  0.0012 -1.6124
 9375TIP3    H249617   0.121   4.013  15.297  1.7398 -1.6000 -0.5753
 9376TIP3   OH249618   2.433   6.474  15.964 -0.3924 -0.2571 -0.0353
 9376TIP3    H149619   2.383   6.554  15.983 -2.2708 -1.1337 -1.2515
 9376TIP3    H249620   2.472   6.490  15.878  0.1871 -0.1961  0.2349
 9377TIP3   OH249621   3.283   5.686  13.363  0.1877 -0.1688 -0.0951
 9377TIP3    H149622   3.223   5.672  13.290  1.0870 -2.6986 -0.4144
 9377TIP3    H249623   3.293   5.781  13.369  0.2724  0.0853 -3.4234
 9378TIP3   OH249624   3.922   6.550  15.273  0.9267  0.6665  0.2211
 9378TIP3    H149625   3.957   6.462  15.286 -2.9848 -1.0015 -0.0193
 9378TIP3    H249626   3.983   6.607  15.320  0.6542 -2.6929  4.9921
 9379TIP3   OH249627   4.858   1.030  14.027 -0.0764  0.3825  0.0253
 9379TIP3    H149628   4.936   1.037  13.971  0.4414 -0.4573  0.6320
 9379TIP3    H249629   4.809   1.111  14.011  0.8408  0.8378 -0.4888
 9380TIP3   OH249630   4.452   6.372  14.472 -0.4581  0.2836 -0.0151
 9380TIP3    H149631   4.509   6.443  14.440 -0.5149 -0.0214 -0.8109
 9380TIP3    H249632   4.369   6.415  14.492  0.0762  0.7474  1.2293
 9381TIP3   OH249633   6.598   5.122   1.915  0.1758  0.2453 -0.3808
 9381TIP3    H149634   6.681   5.112   1.962 -0.6174 -0.2329  0.9234
 9381TIP3    H249635   6.582   5.036   1.876 -0.4098 -0.0592  0.5295
 9382TIP3   OH249636   1.853   7.305  15.236 -0.1036  0.3741  0.0971
 9382TIP3    H149637   1.768   7.263  15.230  1.2594 -2.6529  1.1407
 9382TIP3    H249638   1.906   7.262  15.169  1.3412  0.3648  1.2159
 9383TIP3   OH249639   4.609   6.876  14.519 -0.9411  0.3493 -0.3277
 9383TIP3    H149640   4.609   6.786  14.552 -0.6110 -0.0962 -1.5229
 9383TIP3    H249641   4.697   6.908  14.538 -1.5053  0.9305  1.4259
 9384TIP3   OH249642   3.713   5.089  14.436  0.0410 -0.4130  0.3533
 9384TIP3    H149643   3.729   5.075  14.529  1.5976 -1.0335  0.0129
 9384TIP3    H249644   3.620   5.107  14.430 -0.6459 -3.2376  1.6994
 9385TIP3   OH249645   4.654   5.968  12.678 -0.5330  0.4181 -0.0475
 9385TIP3    H149646   4.742   5.969  12.715 -0.6614  2.3272  0.2741
 9385TIP3    H249647   4.596   5.963  12.754 -0.7242  0.3098 -0.1983
 9386TIP3   OH249648   5.801   3.574   0.547 -0.8306 -0.0549 -0.3165
 9386TIP3    H149649   5.741   3.597   0.476 -0.2541 -1.3304 -1.2439
 9386TIP3    H249650   5.886   3.565   0.504 -0.7757 -2.5721  0.1986
 9387TIP3   OH249651   5.283   6.454  15.024 -0.4020 -0.0865  0.1235
 9387TIP3    H149652   5.237   6.455  14.940  1.8763 -2.1464 -1.2408
 9387TIP3    H249653   5.355   6.516  15.013  0.0860 -0.5862  0.4034
 9388TIP3   OH249654   7.210   5.295  15.070  0.6621 -0.2124  0.3093
 9388TIP3    H149655   7.261   5.260  14.998 -0.1560 -3.0158  1.0294
 9388TIP3    H249656   7.257   5.268  15.149  1.7910  3.1823  0.8847
 9389TIP3   OH249657   4.917   4.760  15.497 -0.2137  0.3285 -0.2597
 9389TIP3    H149658   4.906   4.724  15.585 -0.2656  1.3003  0.1307
 9389TIP3    H249659   4.830   4.753  15.458 -0.6292  1.5690  0.4057
 9390TIP3   OH249660   5.716   5.509  13.206  0.1511  0.8320  1.4279
 9390TIP3    H149661   5.797   5.470  13.172 -0.1367 -0.1146  1.8505
 9390TIP3    H249662   5.737   5.603  13.212  0.3305  0.9929 -1.0645
 9391TIP3   OH249663   3.446   4.967  14.421 -0.1920 -0.5372 -0.1194
 9391TIP3    H149664   3.503   4.890  14.418  0.6797  0.1238 -0.8056
 9391TIP3    H249665   3.393   4.954  14.500  1.9173 -0.4797  1.3533
 9392TIP3   OH249666   5.674   4.858  13.980 -0.2803 -0.1537 -0.1747
 9392TIP3    H149667   5.633   4.772  13.967  1.1797 -0.6978 -1.2784
 9392TIP3    H249668   5.750   4.841  14.035  0.1241  0.4123 -0.5526
 9393TIP3   OH249669   3.647   6.609  15.206 -0.1312  0.4438 -0.8330
 9393TIP3    H149670   3.739   6.592  15.225 -0.2903  0.9102  0.3803
 9393TIP3    H249671   3.614   6.527  15.170  0.5460  0.0088 -0.4712
 9394TIP3   OH249672   4.350   6.545  13.372  0.1632  0.0860  0.2120
 9394TIP3    H149673   4.311   6.458  13.365 -0.8714  0.5120  0.5878
 9394TIP3    H249674   4.410   6.551  13.297  1.4698 -1.5500  1.0719
 9395TIP3   OH249675   0.857   0.918  13.929 -0.2230  0.2485  0.4609
 9395TIP3    H149676   0.823   1.004  13.906  0.9525  0.7513  0.5946
 9395TIP3    H249677   0.804   0.891  14.004 -1.2134  0.4434 -0.1536
 9396TIP3   OH249678   4.566   4.813  14.741  0.1645  0.6482  0.0566
 9396TIP3    H149679   4.511   4.769  14.677  1.0580  0.1636 -0.3930
 9396TIP3    H249680   4.505   4.853  14.802 -0.6668 -1.6417  0.7620
 9397TIP3   OH249681   2.458   6.903  14.605  0.3271 -0.2073  0.3061
 9397TIP3    H149682   2.462   6.814  14.571  1.0598 -0.7672  1.8171
 9397TIP3    H249683   2.548   6.935  14.601 -0.0850  0.8175 -1.1153
 9398TIP3   OH249684   4.839   4.900  13.948  0.3715  0.1284  0.0745
 9398TIP3    H149685   4.746   4.901  13.973 -0.4728 -0.0014 -2.8299
 9398TIP3    H249686   4.863   4.992  13.941 -0.3309  0.1926 -1.7846
 9399TIP3   OH249687   2.370   5.772   0.047 -0.7255 -0.1101  0.3829
 9399TIP3    H149688   2.437   5.826   0.003 -0.5098  0.0294  0.8758
 9399TIP3    H249689   2.406   5.683   0.045  0.2521  0.2111  2.0934
 9400TIP3   OH249690   5.711   1.849  13.533 -0.0565  0.4429 -0.0481
 9400TIP3    H149691   5.655   1.875  13.606  3.0120 -0.9366  2.9119
 9400TIP3    H249692   5.736   1.932  13.491 -1.0172  1.3307  1.0986
 9401TIP3   OH249693   4.099   6.362  15.374  0.6339 -0.4884  0.2424
 9401TIP3    H149694   4.079   6.334  15.464  1.2455 -0.2230  0.4613
 9401TIP3    H249695   4.120   6.280  15.329 -0.8266 -0.7678  0.0304
 9402TIP3   OH249696   3.503   6.942  14.695  0.1933  0.2441  0.0934
 9402TIP3    H149697   3.592   6.910  14.712 -0.2263 -0.5220  0.9206
 9402TIP3    H249698   3.446   6.874  14.731 -0.7351  0.4153 -1.0226
 9403TIP3   OH249699   5.024   2.750  13.576 -0.2948  0.0431 -0.2536
 9403TIP3    H149700   4.952   2.716  13.524  0.5584 -0.9109 -0.8227
 9403TIP3    H249701   4.990   2.749  13.666 -1.2434  0.2976 -0.6018
 9404TIP3   OH249702   4.354   5.876  15.727  0.8249  0.7751 -0.0469
 9404TIP3    H149703   4.290   5.947  15.725  1.5800  1.4644 -0.6579
 9404TIP3    H249704   4.426   5.908  15.672  0.8151 -0.8091 -1.0200
 9405TIP3   OH249705   6.932   5.657   0.138  0.3053 -0.3602  0.0456
 9405TIP3    H149706   6.937   5.566   0.111  0.8801  0.2248 -1.9447
 9405TIP3    H249707   7.000   5.667   0.204  0.0944 -1.4228  0.4176
 9406TIP3   OH249708   3.212   6.488  15.364  0.0745  0.1572 -0.3088
 9406TIP3    H149709   3.288   6.497  15.423  1.2882  0.5783 -1.9032
 9406TIP3    H249710   3.239   6.422  15.301  0.3448  2.4997 -2.7356
 9407TIP3   OH249711   4.044   7.062  13.900  0.4895  0.4189 -0.2064
 9407TIP3    H149712   4.037   7.158  13.897 -1.6608  0.4085  1.9945
 9407TIP3    H249713   4.137   7.044  13.893  0.8177  2.6226 -1.8705
 9408TIP3   OH249714   5.987   3.950  13.900 -0.9305  0.3361  0.1767
 9408TIP3    H149715   6.048   4.013  13.861  0.7838 -2.1864 -1.3392
 9408TIP3    H249716   6.031   3.865  13.891 -3.3360 -1.1383  1.8589
 9409TIP3   OH249717   6.426   4.822  14.603 -0.0342 -0.2888 -0.4829
 9409TIP3    H149718   6.455   4.803  14.513  0.2589 -0.6131 -0.3208
 9409TIP3    H249719   6.370   4.899  14.594  0.0426 -0.2828 -0.9384
 9410TIP3   OH249720   5.146   6.843  15.170  0.6016  0.5623  0.0933
 9410TIP3    H149721   5.103   6.905  15.230 -0.0017 -0.8813  1.1799
 9410TIP3    H249722   5.110   6.758  15.194  1.1652 -0.1821 -1.6288
 9411TIP3   OH249723   4.859   4.990   0.775 -0.1384 -0.2304  0.5266
 9411TIP3    H149724   4.947   5.012   0.806 -1.0305  2.0177  1.5437
 9411TIP3    H249725   4.800   5.028   0.840 -1.9392  0.4779 -1.4718
 9412TIP3   OH249726   4.001   0.573  15.634 -0.2201  0.4987  0.2906
 9412TIP3    H149727   3.942   0.498  15.624 -1.5937  1.6928 -0.8989
 9412TIP3    H249728   3.989   0.624  15.553  2.4433  0.7913  0.0255
 9413TIP3   OH249729   5.065   0.275  15.453 -0.6063  0.4717  0.0460
 9413TIP3    H149730   5.000   0.207  15.466  0.1185 -0.0193  1.1687
 9413TIP3    H249731   5.102   0.257  15.366 -1.7631  0.6005 -0.4808
 9414TIP3   OH249732   6.670   5.908  15.547  0.1686  0.0314 -0.4654
 9414TIP3    H149733   6.681   5.829  15.599 -0.0913 -0.4419 -1.1240
 9414TIP3    H249734   6.575   5.920  15.541  0.2107  0.6566  0.0260
 9415TIP3   OH249735   5.943   5.412   2.460 -0.3792 -0.1004  0.0185
 9415TIP3    H149736   5.856   5.449   2.448 -1.5386 -2.9124 -0.6505
 9415TIP3    H249737   5.970   5.441   2.548 -1.2477  2.1559 -0.4250
 9416TIP3   OH249738   5.212   0.341  13.803  0.2511  0.4462 -0.1215
 9416TIP3    H149739   5.229   0.435  13.811  2.4512  0.0675  0.0492
 9416TIP3    H249740   5.298   0.300  13.816 -0.4783 -1.5350 -1.3383
 9417TIP3   OH249741   4.678   6.295  14.245  0.8351 -0.0425  0.4898
 9417TIP3    H149742   4.636   6.346  14.315  3.0118 -0.3274  2.0729
 9417TIP3    H249743   4.640   6.207  14.255 -1.5936  0.7904 -1.0956
 9418TIP3   OH249744   5.016   7.200  14.701  0.3836  1.0436  0.0423
 9418TIP3    H149745   5.052   7.146  14.772  0.2041 -0.5517 -1.0533
 9418TIP3    H249746   4.932   7.230  14.735 -0.4209 -0.9864 -0.0395
 9419TIP3   OH249747   5.131   1.911  14.971  0.4336  0.4359 -0.7596
 9419TIP3    H149748   5.201   1.895  14.908  0.4719 -0.1461 -0.5671
 9419TIP3    H249749   5.088   1.827  14.981  0.3599  0.5536 -0.0828
 9420TIP3   OH249750   3.348   0.397   0.549 -0.1645  0.5431  0.1886
 9420TIP3    H149751   3.297   0.324   0.515 -1.4916  1.7641 -0.4984
 9420TIP3    H249752   3.365   0.452   0.473  0.1126  1.3730  0.8421
 9421TIP3   OH249753   2.211   6.938  14.512  0.5054 -0.0234  0.1708
 9421TIP3    H149754   2.300   6.917  14.541  0.3288  0.1945  0.9032
 9421TIP3    H249755   2.156   6.880  14.564  0.2568 -0.6955 -0.8292
 9422TIP3   OH249756   5.164   7.335  13.685  0.3960 -0.1038 -0.1305
 9422TIP3    H149757   5.127   7.292  13.608 -0.9226  1.0139 -0.1573
 9422TIP3    H249758   5.148   7.429  13.670 -1.0664  0.0494  2.0942
 9423TIP3   OH249759   2.839   5.466  15.650 -0.5282 -0.3513  0.0230
 9423TIP3    H149760   2.837   5.514  15.566 -0.8287  0.9159  0.7361
 9423TIP3    H249761   2.925   5.486  15.687 -1.8770  2.3597  1.8446
 9424TIP3   OH249762   5.667   1.009   0.696 -0.3330 -0.1586 -0.5041
 9424TIP3    H149763   5.584   1.053   0.715  0.3575  0.4425  1.3262
 9424TIP3    H249764   5.733   1.076   0.712  0.6488 -1.3891  0.7933
 9425TIP3   OH249765   4.383   0.037  13.175 -0.3158 -0.0408  0.7477
 9425TIP3    H149766   4.409   0.052  13.266 -0.0067  0.1141  0.6338
 9425TIP3    H249767   4.406   0.118  13.130 -2.0498  0.5436  0.8677
 9426TIP3   OH249768   4.704   5.792  14.050 -0.2253 -0.0378 -0.0381
 9426TIP3    H149769   4.694   5.740  13.971  0.9525 -1.1071  0.4812
 9426TIP3    H249770   4.798   5.812  14.054 -0.4354  0.8852  0.5413
 9427TIP3   OH249771   7.198   6.715  15.441 -0.4634 -0.1148 -0.0780
 9427TIP3    H149772   7.164   6.802  15.462 -1.8925 -0.7905  0.4831
 9427TIP3    H249773   7.184   6.706  15.346  0.0001  0.3998 -0.1955
 9428TIP3   OH249774   3.869   0.502   0.142 -0.4437  0.1113 -0.0600
 9428TIP3    H149775   3.911   0.418   0.122 -2.2031 -0.5106 -1.2512
 9428TIP3    H249776   3.939   0.555   0.179  1.1849 -1.2190 -1.1259
 9429TIP3   OH249777   3.550   7.324  15.048 -0.0183  0.1160  0.5952
 9429TIP3    H149778   3.488   7.395  15.064  0.8843  0.9633  0.3752
 9429TIP3    H249779   3.636   7.363  15.063  0.5033 -0.8605  0.2132
 9430TIP3   OH249780   5.983   5.250   0.847 -0.3997 -0.1997 -0.5026
 9430TIP3    H149781   5.983   5.345   0.860 -1.8323 -0.3023  0.3387
 9430TIP3    H249782   5.920   5.236   0.776 -1.5640 -0.6559  0.5950
 9431TIP3   OH249783   3.050   4.560  15.585 -0.0497  0.6751 -0.3556
 9431TIP3    H149784   2.958   4.565  15.610 -0.1875 -0.6239 -0.5958
 9431TIP3    H249785   3.065   4.468  15.564  0.9687  1.1186 -1.6247
 9432TIP3   OH249786   5.660   5.159  15.126  0.7711  0.0032 -0.1884
 9432TIP3    H149787   5.707   5.100  15.066 -0.1162  0.3041 -1.2042
 9432TIP3    H249788   5.718   5.168  15.201  0.9524 -2.1381 -0.0308
 9433TIP3   OH249789   2.606   0.506  13.156  0.0474  0.5731  0.2814
 9433TIP3    H149790   2.648   0.588  13.182  2.7403  0.0677 -2.2929
 9433TIP3    H249791   2.543   0.531  13.089  0.3350  0.6280  0.0318
 9434TIP3   OH249792   4.265   4.629  15.059 -0.5883  0.1563 -0.5800
 9434TIP3    H149793   4.206   4.555  15.067 -0.6855  0.2212 -0.6975
 9434TIP3    H249794   4.352   4.591  15.072 -0.7523  0.2966  1.0226
 9435TIP3   OH249795   5.936   5.140  14.113  0.0184 -0.1972  0.0582
 9435TIP3    H149796   5.964   5.179  14.196 -0.7077 -0.0710  0.2551
 9435TIP3    H249797   5.842   5.160  14.109 -0.5200 -2.5048  0.4922
 9436TIP3   OH249798   3.738   6.123  15.185  0.4997  0.0894  0.3638
 9436TIP3    H149799   3.804   6.111  15.253  1.5834 -1.3337 -0.9118
 9436TIP3    H249800   3.785   6.168  15.114 -0.3030  0.4449  0.0511
 9437TIP3   OH249801   6.533   6.057  15.245 -0.8312 -0.1941 -0.9351
 9437TIP3    H149802   6.613   6.107  15.229 -0.7274  0.0931  0.4375
 9437TIP3    H249803   6.504   6.030  15.157  2.8036 -3.5813 -1.1869
 9438TIP3   OH249804   4.678   5.162  14.554 -0.4008  1.1504 -0.6140
 9438TIP3    H149805   4.655   5.080  14.598  0.7269  0.9211 -0.4451
 9438TIP3    H249806   4.691   5.225  14.625  1.0449  0.8741 -0.6086
 9439TIP3   OH249807   4.681   6.234   0.043  0.1162 -0.1310 -0.5137
 9439TIP3    H149808   4.596   6.195   0.063 -0.4700  1.5577  0.3619
 9439TIP3    H249809   4.667   6.279  -0.041 -0.7151  2.5721  0.9982
 9440TIP3   OH249810   4.258   0.325  13.405  0.3525  0.0564 -0.3222
 9440TIP3    H149811   4.241   0.387  13.476  0.1627  0.1941 -0.4854
 9440TIP3    H249812   4.313   0.374  13.344 -0.1480  0.2123 -0.6592
 9441TIP3   OH249813   3.627   0.555  13.619 -0.1646  0.1561  0.8403
 9441TIP3    H149814   3.680   0.624  13.657  0.1084 -0.2953  1.2882
 9441TIP3    H249815   3.536   0.582  13.636 -0.0640  0.4749  0.8763
 9442TIP3   OH249816   0.291   5.115  15.046  0.5123  0.1944 -0.3071
 9442TIP3    H149817   0.294   5.020  15.043  3.1872  0.2011  0.9562
 9442TIP3    H249818   0.332   5.138  15.130 -1.8750  2.3893  0.3120
 9443TIP3   OH249819   3.676   7.107   1.147 -0.8046 -0.5046 -0.4224
 9443TIP3    H149820   3.661   7.032   1.090 -1.9478 -0.8580  0.3319
 9443TIP3    H249821   3.671   7.072   1.236 -1.2838  0.4434 -0.0643
 9444TIP3   OH249822   5.441   6.095  14.967 -0.1519 -0.0664  0.8156
 9444TIP3    H149823   5.506   6.161  14.942  1.2065 -0.6627  2.6643
 9444TIP3    H249824   5.370   6.106  14.903  3.2053 -1.7322 -3.5229
 9445TIP3   OH249825   4.767   4.864  15.938  0.1967 -0.0972 -0.1344
 9445TIP3    H149826   4.696   4.826  15.990 -0.0268 -1.4301 -1.4088
 9445TIP3    H249827   4.844   4.857  15.995 -0.0881 -1.3412  0.1118
 9446TIP3   OH249828   4.705   5.929  14.708  0.2002  0.2376 -0.1758
 9446TIP3    H149829   4.673   5.925  14.798 -0.5351 -0.7433 -0.4694
 9446TIP3    H249830   4.656   6.000  14.668 -0.5565 -0.2928 -0.2079
 9447TIP3   OH249831   3.714   4.600  13.041  0.3019  0.3088 -0.0164
 9447TIP3    H149832   3.796   4.552  13.052  1.0795  1.6559  0.2166
 9447TIP3    H249833   3.728   4.654  12.964 -0.5235  0.2362 -0.2171
 9448TIP3   OH249834   4.122   5.434  15.564  0.2731  0.1729  0.5937
 9448TIP3    H149835   4.085   5.362  15.513 -0.4044  0.4965  0.6188
 9448TIP3    H249836   4.078   5.512  15.530  1.5520  0.6648  0.0429
 9449TIP3   OH249837   4.305   6.261  13.401 -0.2821  0.1869  0.1319
 9449TIP3    H149838   4.333   6.239  13.490  0.5988 -2.0945 -0.6741
 9449TIP3    H249839   4.218   6.220  13.393  0.3105 -0.9476 -0.5634
 9450TIP3   OH249840   3.867   5.145  12.888 -0.0575  0.1262  0.5551
 9450TIP3    H149841   3.911   5.063  12.913 -0.1208  0.4388  1.7114
 9450TIP3    H249842   3.774   5.127  12.899 -0.1777 -0.1938 -0.8700
 9451TIP3   OH249843   4.364   5.479   0.151 -0.2835  0.0757  0.0027
 9451TIP3    H149844   4.402   5.411   0.096 -1.2113  0.8689 -1.6710
 9451TIP3    H249845   4.411   5.559   0.127 -0.6042  0.4093  0.4701
 9452TIP3   OH249846   3.815   7.157  15.547  0.8640  0.2317 -0.0674
 9452TIP3    H149847   3.842   7.065  15.552  2.8622  0.8038 -0.0444
 9452TIP3    H249848   3.897   7.206  15.548 -0.1719  2.0046 -0.5018
 9453TIP3   OH249849   4.483   4.167   0.911  0.0792  0.0364  0.3156
 9453TIP3    H149850   4.478   4.078   0.947 -1.3311  0.4322  1.1420
 9453TIP3    H249851   4.567   4.200   0.941  1.5665 -1.7573 -1.7666
 9454TIP3   OH249852   0.282   5.532  15.102 -0.0084  0.5017  0.8328
 9454TIP3    H149853   0.366   5.495  15.127 -0.1845  0.3417  1.2021
 9454TIP3    H249854   0.241   5.557  15.185 -0.3179  0.5893  0.6553
 9455TIP3   OH249855   5.782   4.703  13.127 -0.1732 -0.2685  0.5771
 9455TIP3    H149856   5.694   4.736  13.143 -1.1811 -2.3188 -0.4515
 9455TIP3    H249857   5.780   4.614  13.162  1.6200 -0.1968  0.9054
 9456TIP3   OH249858   3.943   5.034  15.043 -0.2341  0.0859  0.3719
 9456TIP3    H149859   3.980   5.121  15.059 -0.7814 -0.0125  2.3848
 9456TIP3    H249860   3.970   5.012  14.954  2.8919  0.8371  1.0650
 9457TIP3   OH249861   6.016   3.160  14.238  0.0975  0.0901 -0.1119
 9457TIP3    H149862   6.104   3.194  14.248 -0.9246  2.8620 -0.1203
 9457TIP3    H249863   5.980   3.157  14.326 -0.1161 -0.1691 -0.2047
 9458TIP3   OH249864   5.059   6.959  12.261 -0.3045  0.0544 -0.4857
 9458TIP3    H149865   5.070   6.875  12.217 -0.9992  0.3722 -1.2888
 9458TIP3    H249866   5.029   6.936  12.349 -2.5286 -0.5180 -1.3447
 9459TIP3   OH249867   3.743   6.124  15.625  0.5094  0.3586 -0.3385
 9459TIP3    H149868   3.771   6.173  15.702 -1.2541  1.0052 -0.0929
 9459TIP3    H249869   3.732   6.034  15.656  1.1167  0.3395 -0.1671
 9460TIP3   OH249870   3.171   7.266  13.773  0.6117 -0.0827 -0.1146
 9460TIP3    H149871   3.166   7.360  13.756  1.5441  0.2027  1.1323
 9460TIP3    H249872   3.152   7.225  13.689 -1.1037  1.1934 -0.3843
 9461TIP3   OH249873   4.222   6.145  14.662  0.0004 -0.3787 -0.0368
 9461TIP3    H149874   4.217   6.125  14.568  1.1787 -2.3789  0.2928
 9461TIP3    H249875   4.267   6.069  14.700 -0.4495  0.4203  2.1480
 9462TIP3   OH249876   6.668   5.516  14.513  0.3449 -0.0394  0.0171
 9462TIP3    H149877   6.754   5.488  14.545  1.6985  1.1505 -2.4129
 9462TIP3    H249878   6.653   5.463  14.435 -1.3036 -0.4836  0.6275
 9463TIP3   OH249879   5.256   0.246  15.655 -0.5587  0.2805 -0.2447
 9463TIP3    H149880   5.203   0.238  15.577  1.5414  0.5373 -1.7449
 9463TIP3    H249881   5.306   0.327  15.643 -0.4286  0.4934  1.5036
 9464TIP3   OH249882   4.996   5.874  14.729  0.6021  0.0615  0.2972
 9464TIP3    H149883   4.905   5.899  14.714  1.2802  2.2331 -0.3626
 9464TIP3    H249884   5.023   5.830  14.648  0.2796 -0.1716  0.3153
 9465TIP3   OH249885   2.751   0.465  12.284  0.6977  0.6193  0.1847
 9465TIP3    H149886   2.702   0.547  12.290 -0.1009  0.3474 -2.1790
 9465TIP3    H249887   2.825   0.486  12.227  0.0807 -0.4880 -1.0416
 9466TIP3   OH249888   5.118   6.621  13.738 -0.0598 -0.0229  0.1592
 9466TIP3    H149889   5.213   6.623  13.749  0.4996 -0.1046 -4.0592
 9466TIP3    H249890   5.094   6.711  13.716 -0.4370 -0.6887 -2.2779
 9467TIP3   OH249891   4.392   0.547  14.902 -0.3233 -0.4144 -0.2391
 9467TIP3    H149892   4.360   0.461  14.875 -1.0132 -0.0012 -0.7527
 9467TIP3    H249893   4.323   0.582  14.958  0.7298 -0.9142  1.4016
 9468TIP3   OH249894   3.576   1.236  14.746  0.2513 -0.4497 -0.1111
 9468TIP3    H149895   3.621   1.306  14.700 -0.1573  0.3875  0.7407
 9468TIP3    H249896   3.613   1.238  14.835 -0.4311 -0.6972  0.1827
 9469TIP3   OH249897   4.308   6.541  14.752  0.2535 -0.5260  0.0750
 9469TIP3    H149898   4.235   6.532  14.813 -0.7064 -0.0716 -0.9766
 9469TIP3    H249899   4.377   6.584  14.803 -0.2760 -0.8188  1.0394
 9470TIP3   OH249900   6.062   6.836  15.979  0.4856  0.0239 -0.9673
 9470TIP3    H149901   6.018   6.790  16.050 -0.6350  1.1711 -0.8847
 9470TIP3    H249902   6.019   6.922  15.976  1.0557  0.2773 -2.5024
 9471TIP3   OH249903   5.183   5.714  14.314  0.0116 -0.0827 -0.0774
 9471TIP3    H149904   5.227   5.792  14.283 -0.8006  0.2500 -0.3912
 9471TIP3    H249905   5.105   5.746  14.360  0.2101 -0.6511  0.6772
 9472TIP3   OH249906   3.926   6.048  15.421 -0.2147 -0.3641 -0.0799
 9472TIP3    H149907   3.886   6.105  15.486 -1.2117 -0.7325 -0.3544
 9472TIP3    H249908   3.942   5.966  15.468 -1.9990 -1.0221 -0.5772
 9473TIP3   OH249909   3.440   1.876   0.196 -0.3590  0.0567  0.0750
 9473TIP3    H149910   3.388   1.952   0.222  0.3917 -0.2380  2.5082
 9473TIP3    H249911   3.383   1.801   0.212  0.1176 -0.1313  0.8844
 9474TIP3   OH249912   4.747   6.910  14.123  0.5333 -0.5159 -0.8113
 9474TIP3    H149913   4.732   6.989  14.070  0.4067 -1.0912 -1.6308
 9474TIP3    H249914   4.785   6.847  14.062 -0.6677 -1.5664 -0.4871
 9475TIP3   OH249915   3.805   6.691  14.509 -0.3038  0.3162 -0.1248
 9475TIP3    H149916   3.842   6.608  14.479  1.7335  0.8057  0.9246
 9475TIP3    H249917   3.862   6.758  14.471 -1.2140  1.1800  0.0092
 9476TIP3   OH249918   5.722   6.825  13.447 -0.4135 -0.0271 -0.5995
 9476TIP3    H149919   5.681   6.826  13.361 -0.2431 -0.3374 -0.6842
 9476TIP3    H249920   5.815   6.808  13.430 -0.1987  0.9239 -0.4296
 9477TIP3   OH249921   0.877   6.604   1.752  0.1838  0.0876  0.3404
 9477TIP3    H149922   0.941   6.589   1.682  1.8446  0.0860  1.8024
 9477TIP3    H249923   0.823   6.525   1.753  0.7357 -0.3057 -0.3487
 9478TIP3   OH249924   3.556   1.395  13.913  0.7952  0.1894  0.1025
 9478TIP3    H149925   3.593   1.481  13.895 -1.2077  0.7888 -1.4216
 9478TIP3    H249926   3.489   1.411  13.980  0.9615 -0.3118  0.3892
 9479TIP3   OH249927   4.273   1.235  15.785  0.5475  0.3232 -0.0591
 9479TIP3    H149928   4.266   1.145  15.817  1.1770 -0.2588 -1.4996
 9479TIP3    H249929   4.188   1.274  15.803 -0.0559 -0.8625 -0.2935
 9480TIP3   OH249930   4.269   4.917  14.089 -0.6125  0.4359  0.1975
 9480TIP3    H149931   4.304   4.931  14.001 -0.1933  0.0331  0.3017
 9480TIP3    H249932   4.220   4.835  14.082  0.7782 -0.4509  0.7490
 9481TIP3   OH249933   3.605   4.733  14.314  0.0432 -0.0282  0.0303
 9481TIP3    H149934   3.674   4.668  14.300  0.4924  0.3968  0.2432
 9481TIP3    H249935   3.525   4.682  14.321  0.8814 -0.9070  4.1161
 9482TIP3   OH249936   6.013   5.556  15.339 -0.6518 -0.0866  0.0769
 9482TIP3    H149937   6.000   5.563  15.433  0.0353  1.1534  0.0851
 9482TIP3    H249938   5.933   5.591  15.300 -0.1385  1.2129  0.1834
 9483TIP3   OH249939   5.024   0.027  14.480  1.0508  0.0268 -0.1050
 9483TIP3    H149940   4.955   0.046  14.544 -1.3810 -1.5166 -2.1833
 9483TIP3    H249941   5.082  -0.034  14.526 -0.6092 -1.0078  0.7003
 9484TIP3   OH249942   1.877   5.786  12.672  0.0552  0.4501  0.0133
 9484TIP3    H149943   1.947   5.803  12.609  1.2167 -1.2878  0.7899
 9484TIP3    H249944   1.911   5.819  12.756  0.1319 -0.7602  0.4727
 9485TIP3   OH249945   2.656   7.022   1.219 -0.4879 -0.7873 -0.1537
 9485TIP3    H149946   2.649   7.091   1.286 -0.5489 -1.2826  0.3503
 9485TIP3    H249947   2.724   7.054   1.159 -2.3152  0.9209 -1.3600
 9486TIP3   OH249948   6.301   6.314   1.013  0.1175 -0.1987 -0.0700
 9486TIP3    H149949   6.341   6.353   1.091  0.3810 -1.3978  0.4101
 9486TIP3    H249950   6.211   6.296   1.039  0.0801 -0.1779 -0.1863
 9487TIP3   OH249951   3.326   6.750  11.573 -0.1665  0.4083 -0.4966
 9487TIP3    H149952   3.359   6.662  11.591  1.7964  1.1388 -0.3886
 9487TIP3    H249953   3.235   6.737  11.548 -0.3112 -1.5214  0.9249
 9488TIP3   OH249954   3.459   5.088  12.424  0.2688  0.1244 -0.8754
 9488TIP3    H149955   3.393   5.153  12.449  0.4001 -0.2564  0.5346
 9488TIP3    H249956   3.467   5.096  12.329 -2.0223 -0.0297 -1.1097
 9489TIP3   OH249957   4.357   7.072   0.933 -0.8659 -0.0267  0.1295
 9489TIP3    H149958   4.438   7.048   0.887 -0.6348  0.8213  0.0925
 9489TIP3    H249959   4.378   7.060   1.026 -1.3702 -1.8560  0.0213
 9490TIP3   OH249960   4.612   0.716  14.067 -0.4941  0.5823 -0.6539
 9490TIP3    H149961   4.544   0.730  14.134 -0.4107  1.8308 -0.8151
 9490TIP3    H249962   4.586   0.636  14.023 -1.7633  0.9366 -0.5765
 9491TIP3   OH249963   3.839   0.723  12.824  0.3002  0.4176  0.3295
 9491TIP3    H149964   3.858   0.724  12.730 -2.0002 -1.9927 -0.2398
 9491TIP3    H249965   3.770   0.789  12.835  1.6697  1.8247  0.6275
 9492TIP3   OH249966   3.111   0.179  12.945 -0.0010 -0.3072  0.1969
 9492TIP3    H149967   3.108   0.205  12.853  0.9356  0.3445  0.3460
 9492TIP3    H249968   3.075   0.255  12.992  1.7739  0.3198  0.5562
 9493TIP3   OH249969   2.574   6.627  13.679 -0.6722  0.1395  0.5643
 9493TIP3    H149970   2.609   6.539  13.662 -4.0373 -1.0227 -0.7582
 9493TIP3    H249971   2.511   6.614  13.750 -1.5302  1.3825  0.0462
 9494TIP3   OH249972   4.589   6.776  13.363  0.2744  0.0461 -0.0067
 9494TIP3    H149973   4.555   6.713  13.300  1.2288  1.0114 -1.5364
 9494TIP3    H249974   4.545   6.858  13.341  0.6164  0.3837  0.5746
 9495TIP3   OH249975   3.359   6.588   0.190  0.0059 -0.3791 -0.3912
 9495TIP3    H149976   3.408   6.515   0.152  0.3382 -1.3686  1.8616
 9495TIP3    H249977   3.270   6.554   0.203 -0.5783  0.5272 -1.9169
 9496TIP3   OH249978   4.540   1.665  13.553  0.1458  0.1312 -0.0590
 9496TIP3    H149979   4.514   1.746  13.596 -2.3884 -1.1044  0.8521
 9496TIP3    H249980   4.458   1.617  13.542  1.6268 -2.3796 -0.4210
 9497TIP3   OH249981   5.104   0.760  15.236 -0.2339  0.0132 -0.3961
 9497TIP3    H149982   5.193   0.728  15.245 -0.0540  0.5714 -0.1647
 9497TIP3    H249983   5.052   0.682  15.217  0.2354 -0.3731 -0.1005
 9498TIP3   OH249984   4.766   2.316   0.373 -0.0566  0.1118  0.3532
 9498TIP3    H149985   4.787   2.271   0.292  0.1536 -0.1674  0.5605
 9498TIP3    H249986   4.680   2.356   0.358  0.9867  2.0058 -0.8174
 9499TIP3   OH249987   5.050   0.142  14.130  0.3140  0.2432 -0.8651
 9499TIP3    H149988   5.015   0.183  14.209  0.5081  0.4496 -0.8853
 9499TIP3    H249989   5.023   0.200  14.059  0.5077  0.2866 -0.9041
 9500TIP3   OH249990   2.873   7.137  12.683 -0.6638  0.0035 -0.0028
 9500TIP3    H149991   2.868   7.233  12.678 -1.2265 -0.0600 -0.6948
 9500TIP3    H249992   2.804   7.106  12.625  0.8245 -0.8322 -1.3653
 9501TIP3   OH249993   3.231   6.786  15.601  1.0405 -0.2231 -0.8432
 9501TIP3    H149994   3.246   6.876  15.630 -1.6449 -0.1394  0.4120
 9501TIP3    H249995   3.278   6.732  15.665 -0.3128  0.1753  0.5076
 9502TIP3   OH249996   3.834   1.278  14.571  0.1334  0.3676  0.2652
 9502TIP3    H149997   3.834   1.368  14.537  0.1502 -0.5616 -2.2855
 9502TIP3    H249998   3.755   1.238  14.533  2.0694 -1.7602 -1.6738
 9503TIP3   OH249999   5.045   5.347  15.437 -0.2322 -0.0119 -0.0784
 9503TIP3    H150000   4.962   5.347  15.484  0.4320  0.0784  1.1196
 9503TIP3    H250001   5.078   5.437  15.446  0.1615 -0.1366 -0.2363
 9504TIP3   OH250002   5.238   4.682  15.029 -0.2500  0.1440  0.1478
 9504TIP3    H150003   5.323   4.718  15.000 -0.0206 -0.0350  0.5909
 9504TIP3    H250004   5.196   4.756  15.073 -0.0225  0.0327  0.5512
 9505TIP3   OH250005   5.587   6.087   0.329 -0.6568  0.2610 -0.3564
 9505TIP3    H150006   5.542   6.008   0.300 -1.1554  0.0303  1.0049
 9505TIP3    H250007   5.662   6.055   0.379 -0.9180  0.6295  0.2890
 9506TIP3   OH250008   4.237   0.139   0.395  0.2272  0.1146  0.0910
 9506TIP3    H150009   4.278   0.194   0.462  0.4666 -0.4385  0.3992
 9506TIP3    H250010   4.271   0.172   0.312  0.0910  0.6664  0.2538
 9507TIP3   OH250011   6.442   6.188   0.308 -0.2446 -0.5175 -0.6477
 9507TIP3    H150012   6.530   6.220   0.329 -0.3368 -0.3350 -0.5323
 9507TIP3    H250013   6.456   6.124   0.239 -0.0331 -0.3864 -0.7285
 9508TIP3   OH250014   4.055   5.716   0.095 -0.5958  0.9162 -0.1167
 9508TIP3    H150015   4.094   5.634   0.124 -2.7798 -0.8022 -1.8165
 9508TIP3    H250016   4.090   5.783   0.155  1.1824 -1.2322  1.3084
 9509TIP3   OH250017   6.311   4.101  15.094 -0.1769  0.3853 -0.0554
 9509TIP3    H150018   6.247   4.172  15.092  0.1975  0.7597  0.9295
 9509TIP3    H250019   6.365   4.119  15.171 -0.3349 -1.1897  0.4586
 9510TIP3   OH250020   4.364   6.692  14.996 -0.8636 -0.1008 -0.7256
 9510TIP3    H150021   4.357   6.784  15.020  0.5644 -0.5798  1.7119
 9510TIP3    H250022   4.457   6.671  15.007 -0.7307 -1.2577 -3.5517
 9511TIP3   OH250023   4.275   5.450  13.572  0.4797 -0.2789  0.1794
 9511TIP3    H150024   4.251   5.446  13.479  0.4430  0.9089  0.1382
 9511TIP3    H250025   4.276   5.543  13.593 -0.2009 -0.5786  1.5597
 9512TIP3   OH250026   5.230   6.209   0.556 -0.5807  0.2501  0.1377
 9512TIP3    H150027   5.296   6.158   0.603 -1.6490  1.2085  2.7848
 9512TIP3    H250028   5.161   6.145   0.535  0.1995 -0.3156 -0.7252
 9513TIP3   OH250029   4.483   6.039   1.987  0.0618  0.2127  0.2609
 9513TIP3    H150030   4.463   5.966   2.044 -0.5430  0.3895  0.2778
 9513TIP3    H250031   4.567   6.016   1.946 -0.9764 -1.3158 -1.0746
 9514TIP3   OH250032   3.992   6.444  15.766  0.0707  0.1299  0.7663
 9514TIP3    H150033   4.087   6.446  15.777  0.4425 -3.0731 -1.1324
 9514TIP3    H250034   3.958   6.438  15.855  1.6871  0.1009  1.4043
 9515TIP3   OH250035   1.623   6.157   0.697 -0.1004 -0.2016 -0.6375
 9515TIP3    H150036   1.596   6.236   0.744 -1.0339 -0.4332 -0.7670
 9515TIP3    H250037   1.712   6.175   0.669  0.3647  0.0570  0.9811
 9516TIP3   OH250038   4.842   5.991  12.871  0.0899  0.3975  0.1838
 9516TIP3    H150039   4.816   5.951  12.954  1.7607  1.9987  1.5107
 9516TIP3    H250040   4.931   6.024  12.887  0.3661  0.9010 -2.1853
 9517TIP3   OH250041   4.027   4.999  14.771  0.1170 -0.1866 -0.5857
 9517TIP3    H150042   3.975   5.061  14.721  0.7971  2.0937  1.4056
 9517TIP3    H250043   3.971   4.923  14.781 -1.8295  1.1947 -0.7149
 9518TIP3   OH250044   4.224   5.864  14.431 -0.3882  0.5769  0.0158
 9518TIP3    H150045   4.259   5.954  14.431 -1.0180  0.8395  2.1618
 9518TIP3    H250046   4.253   5.827  14.514  1.3165 -1.8161 -1.5711
 9519TIP3   OH250047   1.786   7.255   0.749  0.3536 -0.2101  0.0157
 9519TIP3    H150048   1.732   7.326   0.784  0.4987 -0.2940  0.4126
 9519TIP3    H250049   1.857   7.298   0.704  0.2491 -0.1000 -0.0441
 9520TIP3   OH250050   4.111   4.686  14.042  0.2463 -0.3710  0.1943
 9520TIP3    H150051   4.029   4.674  14.091  0.0909 -0.5435 -0.1086
 9520TIP3    H250052   4.083   4.703  13.952  0.5347 -0.1266  0.1489
 9521TIP3   OH250053   4.294   5.954  14.865  0.2874 -0.0195  0.3323
 9521TIP3    H150054   4.242   5.928  14.940  0.7282 -0.3853  0.5146
 9521TIP3    H250055   4.340   6.033  14.894 -0.4143  0.4883  0.0604
 9522TIP3   OH250056   0.541   0.070   0.632 -0.1542 -0.5552 -0.3177
 9522TIP3    H150057   0.485  -0.008   0.631  0.3827 -0.9468 -0.3143
 9522TIP3    H250058   0.504   0.126   0.700 -0.6189 -0.7531 -0.4083
 9523TIP3   OH250059   4.256   4.493  14.439  0.1836  0.0498  0.5728
 9523TIP3    H150060   4.190   4.463  14.376 -0.2735  1.7730  0.1832
 9523TIP3    H250061   4.328   4.431  14.430  0.7250  1.0119 -2.6820
 9524TIP3   OH250062   3.899   1.946  14.857 -0.6588  0.4624  0.1961
 9524TIP3    H150063   3.806   1.965  14.855 -0.8437 -0.1909  1.7463
 9524TIP3    H250064   3.932   1.994  14.934 -0.0545 -0.7207  0.6874
 9525TIP3   OH250065   5.017   5.977   0.533 -0.0313 -0.0604 -0.2987
 9525TIP3    H150066   4.952   6.039   0.499 -0.5986 -0.7009 -0.3821
 9525TIP3    H250067   4.967   5.922   0.594  0.9398  1.0067  1.5165
 9526TIP3   OH250068   6.207   5.435  14.070 -0.1392 -0.3914  0.1936
 9526TIP3    H150069   6.231   5.464  14.158  1.7552  1.2236 -0.8270
 9526TIP3    H250070   6.192   5.341  14.079  0.8250 -0.3878  2.0699
 9527TIP3   OH250071   4.648   7.235  14.437 -0.0363  0.5288  0.5364
 9527TIP3    H150072   4.707   7.179  14.386 -1.2631 -1.6120  1.4076
 9527TIP3    H250073   4.707   7.286  14.493  1.0996 -0.1953  0.0260
 9528TIP3   OH250074   4.099   7.037  14.897  0.3121  0.1769  0.2051
 9528TIP3    H150075   4.114   7.110  14.837 -2.4392  0.4910 -0.1284
 9528TIP3    H250076   4.072   6.965  14.842 -0.5519 -0.0368  0.8981
 9529TIP3   OH250077   3.752   0.225  14.939  0.2397 -0.3254 -0.3738
 9529TIP3    H150078   3.772   0.319  14.935 -1.1800 -0.0333 -0.7936
 9529TIP3    H250079   3.748   0.197  14.848 -1.1864 -0.3810 -0.3086
 9530TIP3   OH250080   5.216   6.177  14.831 -0.2972 -0.0193  0.0385
 9530TIP3    H150081   5.167   6.139  14.758 -1.5308 -1.7317  1.7153
 9530TIP3    H250082   5.151   6.188  14.900  1.3854 -1.0895  1.8428
 9531TIP3   OH250083   6.655   6.812  14.639 -0.8218 -0.5592  0.0887
 9531TIP3    H150084   6.701   6.733  14.665 -0.1543 -0.0053  0.5893
 9531TIP3    H250085   6.618   6.791  14.553  1.2231 -0.6626 -0.7846
 9532TIP3   OH250086   5.636   5.865   0.628 -0.3705 -0.0302 -0.1487
 9532TIP3    H150087   5.663   5.954   0.607 -1.2195 -0.2315 -2.1707
 9532TIP3    H250088   5.566   5.875   0.692 -0.0928  0.7308  0.0315
 9533TIP3   OH250089   3.335   0.804  13.929  0.3999  0.2103 -0.5854
 9533TIP3    H150090   3.287   0.721  13.925 -0.6829  0.8871 -2.7069
 9533TIP3    H250091   3.308   0.844  14.011 -0.9570 -0.4469 -0.7020
 9534TIP3   OH250092   6.184   7.309  15.631  0.2814  0.1782 -0.2754
 9534TIP3    H150093   6.223   7.241  15.686  0.0472  0.1580 -0.1368
 9534TIP3    H250094   6.135   7.364  15.691  0.2547  0.3180 -0.4253
 9535TIP3   OH250095   4.049   6.842  15.736  0.3540  0.5611  0.0102
 9535TIP3    H150096   4.032   6.846  15.830  1.5110 -0.4530  0.2736
 9535TIP3    H250097   3.964   6.822  15.697 -0.0937  0.7836  0.8499
 9536TIP3   OH250098   5.905   3.459  13.162  0.1493 -0.5800  0.2028
 9536TIP3    H150099   5.960   3.535  13.179 -1.6716  0.6895  0.5417
 9536TIP3    H250100   5.926   3.434  13.072  1.2804 -0.1328  0.3373
 9537TIP3   OH250101   5.015   6.797  14.045 -0.6260 -0.0525 -0.4828
 9537TIP3    H150102   4.997   6.715  14.093  1.0293 -0.0656  0.1698
 9537TIP3    H250103   4.992   6.777  13.954  1.7408 -1.9629 -0.7131
 9538TIP3   OH250104   5.278   3.912  15.401 -0.4959  0.4653  0.2927
 9538TIP3    H150105   5.235   3.969  15.337  0.4888  0.3107 -0.5274
 9538TIP3    H250106   5.353   3.963  15.432 -0.8869  0.4829  1.2266
 9539TIP3   OH250107   6.611   5.387  15.616  0.4910 -0.3198 -0.5016
 9539TIP3    H150108   6.599   5.292  15.624  0.1924 -0.1524  1.2892
 9539TIP3    H250109   6.704   5.401  15.631  0.4438 -0.2954 -0.2135
 9540TIP3   OH250110   3.979   5.906  14.201 -0.0351  0.1441 -0.1490
 9540TIP3    H150111   3.887   5.882  14.200  0.1227 -0.4741 -1.5931
 9540TIP3    H250112   4.013   5.871  14.284 -0.6775 -1.2696 -0.4809
 9541TIP3   OH250113   5.240   5.996  15.665 -0.0666  0.3351 -0.4264
 9541TIP3    H150114   5.309   5.971  15.603 -0.0047  0.8778 -0.5849
 9541TIP3    H250115   5.280   6.063  15.720 -0.1112 -0.1819  0.2296
 9542TIP3   OH250116   5.994   6.291   1.398  0.0914 -0.0886 -0.2199
 9542TIP3    H150117   6.076   6.318   1.356 -0.6353 -0.3111 -1.8169
 9542TIP3    H250118   6.021   6.231   1.467  1.4071  1.2715  0.4728
 9543TIP3   OH250119   3.587   0.410  14.666 -0.4054  0.4477 -0.1828
 9543TIP3    H150120   3.519   0.382  14.727 -0.1964  1.7330  0.6646
 9543TIP3    H250121   3.657   0.443  14.722  1.0467 -1.1225 -1.0474
 9544TIP3   OH250122   4.615   0.304  11.320 -0.4624 -0.3343 -0.2232
 9544TIP3    H150123   4.663   0.382  11.349  2.3366 -1.4268 -1.6358
 9544TIP3    H250124   4.624   0.242  11.393 -1.8120  0.3175  0.4916
 9545TIP3   OH250125   5.758   5.573  15.970  0.2251  0.4758 -0.4920
 9545TIP3    H150126   5.692   5.505  15.954  0.0224 -0.3100  3.1814
 9545TIP3    H250127   5.842   5.531  15.951  0.0638 -0.7310  1.2874
 9546TIP3   OH250128   7.339   4.740  14.235  0.2521 -0.3707  0.1252
 9546TIP3    H150129   7.407   4.703  14.179  0.4641 -1.7515  1.2349
 9546TIP3    H250130   7.321   4.670  14.299  0.2244  1.2485  1.9297
 9547TIP3   OH250131   6.338   5.771  13.646 -0.1683 -0.2969  0.2507
 9547TIP3    H150132   6.416   5.743  13.693 -0.4538 -0.6241  0.5327
 9547TIP3    H250133   6.344   5.726  13.561 -0.9504 -1.7473  0.9452
 9548TIP3   OH250134   4.663   4.276   0.549  0.7573 -0.5392  0.9198
 9548TIP3    H150135   4.585   4.291   0.603 -0.8070 -0.6189 -1.2176
 9548TIP3    H250136   4.662   4.348   0.485  1.2342 -1.7420 -0.4617
 9549TIP3   OH250137   2.977   0.758  13.750 -0.6344  0.6139 -0.0824
 9549TIP3    H150138   3.029   0.695  13.700 -1.4690  1.1375 -1.6406
 9549TIP3    H250139   2.923   0.704  13.808 -0.7684 -0.0752 -0.8378
 9550TIP3   OH250140   4.156   7.218  14.474  0.3684 -0.4011 -0.6218
 9550TIP3    H150141   4.120   7.307  14.476 -0.1269 -0.6133  0.4968
 9550TIP3    H250142   4.247   7.228  14.500  0.5530 -0.1236 -1.3516
 9551TIP3   OH250143   7.096   5.534  15.774 -0.5542  0.0105 -0.2755
 9551TIP3    H150144   7.184   5.561  15.746 -0.2194  0.1175  0.8219
 9551TIP3    H250145   7.111   5.491  15.858 -1.6620  1.0187  0.4597
 9552TIP3   OH250146   6.725   5.692  15.279 -0.8225 -0.0547 -0.1176
 9552TIP3    H150147   6.771   5.704  15.196 -2.2863 -2.0857 -1.2589
 9552TIP3    H250148   6.703   5.781  15.307  1.0949  0.7484 -1.0671
 9553TIP3   OH250149   3.933   5.484  14.054 -0.2547 -0.1434  0.1637
 9553TIP3    H150150   3.965   5.559  14.105 -1.3880 -0.0498  0.7505
 9553TIP3    H250151   3.958   5.503  13.964 -1.4247  1.4272  0.1610
 9554TIP3   OH250152   6.196   5.563   0.023  0.1292 -0.3580  0.2306
 9554TIP3    H150153   6.284   5.524   0.018  0.5746  0.8742 -2.4385
 9554TIP3    H250154   6.138   5.493  -0.006  0.0086 -1.6832  3.4720
 9555TIP3   OH250155   5.174   5.311  13.574 -0.1782  0.8867  0.1434
 9555TIP3    H150156   5.266   5.295  13.593 -0.5196 -1.5989 -0.1494
 9555TIP3    H250157   5.169   5.313  13.478 -0.7888 -1.5018  0.0951
 9556TIP3   OH250158   5.144   5.437  14.840  0.2851  0.0367  0.1460
 9556TIP3    H150159   5.183   5.511  14.887  0.5632  0.1083 -0.1922
 9556TIP3    H250160   5.100   5.477  14.765  1.2025 -0.2284 -0.5350
 9557TIP3   OH250161   3.968   5.943  14.975  0.6908 -0.3962  0.5063
 9557TIP3    H150162   3.960   6.039  14.982  2.6300 -0.2542  1.0030
 9557TIP3    H250163   3.881   5.914  14.947 -0.3942  1.3737  1.8791
 9558TIP3   OH250164   3.295   0.582  15.365  0.0397 -0.3051 -0.1422
 9558TIP3    H150165   3.388   0.565  15.384  0.0942 -0.9163 -0.9149
 9558TIP3    H250166   3.248   0.544  15.439  0.3438 -1.1857 -0.3890
 9559TIP3   OH250167   2.396   6.437  14.886  0.2842  0.2739  0.3412
 9559TIP3    H150168   2.450   6.446  14.808 -0.6513  2.1091 -0.1164
 9559TIP3    H250169   2.315   6.396  14.854 -0.0753  0.9717  0.3648
 9560TIP3   OH250170   5.614   4.400  13.929  0.2729 -0.3056  0.5601
 9560TIP3    H150171   5.699   4.360  13.947  0.6471  0.6098  0.8927
 9560TIP3    H250172   5.612   4.409  13.833  0.9867  0.5601  0.6136
 9561TIP3   OH250173   4.486   6.730  14.141 -0.6467 -0.8998 -0.5131
 9561TIP3    H150174   4.463   6.716  14.232 -0.6313  0.0661 -0.3597
 9561TIP3    H250175   4.581   6.719  14.137 -0.6974 -1.3427 -0.4882
 9562TIP3   OH250176   4.522   1.917  15.682 -0.4264  0.4314  0.1011
 9562TIP3    H150177   4.550   1.880  15.765 -1.2770 -1.0558 -0.2365
 9562TIP3    H250178   4.427   1.928  15.691 -0.7992 -1.3099 -1.1999
 9563TIP3   OH250179   3.516   6.533  13.721  0.2470 -0.3271 -0.0421
 9563TIP3    H150180   3.558   6.606  13.766  1.8917 -1.9022  1.0603
 9563TIP3    H250181   3.585   6.495  13.667 -0.4952 -1.2719 -0.3463
 9564TIP3   OH250182   1.873   6.073  12.517 -0.2175  0.3313  0.5574
 9564TIP3    H150183   1.940   6.121  12.567 -0.1902 -0.9390  1.7910
 9564TIP3    H250184   1.858   6.126  12.439  2.7941  0.2832 -0.1290
 9565TIP3   OH250185   3.993   4.738  15.737  0.3163 -0.5612 -0.2070
 9565TIP3    H150186   3.948   4.657  15.761 -0.2373 -0.6987 -1.6250
 9565TIP3    H250187   3.943   4.772  15.663  1.9965 -0.2387 -1.2298
 9566TIP3   OH250188   2.109   5.488   0.770 -0.2339  0.2351  0.6802
 9566TIP3    H150189   2.180   5.428   0.793  0.0623  0.2153 -0.2711
 9566TIP3    H250190   2.061   5.501   0.852 -1.8864 -3.3881  0.3548
 9567TIP3   OH250191   3.704   7.090  14.076  0.4780  0.4645 -0.3092
 9567TIP3    H150192   3.783   7.038  14.062  1.3351  1.2728  1.4924
 9567TIP3    H250193   3.726   7.177  14.044  0.4904  0.8247  0.6754
 9568TIP3   OH250194   4.224   1.813   0.712 -0.0229 -0.3751 -0.6788
 9568TIP3    H150195   4.258   1.766   0.788 -2.6297 -0.3907  0.5291
 9568TIP3    H250196   4.254   1.903   0.724 -1.4756 -0.1030  1.0607
 9569TIP3   OH250197   6.815   1.810  15.760 -0.1681  0.1012  0.0026
 9569TIP3    H150198   6.844   1.856  15.839 -1.1103 -0.4579  0.6930
 9569TIP3    H250199   6.864   1.728  15.760 -2.0294 -1.0567  1.4253
 9570TIP3   OH250200   6.439   5.287  14.903  0.2931  0.7135  0.0481
 9570TIP3    H150201   6.462   5.373  14.940  0.8145  0.9156 -0.7371
 9570TIP3    H250202   6.513   5.231  14.927 -0.7054  0.0974  1.8187
 9571TIP3   OH250203   6.084   1.186  14.214  0.2006 -0.5289  0.3392
 9571TIP3    H150204   6.050   1.199  14.125 -0.4606 -0.2041  0.6288
 9571TIP3    H250205   6.017   1.133  14.258  0.1025  0.0315  0.8891
 9572TIP3   OH250206   1.023   6.432  14.835  0.4883  0.3817 -0.4487
 9572TIP3    H150207   0.990   6.407  14.922  0.7580 -1.4205 -0.8439
 9572TIP3    H250208   1.116   6.446  14.847  0.4983  0.2844 -0.4133
 9573TIP3   OH250209   0.723   6.072  14.310 -1.0995 -0.1151  0.4003
 9573TIP3    H150210   0.765   6.157  14.314  0.0346 -0.6047 -0.7666
 9573TIP3    H250211   0.718   6.043  14.401 -0.7632  0.8382  0.7225
 9574TIP3   OH250212   0.751   2.650  12.426 -0.2244 -0.1576  0.1284
 9574TIP3    H150213   0.813   2.682  12.492  1.3437 -0.6651 -1.0791
 9574TIP3    H250214   0.748   2.555  12.440  0.7204 -0.3639 -1.0362
 9575TIP3   OH250215   5.242   1.682  14.322  1.1028  0.7188 -0.2443
 9575TIP3    H150216   5.217   1.769  14.293  0.2554 -0.5449 -3.4819
 9575TIP3    H250217   5.313   1.656  14.263  0.3255 -1.3694 -0.3112
 9576TIP3   OH250218   4.936   0.083   0.761 -0.0577 -0.2727 -0.2233
 9576TIP3    H150219   5.019   0.062   0.719  0.9865  0.7564  1.2784
 9576TIP3    H250220   4.890   0.139   0.699  0.8055 -0.0270 -0.6431
 9577TIP3   OH250221   7.069   6.654   1.099  0.4286 -0.3806 -0.3984
 9577TIP3    H150222   7.105   6.573   1.137 -0.5153  0.5221  2.5918
 9577TIP3    H250223   7.131   6.722   1.124 -1.6039  0.6732  2.0380
 9578TIP3   OH250224   7.169   5.399   0.010 -0.1080  0.3338  0.2653
 9578TIP3    H150225   7.219   5.361   0.083 -0.2823  0.0217  0.2216
 9578TIP3    H250226   7.078   5.382   0.033 -0.1420 -0.2510 -0.2888
 9579TIP3   OH250227   6.047   5.253   0.219 -0.2080  0.2634 -0.1398
 9579TIP3    H150228   5.960   5.277   0.249 -0.1557  0.5646 -0.2252
 9579TIP3    H250229   6.031   5.200   0.140 -0.3059  0.5676 -0.3266
 9580TIP3   OH250230   3.751   7.114  13.662  0.3778 -0.4297 -0.1569
 9580TIP3    H150231   3.799   7.047  13.712  0.9106  0.8526  1.0718
 9580TIP3    H250232   3.662   7.109  13.696  1.2599  2.0876  2.7224
 9581TIP3   OH250233   6.776   1.527   0.011  0.6685  0.0812 -0.3569
 9581TIP3    H150234   6.746   1.475  -0.063  0.5181  1.6717 -1.4319
 9581TIP3    H250235   6.702   1.584   0.032  0.9828  0.1701  0.5341
 9582TIP3   OH250236   6.583   4.566  15.942 -0.2810 -0.3161  0.6625
 9582TIP3    H150237   6.528   4.493  15.914  0.9488  0.1143 -3.1835
 9582TIP3    H250238   6.654   4.524  15.991 -0.9819 -1.4179  0.7743
 9583TIP3   OH250239   5.424   5.569  14.764 -0.2092 -0.6004  0.5848
 9583TIP3    H150240   5.340   5.614  14.773  0.1031 -0.1131  1.0672
 9583TIP3    H250241   5.473   5.621  14.700  0.4640  0.2273  1.7500
 9584TIP3   OH250242   6.880   1.949   0.431  0.4435  0.4017  0.2759
 9584TIP3    H150243   6.952   1.993   0.387  1.3675  0.3574  1.7026
 9584TIP3    H250244   6.837   2.017   0.482 -0.0394  0.2623  0.0613
 9585TIP3   OH250245   6.415   5.925  15.454 -0.3450 -0.1158  0.2952
 9585TIP3    H150246   6.464   5.971  15.386  1.6837 -0.6492  1.3574
 9585TIP3    H250247   6.366   5.858  15.406  0.7572 -0.2389 -0.7096
 9586TIP3   OH250248   6.690   5.715   2.372 -0.1465  0.2436 -0.0641
 9586TIP3    H150249   6.627   5.752   2.435  0.4555 -0.1571  0.7749
 9586TIP3    H250250   6.739   5.650   2.422  0.2954 -0.1281 -0.9692
 9587TIP3   OH250251   6.910   5.388   0.041  0.4891 -0.0631 -0.3987
 9587TIP3    H150252   6.872   5.309   0.081 -1.0655  1.5087  1.3619
 9587TIP3    H250253   6.868   5.394  -0.045  0.9357 -1.3695 -0.7219
 9588TIP3   OH250254   6.890   5.488  15.603  0.1703 -0.2268  0.1516
 9588TIP3    H150255   6.891   5.583  15.609 -0.2818 -0.3279  2.7538
 9588TIP3    H250256   6.963   5.459  15.659 -1.5837 -1.4304  1.9120
 9589TIP3   OH250257   5.965   6.122  14.669  0.1261  0.0443  0.0926
 9589TIP3    H150258   6.007   6.208  14.670  1.3575 -0.5206 -0.7846
 9589TIP3    H250259   5.958   6.097  14.761 -3.2401  2.4764  0.5737
 9590TIP3   OH250260   6.315   4.061  15.628  0.2651 -0.2507 -0.1603
 9590TIP3    H150261   6.349   4.145  15.660 -0.2570 -0.8573  2.0417
 9590TIP3    H250262   6.386   4.027  15.574  0.9894  1.0227 -0.0429
 9591TIP3   OH250263   4.452   5.223  14.790 -0.6469  0.1505 -0.2215
 9591TIP3    H150264   4.517   5.232  14.859 -0.7143 -0.0164 -0.1353
 9591TIP3    H250265   4.369   5.247  14.832 -0.7395 -0.2960 -0.1508
 9592TIP3   OH250266   0.527   5.651  14.911  0.1596 -0.3290  0.1232
 9592TIP3    H150267   0.488   5.635  14.997  0.1465  0.2404  0.2276
 9592TIP3    H250268   0.531   5.747  14.904 -0.2770 -0.3639 -0.7053
 9593TIP3   OH250269   1.154   2.862  12.084 -0.0094 -0.1814 -0.1372
 9593TIP3    H150270   1.203   2.889  12.006 -0.1343  2.1559  0.5643
 9593TIP3    H250271   1.176   2.770  12.095 -0.2746 -0.6549 -3.1381
 9594TIP3   OH250272   5.932   0.817  14.278  0.3600  0.0484 -0.4524
 9594TIP3    H150273   5.960   0.883  14.340  3.0029 -1.1894 -0.2640
 9594TIP3    H250274   5.845   0.846  14.250 -0.8279  0.7681  3.5916
 9595TIP3   OH250275   5.414   6.955  13.756  0.1318  0.1910  0.3608
 9595TIP3    H150276   5.452   6.870  13.777 -0.2322 -0.1293 -0.2560
 9595TIP3    H250277   5.487   7.017  13.762  0.3430 -0.1216  1.0650
 9596TIP3   OH250278   4.893   6.102  14.515  0.2398  0.1707  0.7896
 9596TIP3    H150279   4.817   6.160  14.512 -0.4296 -0.7669 -1.1126
 9596TIP3    H250280   4.962   6.156  14.554 -0.3325  2.3192 -1.0643
 9597TIP3   OH250281   7.143   6.968  14.814 -0.3605 -0.1075 -0.3334
 9597TIP3    H150282   7.111   7.057  14.823  0.5999  0.2664 -0.5430
 9597TIP3    H250283   7.067   6.913  14.832 -0.8020  0.7432  0.4457
 9598TIP3   OH250284   0.320   6.165  14.548  0.4914 -0.6870 -0.2262
 9598TIP3    H150285   0.331   6.095  14.483  1.4814  0.3047 -1.1451
 9598TIP3    H250286   0.334   6.246  14.498 -0.7201  0.1724  0.8099
 9599TIP3   OH250287   5.953   7.260  13.598 -0.1369 -0.4907 -0.2565
 9599TIP3    H150288   5.975   7.204  13.672 -1.3637 -0.1573  0.3815
 9599TIP3    H250289   5.860   7.281  13.611  0.0851  0.9835 -0.9325
 9600TIP3   OH250290   5.582   6.620  13.585 -0.3948  0.2687  0.0024
 9600TIP3    H150291   5.626   6.701  13.560 -1.0164  0.3417 -0.9055
 9600TIP3    H250292   5.509   6.648  13.640  0.3270  0.1927  1.0119
 9601TIP3   OH250293   4.585   6.644  15.265 -0.1818 -0.1732 -0.4870
 9601TIP3    H150294   4.611   6.719  15.319  2.6467 -2.9388  2.1502
 9601TIP3    H250295   4.514   6.602  15.314 -0.0705 -0.6514 -0.7271
 9602TIP3   OH250296   3.798   6.509   1.496 -0.1357 -0.2430 -0.3802
 9602TIP3    H150297   3.874   6.564   1.478 -0.2337 -0.6336 -2.1545
 9602TIP3    H250298   3.745   6.559   1.558  1.5953 -0.0051  0.9374
 9603TIP3   OH250299   4.811   6.339   0.700  0.1492 -0.1592 -0.0924
 9603TIP3    H150300   4.836   6.294   0.619  2.2374  1.4068 -0.3404
 9603TIP3    H250301   4.888   6.389   0.725 -1.0464  0.7253  1.9633
 9604TIP3   OH250302   0.248   0.573  14.960  0.4992  0.0671 -0.1366
 9604TIP3    H150303   0.340   0.552  14.946  0.0561 -0.9327 -1.6381
 9604TIP3    H250304   0.221   0.622  14.882 -0.3557 -0.0294  0.0844
 9605TIP3   OH250305   5.815   4.977  13.645  0.2868 -0.5112  0.4212
 9605TIP3    H150306   5.847   5.059  13.606  0.1287 -0.9230 -0.5988
 9605TIP3    H250307   5.870   4.963  13.722 -1.0722  1.6633  1.8473
 9606TIP3   OH250308   4.579   7.209  11.551  0.0145  0.0830  0.3577
 9606TIP3    H150309   4.588   7.193  11.457 -1.7929 -0.1622  0.2007
 9606TIP3    H250310   4.545   7.126  11.586 -0.6724  0.6350  1.0001
 9607TIP3   OH250311   4.042   0.005  13.914  0.5595 -0.4596  0.8051
 9607TIP3    H150312   3.957   0.048  13.899  0.2332 -1.1734  0.6007
 9607TIP3    H250313   4.104   0.059  13.865 -0.3187 -2.0126 -2.1148
 9608TIP3   OH250314   1.344   6.962  15.123  0.2966 -0.0001  0.2757
 9608TIP3    H150315   1.305   7.049  15.113  1.9191  0.6251 -0.8715
 9608TIP3    H250316   1.291   6.920  15.190 -2.0236  0.9944 -0.8537
 9609TIP3   OH250317   6.286   7.299  15.919 -0.1087  0.4754 -0.2321
 9609TIP3    H150318   6.326   7.299  16.006  1.2088  2.6484 -0.7992
 9609TIP3    H250319   6.256   7.388  15.906 -1.4742 -0.1439 -1.5076
 9610TIP3   OH250320   6.060   6.550  14.731 -0.3312 -0.1531 -0.7153
 9610TIP3    H150321   6.153   6.537  14.711 -0.4283  0.0616 -1.3279
 9610TIP3    H250322   6.059   6.615  14.800 -0.0984  1.4970 -2.2345
 9611TIP3   OH250323   4.285   5.784   1.169  0.0999 -0.5474 -0.1765
 9611TIP3    H150324   4.312   5.764   1.259  0.0392  0.5204  0.0900
 9611TIP3    H250325   4.190   5.770   1.169 -0.2725  1.7574  0.5891
 9612TIP3   OH250326   5.526   0.269  12.456 -0.2766  0.3433 -0.4104
 9612TIP3    H150327   5.474   0.346  12.432 -1.8697 -0.0841  1.5071
 9612TIP3    H250328   5.528   0.270  12.552  0.1130 -1.7169 -0.3686
 9613TIP3   OH250329   4.287   7.241   2.623 -0.4469 -0.6028  0.5855
 9613TIP3    H150330   4.271   7.159   2.577  1.5766 -0.7146  0.0038
 9613TIP3    H250331   4.350   7.218   2.692  0.2861  0.4921  0.2960
 9614TIP3   OH250332   5.835   6.662  14.079 -0.5169 -0.2915 -0.5203
 9614TIP3    H150333   5.773   6.589  14.070  0.4963 -1.3534  0.7416
 9614TIP3    H250334   5.913   6.621  14.118  0.2396  1.3925 -0.2394
 9615TIP3   OH250335   4.548   0.292  15.210  0.0722  0.3366  0.5013
 9615TIP3    H150336   4.514   0.304  15.298 -0.9693 -2.3725  0.5103
 9615TIP3    H250337   4.504   0.359  15.158 -0.5106  0.9113  1.7118
 9616TIP3   OH250338   6.122   4.578  14.469 -0.7030 -0.3738  0.3339
 9616TIP3    H150339   6.121   4.488  14.437 -1.1941 -0.9230  1.8548
 9616TIP3    H250340   6.160   4.572  14.557 -1.0093  0.8477  0.5600
 9617TIP3   OH250341   6.815   4.710  13.808 -0.0098 -0.0286  0.0599
 9617TIP3    H150342   6.868   4.653  13.864  0.0206  0.0920  0.1531
 9617TIP3    H250343   6.730   4.715  13.851  0.0820  0.2420  0.2102
 9618TIP3   OH250344   0.634   5.819  15.218  0.0606  0.2633 -0.1623
 9618TIP3    H150345   0.677   5.752  15.166 -0.5356  0.7800 -1.3437
 9618TIP3    H250346   0.607   5.774  15.298  1.0401 -0.5250 -0.2664
 9619TIP3   OH250347   7.273   5.687  14.675  0.1188  0.7699 -0.2177
 9619TIP3    H150348   7.325   5.699  14.754  1.0075  0.5979 -0.7801
 9619TIP3    H250349   7.306   5.607  14.635 -0.9394  0.3579 -0.2985
 9620TIP3   OH250350   7.253   5.967  14.741  0.0595  0.0900  0.4009
 9620TIP3    H150351   7.245   5.876  14.714  0.1370  0.7206 -1.8673
 9620TIP3    H250352   7.316   6.005  14.680  0.2164  1.6152  1.4727
 9621TIP3   OH250353   5.992   5.380  13.000 -0.0290 -0.3704  0.3929
 9621TIP3    H150354   6.046   5.324  13.056  0.9838 -0.2641 -0.4686
 9621TIP3    H250355   5.978   5.328  12.921  0.8388  0.5529 -0.3796
 9622TIP3   OH250356   0.887   5.913  14.588  0.6035  0.4029  0.5546
 9622TIP3    H150357   0.830   5.917  14.665  1.8266  1.2304  1.4424
 9622TIP3    H250358   0.891   5.820  14.565  0.6933  0.0878  1.8422
 9623TIP3   OH250359   5.403   5.156  13.956 -0.2909 -0.3544 -0.0951
 9623TIP3    H150360   5.456   5.119  13.885 -0.5937 -0.6014 -0.1987
 9623TIP3    H250361   5.334   5.091  13.970  0.0268 -0.5087  0.7332
 9624TIP3   OH250362   7.228   4.547  14.581 -0.4262  0.4097  1.3712
 9624TIP3    H150363   7.139   4.582  14.587 -0.4388  0.6551  0.0888
 9624TIP3    H250364   7.217   4.452  14.586 -0.8023  0.4271  0.9668
 9625TIP3   OH250365   4.283   6.125  14.389 -0.2409  0.0460 -0.0979
 9625TIP3    H150366   4.219   6.138  14.319 -1.8589  1.4834  1.5618
 9625TIP3    H250367   4.319   6.212  14.405  0.0150 -0.2402  0.9040
 9626TIP3   OH250368   0.336   1.240  13.760  0.0212 -0.0952 -0.1115
 9626TIP3    H150369   0.344   1.310  13.825  1.4528  1.4839 -1.9231
 9626TIP3    H250370   0.367   1.162  13.805  1.1180  1.0008  1.0776
 9627TIP3   OH250371   0.345   3.619  15.627  0.2023  0.5693  0.0771
 9627TIP3    H150372   0.327   3.663  15.544 -0.9224 -0.2934 -0.1494
 9627TIP3    H250373   0.272   3.558  15.639  0.9641 -0.1787  1.1126
 9628TIP3   OH250374   6.734   5.475  12.874  0.1589  0.0913  0.1862
 9628TIP3    H150375   6.803   5.411  12.892 -3.0592 -3.1669  1.6330
 9628TIP3    H250376   6.725   5.525  12.955 -0.0009 -0.3417  0.4386
 9629TIP3   OH250377   0.335   6.890  14.715 -0.0329  0.1035  0.1061
 9629TIP3    H150378   0.353   6.943  14.637 -0.4917  1.5119  0.9270
 9629TIP3    H250379   0.413   6.900  14.769 -1.4730  2.8098  1.8034
 9630TIP3   OH250380   6.109   7.227   0.134 -0.2175  0.2782 -0.0459
 9630TIP3    H150381   6.086   7.210   0.043 -1.0591 -1.1444  0.4241
 9630TIP3    H250382   6.168   7.156   0.158  1.7534  1.8537 -0.1191
 9631TIP3   OH250383   6.155   6.314  15.017  0.1708  0.1991 -0.4641
 9631TIP3    H150384   6.168   6.391  15.072 -0.8901  0.0203  0.0495
 9631TIP3    H250385   6.065   6.287  15.034 -0.0966 -0.0218 -2.0808
 9632TIP3   OH250386   6.179   6.321   0.043  0.3383 -0.0767 -0.4054
 9632TIP3    H150387   6.212   6.238   0.076  1.5411 -0.3309 -2.2172
 9632TIP3    H250388   6.257   6.372   0.021 -0.3957  1.2689  0.0018
 9633TIP3   OH250389   4.994   5.718  15.131  0.5894 -0.1032 -0.1494
 9633TIP3    H150390   4.987   5.628  15.163  0.6621  0.6408  2.0728
 9633TIP3    H250391   4.908   5.736  15.093  0.3690 -0.9024 -0.0383
 9634TIP3   OH250392   6.017   6.731  14.959 -0.0171  0.0803 -0.5094
 9634TIP3    H150393   5.965   6.687  15.026  1.0360 -0.3549  0.0473
 9634TIP3    H250394   6.003   6.824  14.975  0.4190 -0.0141  0.4926
 9635TIP3   OH250395   4.377   1.411  15.573  0.1230 -0.1302  0.2265
 9635TIP3    H150396   4.419   1.331  15.540  1.4202  0.0679  1.3832
 9635TIP3    H250397   4.373   1.399  15.667 -3.3172 -0.5493  0.0857
 9636TIP3   OH250398   4.957   6.616   1.174  0.5354  0.0891 -0.5773
 9636TIP3    H150399   4.934   6.646   1.086 -1.8283  2.2890  0.7286
 9636TIP3    H250400   4.915   6.530   1.182 -0.5920  0.5931 -1.0296
 9637TIP3   OH250401   4.011   4.675  13.267 -0.3489 -0.1550 -0.6363
 9637TIP3    H150402   4.022   4.755  13.319 -1.4686  0.7752 -1.7954
 9637TIP3    H250403   4.006   4.605  13.332  1.1942  0.6331  0.3758
 9638TIP3   OH250404   7.020   0.623  14.007  0.3369  0.2144 -0.2249
 9638TIP3    H150405   7.097   0.621  13.949  0.8797 -0.1006  0.5057
 9638TIP3    H250406   6.969   0.546  13.982 -0.5448  1.2724 -1.7877
 9639TIP3   OH250407   6.272   7.128  14.463  0.0075 -0.1610  0.4276
 9639TIP3    H150408   6.311   7.214  14.447  1.1097 -0.6591  0.3846
 9639TIP3    H250409   6.201   7.121  14.399 -1.2310  1.4209  1.5876
 9640TIP3   OH250410   5.683   0.896  14.201  0.6120 -0.6759  0.5120
 9640TIP3    H150411   5.683   0.988  14.229 -0.8833 -0.8805  1.2341
 9640TIP3    H250412   5.596   0.881  14.164  2.3057 -0.6178 -3.7720
 9641TIP3   OH250413   5.409   6.907  14.972 -0.1432 -0.2218 -0.6455
 9641TIP3    H150414   5.411   6.998  15.002  2.8431 -0.5087  0.1573
 9641TIP3    H250415   5.424   6.856  15.052  1.1560 -1.2781 -1.5523
 9642TIP3   OH250416   6.806   5.790  14.163 -0.0255  0.1087  0.0308
 9642TIP3    H150417   6.750   5.724  14.202  1.4649 -1.5386 -0.5781
 9642TIP3    H250418   6.863   5.819  14.235 -2.2157  2.4583  0.8851
 9643TIP3   OH250419   7.236   6.816  15.770  0.0779  0.3317  0.9927
 9643TIP3    H150420   7.237   6.751  15.700  0.5647 -3.5027  4.3693
 9643TIP3    H250421   7.319   6.863  15.762  0.2908 -0.3391 -0.7167
 9644TIP3   OH250422   5.042   0.577  14.537  0.0482 -0.2664 -0.0619
 9644TIP3    H150423   4.974   0.555  14.601 -0.2753 -1.0793 -0.6744
 9644TIP3    H250424   5.045   0.673  14.537  0.3528 -0.2675  1.4742
 9645TIP3   OH250425   1.783   5.571  13.032 -0.0431  0.5584 -0.5184
 9645TIP3    H150426   1.749   5.515  12.962 -0.1207  0.0991 -0.1188
 9645TIP3    H250427   1.790   5.513  13.107  3.2356  0.1819 -0.9998
 9646TIP3   OH250428   4.217   0.205  15.357 -0.0751  0.5910  0.2375
 9646TIP3    H150429   4.138   0.183  15.309  2.1410 -1.0093 -2.8544
 9646TIP3    H250430   4.228   0.299  15.343 -0.2001  0.3916 -1.2550
 9647TIP3   OH250431   6.490   7.278   0.149 -0.1721 -0.5380  0.3840
 9647TIP3    H150432   6.496   7.296   0.242 -0.4997 -1.5274  0.5984
 9647TIP3    H250433   6.562   7.328   0.110 -0.6616  0.6971  1.0381
 9648TIP3   OH250434   5.260   1.219   0.752  0.6260  0.6067 -0.2664
 9648TIP3    H150435   5.282   1.204   0.660 -0.1599 -0.9657 -0.2178
 9648TIP3    H250436   5.167   1.240   0.751 -0.3994 -3.3443  0.4714
 9649TIP3   OH250437   7.252   6.197  13.228 -0.6578  0.3642 -0.3256
 9649TIP3    H150438   7.225   6.284  13.199  0.6244  0.6052 -0.8275
 9649TIP3    H250439   7.247   6.200  13.323  2.2908  1.9791 -0.1698
 9650TIP3   OH250440   0.552   7.111  15.839  0.3727  0.7933 -0.2259
 9650TIP3    H150441   0.592   7.163  15.908 -1.1597  1.1098  0.4548
 9650TIP3    H250442   0.567   7.162  15.759 -3.9367  4.0563  0.8565
 9651TIP3   OH250443   5.530   0.248  15.452  0.1327  0.3470  0.1852
 9651TIP3    H150444   5.488   0.321  15.408 -1.3843 -0.8642 -0.4248
 9651TIP3    H250445   5.516   0.265  15.545 -2.6682 -0.5777 -0.0466
 9652TIP3   OH250446   5.088   0.130  13.040  0.1417  0.1550  0.8524
 9652TIP3    H150447   5.168   0.097  12.999  0.7435  0.4306  1.7922
 9652TIP3    H250448   5.101   0.114  13.134 -0.8893  0.2380  1.0158
 9653TIP3   OH250449   5.374   1.169  14.053 -0.0310  0.3802 -0.3710
 9653TIP3    H150450   5.360   1.264  14.057  0.2906  0.5079 -2.0667
 9653TIP3    H250451   5.444   1.158  13.989  0.1107 -0.9992  0.0034
 9654TIP3   OH250452   6.833   2.755  11.916 -0.3709 -0.0703  0.0463
 9654TIP3    H150453   6.798   2.716  11.996 -0.0079  0.9293  0.7064
 9654TIP3    H250454   6.881   2.684  11.873  0.0826 -0.4097  1.1031
 9655TIP3   OH250455   7.137   6.581  12.875  0.1965  0.4142  0.3224
 9655TIP3    H150456   7.212   6.578  12.816  0.1236  0.3925  0.2310
 9655TIP3    H250457   7.161   6.649  12.939  0.7059 -0.2630  0.8549
 9656TIP3   OH250458   5.874   6.425  14.583  0.0643 -0.0478 -0.6893
 9656TIP3    H150459   5.946   6.472  14.624 -0.2168  2.0434 -2.4772
 9656TIP3    H250460   5.797   6.449  14.634 -0.1418  1.8196 -1.8370
 9657TIP3   OH250461   6.490   7.194  15.697  0.3959 -0.3682  0.5630
 9657TIP3    H150462   6.430   7.135  15.652 -0.8077  0.7166  0.7110
 9657TIP3    H250463   6.463   7.190  15.789  0.0085  0.7503  0.5063
 9658TIP3   OH250464   0.052   0.037   1.223  0.4782 -0.2866  0.3631
 9658TIP3    H150465   0.064  -0.054   1.248 -0.1592 -0.8188 -1.2030
 9658TIP3    H250466   0.020   0.033   1.133 -0.2108  1.4556  0.5122
 9659TIP3   OH250467   5.524   5.829  14.648  0.0635 -0.1160 -0.8507
 9659TIP3    H150468   5.552   5.756  14.592 -2.2862 -0.7070 -1.2896
 9659TIP3    H250469   5.556   5.807  14.735  2.8091  0.2807 -1.7137
 9660TIP3   OH250470   5.609   6.531  14.657  0.1401  0.1014  0.1987
 9660TIP3    H150471   5.547   6.535  14.584  0.7145 -0.0109 -0.2982
 9660TIP3    H250472   5.555   6.542  14.736 -1.0005 -3.5615  0.0059
 9661TIP3   OH250473   4.821   1.627  13.598  0.3295  0.0297 -0.3924
 9661TIP3    H150474   4.742   1.652  13.549  1.6698  0.9571 -2.1563
 9661TIP3    H250475   4.788   1.592  13.680 -1.8400  2.9206  0.0471
 9662TIP3   OH250476   5.275   5.099  14.863  0.8563 -0.5516 -0.0197
 9662TIP3    H150477   5.347   5.154  14.831  1.0485 -0.9513 -0.2816
 9662TIP3    H250478   5.200   5.126  14.810  1.4731 -2.1301 -1.7571
 9663TIP3   OH250479   5.670   6.918  13.871 -0.5656  0.0347  0.6007
 9663TIP3    H150480   5.655   6.970  13.950  0.5599 -0.4165  1.1241
 9663TIP3    H250481   5.629   6.834  13.891 -0.4862  0.0006  0.6222
 9664TIP3   OH250482   0.634   6.364  12.845  0.1938  0.2990  0.0626
 9664TIP3    H150483   0.706   6.366  12.782  1.9870  0.8396  2.0652
 9664TIP3    H250484   0.619   6.456  12.865 -1.1265  0.1877 -0.3915
 9665TIP3   OH250485   6.351   6.292  15.555 -0.3345 -0.7445 -0.0674
 9665TIP3    H150486   6.267   6.338  15.561 -0.5002 -1.1514  0.8346
 9665TIP3    H250487   6.361   6.274  15.462 -1.3542 -0.8793 -0.1654
 9666TIP3   OH250488   0.095   6.116  14.024 -0.3580 -0.1887 -0.1251
 9666TIP3    H150489   0.102   6.044  14.087  0.8505 -0.1676 -0.2307
 9666TIP3    H250490   0.093   6.195  14.078 -1.1250 -0.2694 -0.0336
 9667TIP3   OH250491   0.345   0.579  13.489  0.5387  0.1235  0.0992
 9667TIP3    H150492   0.430   0.594  13.448  0.4869 -0.6143 -0.2720
 9667TIP3    H250493   0.366   0.548  13.577  0.6450  0.5466  0.2273
 9668TIP3   OH250494   0.524   4.759  14.595 -0.7440  0.5785 -0.4882
 9668TIP3    H150495   0.573   4.677  14.585  0.1939  1.3048 -1.9476
 9668TIP3    H250496   0.456   4.738  14.659 -0.0633 -1.1372 -0.2939
 9669TIP3   OH250497   4.004   4.516   0.316 -0.2648  0.2030 -0.1674
 9669TIP3    H150498   3.970   4.525   0.405  0.1632 -1.0921  0.1373
 9669TIP3    H250499   4.088   4.471   0.327  0.7951  1.8986 -1.0463
 9670TIP3   OH250500   7.101   5.480  13.537  0.6800  0.0953 -0.1667
 9670TIP3    H150501   7.038   5.409  13.537 -1.7574  2.1879  0.4469
 9670TIP3    H250502   7.158   5.463  13.612 -0.7469 -0.4801  0.7893
 9671TIP3   OH250503   5.017   0.233  13.668 -0.1721 -0.2245 -0.2837
 9671TIP3    H150504   4.942   0.235  13.729  0.2697  1.1109  0.2402
 9671TIP3    H250505   5.085   0.284  13.713  1.0555 -1.4201 -0.7656
 9672TIP3   OH250506   6.725   4.432  14.211  0.2209  0.5046 -0.6759
 9672TIP3    H150507   6.711   4.526  14.208  0.0184  0.5661  1.4433
 9672TIP3    H250508   6.793   4.419  14.276 -1.3288 -0.9514  0.7185
 9673TIP3   OH250509   4.746   4.609  14.753 -0.0673 -0.1144  0.6431
 9673TIP3    H150510   4.812   4.608  14.823 -0.7203 -1.0481  1.2569
 9673TIP3    H250511   4.694   4.688  14.770  1.8213  1.4771 -0.7452
 9674TIP3   OH250512   6.215   0.462   1.642 -0.3322  0.1351  0.3238
 9674TIP3    H150513   6.141   0.507   1.684 -0.1375  0.4504  0.3262
 9674TIP3    H250514   6.176   0.417   1.567 -0.3092  1.3845 -0.4592
 9675TIP3   OH250515   6.103   0.227  12.993 -0.5567  0.4656 -0.1372
 9675TIP3    H150516   6.160   0.173  12.939  0.0175  1.8744 -0.9824
 9675TIP3    H250517   6.028   0.171  13.013 -0.9168 -0.0273 -2.6294
 9676TIP3   OH250518   5.806   1.242  14.540 -0.2345  0.0105  0.2255
 9676TIP3    H150519   5.722   1.229  14.496 -0.5040 -2.3259  1.3334
 9676TIP3    H250520   5.866   1.184  14.494 -0.2321 -1.5040  2.1083
 9677TIP3   OH250521   5.399   6.996  15.829 -0.2194  0.5454  0.1132
 9677TIP3    H150522   5.313   6.964  15.856 -0.1758 -0.5117 -0.9488
 9677TIP3    H250523   5.389   7.092  15.827 -1.5281  0.4161 -0.4972
 9678TIP3   OH250524   6.244   6.980  13.404  0.5154  0.0185 -0.1183
 9678TIP3    H150525   6.271   6.893  13.434  0.2277  0.5310  1.6878
 9678TIP3    H250526   6.309   7.004  13.338  0.2821 -1.7949 -1.0405
 9679TIP3   OH250527   6.004   3.018   1.358  0.3821 -0.6039 -0.4522
 9679TIP3    H150528   5.931   2.986   1.412 -0.0365  2.1288  0.6981
 9679TIP3    H250529   6.077   2.961   1.381  0.0158  0.0492  2.5350
 9680TIP3   OH250530   6.859   0.360  13.503 -0.2672 -0.2131 -0.2666
 9680TIP3    H150531   6.947   0.399  13.498 -0.4753  0.2991  0.0223
 9680TIP3    H250532   6.848   0.315  13.420 -0.0939  0.4977 -0.6771
 9681TIP3   OH250533   5.987   6.816  15.600 -0.4655 -0.2837  0.0048
 9681TIP3    H150534   5.946   6.902  15.605  1.4609  0.6880 -0.3093
 9681TIP3    H250535   5.934   6.767  15.537 -1.1256  0.9353 -0.3898
 9682TIP3   OH250536   1.072   6.689  15.103  0.0935 -0.0486 -0.4550
 9682TIP3    H150537   1.162   6.687  15.069 -0.0669 -3.3124 -0.8926
 9682TIP3    H250538   1.082   6.712  15.195  1.4458 -0.8959 -0.3687
 9683TIP3   OH250539   4.905   0.188  14.965 -0.8852 -0.1391  0.2203
 9683TIP3    H150540   4.873   0.207  15.053 -2.0932 -0.8854 -0.0520
 9683TIP3    H250541   4.827   0.186  14.910 -0.1616  0.1513 -0.8454
 9684TIP3   OH250542   6.945   5.882  11.796 -0.5332 -0.3667  0.0194
 9684TIP3    H150543   6.940   5.961  11.849  0.1978  0.6255 -1.3471
 9684TIP3    H250544   7.039   5.868  11.782 -0.6740 -1.2413 -0.0800
 9685TIP3   OH250545   5.322   7.087  14.033  0.2688 -0.8882 -0.2173
 9685TIP3    H150546   5.328   7.062  13.941  0.1136 -0.6826 -0.2830
 9685TIP3    H250547   5.326   7.182  14.033  0.1597 -0.8817 -0.0204
 9686TIP3   OH250548   0.939   7.095  14.660 -0.2076 -0.6810  0.0072
 9686TIP3    H150549   0.995   7.032  14.705 -1.4220 -0.4100  1.9367
 9686TIP3    H250550   0.999   7.161  14.626  0.7372 -0.9068  1.2105
 9687TIP3   OH250551   0.561   3.950   0.059  0.0813 -0.6328 -0.0007
 9687TIP3    H150552   0.532   3.908  -0.022 -0.0005 -1.3764  0.4073
 9687TIP3    H250553   0.487   3.938   0.119 -1.2736  2.9071 -0.8254
 9688TIP3   OH250554   5.832   7.012  15.508 -0.0079 -0.1072 -0.2786
 9688TIP3    H150555   5.737   6.999  15.510 -0.1130  0.5476 -0.5975
 9688TIP3    H250556   5.843   7.098  15.467  0.7673 -0.7124 -1.3747
 9689TIP3   OH250557   5.333   6.271  15.768  0.0579 -0.4068 -0.5383
 9689TIP3    H150558   5.342   6.366  15.762 -0.2249 -0.3390  0.0722
 9689TIP3    H250559   5.388   6.237  15.698  0.7922  0.1786 -0.2456
 9690TIP3   OH250560   7.303   3.897  15.277 -1.0764  0.2539  0.3848
 9690TIP3    H150561   7.377   3.905  15.216  0.2434 -1.8336  1.6768
 9690TIP3    H250562   7.228   3.883  15.220  0.0531 -1.0877 -0.8304
 9691TIP3   OH250563   6.486   6.095  14.983 -0.5285 -0.1830 -0.2509
 9691TIP3    H150564   6.534   6.044  14.918 -0.5123 -0.2948 -0.1496
 9691TIP3    H250565   6.541   6.172  14.998  0.7639 -1.4260  1.5967
 9692TIP3   OH250566   4.126   0.423  15.831 -0.0415 -0.4618 -0.0192
 9692TIP3    H150567   4.108   0.475  15.753 -0.5303  2.2982  1.8658
 9692TIP3    H250568   4.082   0.339  15.814 -0.4853  0.2198 -2.5110
 9693TIP3   OH250569   6.375   4.886  15.674 -0.3225 -0.4884 -0.1240
 9693TIP3    H150570   6.331   4.846  15.749  0.3362 -0.2412  0.3967
 9693TIP3    H250571   6.467   4.892  15.701 -0.4854  1.8744  0.0405
 9694TIP3   OH250572   5.213   1.359  15.790 -0.2565 -0.3736 -0.1353
 9694TIP3    H150573   5.173   1.444  15.775  0.7238  0.3458  1.2191
 9694TIP3    H250574   5.291   1.360  15.735  0.1555 -0.0842  0.4432
 9695TIP3   OH250575   6.824   7.181  14.438  0.2880  0.0136 -0.3987
 9695TIP3    H150576   6.761   7.152  14.371 -1.2218  1.0309  0.5405
 9695TIP3    H250577   6.782   7.257  14.478  1.2926 -0.4431  1.5462
 9696TIP3   OH250578   4.021   6.773  15.385 -0.0559  0.0088  0.7036
 9696TIP3    H150579   4.085   6.842  15.401  1.3467 -0.4721 -2.4839
 9696TIP3    H250580   3.954   6.815  15.331 -0.9775 -0.2405  1.6450
 9697TIP3   OH250581   6.308   6.820   1.098  0.4243  0.3861 -0.0267
 9697TIP3    H150582   6.316   6.912   1.072 -2.4579  0.1949 -1.7915
 9697TIP3    H250583   6.225   6.815   1.145 -0.9067 -1.8156 -2.4826
 9698TIP3   OH250584   5.644   5.759  14.894 -0.0641  0.0592 -0.2778
 9698TIP3    H150585   5.599   5.770  14.977  0.6489  2.9130 -0.2026
 9698TIP3    H250586   5.735   5.739  14.919  0.2563  1.3837 -0.3260
 9699TIP3   OH250587   5.618   6.065  15.927 -0.2013 -0.6057 -0.6452
 9699TIP3    H150588   5.658   5.978  15.932  0.9484 -0.0215  0.8202
 9699TIP3    H250589   5.693   6.125  15.924 -0.9495  0.5049  1.7945
 9700TIP3   OH250590   6.078   4.070  13.614  0.1417 -0.1636  0.2831
 9700TIP3    H150591   6.050   4.156  13.581  0.0063 -0.0754  0.6248
 9700TIP3    H250592   6.170   4.082  13.637  0.3133 -0.3011 -0.3142
 9701TIP3   OH250593   0.280   3.857   0.829 -0.1911 -0.3230  0.5483
 9701TIP3    H150594   0.305   3.895   0.745  0.0250  0.5296  0.9916
 9701TIP3    H250595   0.363   3.844   0.875 -0.0817 -3.2690 -0.3919
 9702TIP3   OH250596   6.082   1.572  14.150  0.4356  0.7014 -0.1224
 9702TIP3    H150597   6.050   1.567  14.060 -0.5153  0.0655  0.2476
 9702TIP3    H250598   6.003   1.561  14.204  1.3132 -1.0597  0.8036
 9703TIP3   OH250599   4.664   6.651  14.986 -0.4954  0.0077 -0.2543
 9703TIP3    H150600   4.623   6.634  15.071  0.8147  1.9188  0.7830
 9703TIP3    H250601   4.750   6.610  14.992 -0.1818  0.6379 -0.4525
 9704TIP3   OH250602   4.565   5.064   1.720 -0.0025 -0.3900 -0.2826
 9704TIP3    H150603   4.585   5.151   1.754 -0.5634 -0.3681 -0.0150
 9704TIP3    H250604   4.608   5.062   1.634  0.5580 -0.0861 -0.0112
 9705TIP3   OH250605   0.377   4.147   2.173 -0.7119  0.1035 -0.3624
 9705TIP3    H150606   0.431   4.102   2.238 -1.2431  0.2966  0.2034
 9705TIP3    H250607   0.332   4.216   2.221 -0.2702  0.9455 -1.1416
 9706TIP3   OH250608   0.483   5.541  15.753 -0.1492  0.2326  0.2952
 9706TIP3    H150609   0.513   5.558  15.842  0.5573  0.1837  0.0686
 9706TIP3    H250610   0.430   5.618  15.730  0.0001  0.4293  0.6102
 9707TIP3   OH250611   4.805   0.580  10.735 -0.8879 -0.2486 -0.4449
 9707TIP3    H150612   4.826   0.582  10.829 -0.1476 -2.1709 -0.5370
 9707TIP3    H250613   4.888   0.595  10.691 -0.9028 -1.1797 -0.7949
 9708TIP3   OH250614   7.284   1.420   0.373  0.0632  0.7402  0.5118
 9708TIP3    H150615   7.240   1.470   0.442  0.1240  0.5599  0.6820
 9708TIP3    H250616   7.336   1.355   0.421  0.2845  0.7646  0.3026
 9709TIP3   OH250617   6.371   0.008   0.867 -0.2666 -0.3412  0.0825
 9709TIP3    H150618   6.414   0.094   0.865 -1.5095  0.2813 -0.7158
 9709TIP3    H250619   6.306   0.012   0.797  1.1838 -2.7579 -1.4643
 9710TIP3   OH250620   6.327   4.572  14.720 -0.3492  0.6380 -0.1105
 9710TIP3    H150621   6.367   4.641  14.666  2.6213 -0.8968  0.0715
 9710TIP3    H250622   6.332   4.605  14.809  2.2124 -0.2943  0.1237
 9711TIP3   OH250623   0.103   0.106  13.588 -0.6650 -0.5208  0.5642
 9711TIP3    H150624   0.166   0.076  13.653  1.1002 -0.3796 -1.0222
 9711TIP3    H250625   0.058   0.027  13.558  1.3438 -1.1456 -0.9038
 9712TIP3   OH250626   5.443   7.326  12.459 -0.3812  0.5527 -0.1300
 9712TIP3    H150627   5.489   7.410  12.470 -1.1211  0.9700 -0.2223
 9712TIP3    H250628   5.351   7.349  12.458 -0.5331  0.1576 -3.4580
 9713TIP3   OH250629   7.029   7.271  15.456 -0.9256 -0.4779 -0.1025
 9713TIP3    H150630   6.982   7.245  15.377  1.0651 -0.6455 -1.2687
 9713TIP3    H250631   7.116   7.297  15.425 -0.5934  0.8716  1.8644
 9714TIP3   OH250632   6.701   5.589  13.117 -0.1017  0.0050  0.2216
 9714TIP3    H150633   6.762   5.658  13.143 -0.3888  0.1009  0.6481
 9714TIP3    H250634   6.614   5.628  13.131 -0.2613 -0.3998  0.3406
 9715TIP3   OH250635   6.754   5.425   0.469 -0.3327 -0.2489 -0.2730
 9715TIP3    H150636   6.847   5.411   0.452 -0.4657 -1.4425 -0.0956
 9715TIP3    H250637   6.723   5.477   0.395  0.4245 -0.0525 -0.4519
 9716TIP3   OH250638   6.169   5.767  14.732 -0.0321 -0.4821 -0.6242
 9716TIP3    H150639   6.214   5.700  14.784  0.0233  0.3382  0.3995
 9716TIP3    H250640   6.234   5.794  14.667  0.2436 -0.7938 -0.4829
 9717TIP3   OH250641   7.306   6.949  15.083  0.1945 -0.3036 -0.3329
 9717TIP3    H150642   7.291   7.036  15.120 -1.8728 -0.0085 -1.7866
 9717TIP3    H250643   7.276   6.888  15.151 -0.7326  0.1812 -0.2963
 9718TIP3   OH250644   3.414   0.002  15.963 -0.0555  0.0499 -0.0853
 9718TIP3    H150645   3.449   0.028  15.878  1.6342 -0.4698  0.4339
 9718TIP3    H250646   3.390  -0.089  15.952  2.4986 -0.7674  0.6650
 9719TIP3   OH250647   0.458   4.703  13.876 -0.0104 -0.4680  0.1973
 9719TIP3    H150648   0.541   4.665  13.847 -0.5923 -0.8222 -1.0381
 9719TIP3    H250649   0.394   4.633  13.866 -0.6547  0.1196  0.1472
 9720TIP3   OH250650   4.324   6.997  14.604  0.4725  0.1747 -0.5786
 9720TIP3    H150651   4.384   7.051  14.655  0.4889 -1.6933  1.4228
 9720TIP3    H250652   4.379   6.928  14.567 -0.3174 -1.2408  0.8262
 9721TIP3   OH250653   5.920   0.784  12.813 -0.1068 -0.2628 -0.9387
 9721TIP3    H150654   5.874   0.738  12.884  2.7921 -0.3831  0.9290
 9721TIP3    H250655   5.976   0.847  12.858  0.7685  0.6195 -3.2166
 9722TIP3   OH250656   6.025   4.981  14.582  1.0800 -0.2103 -0.2478
 9722TIP3    H150657   6.000   4.912  14.643 -0.9149 -0.3100 -1.1229
 9722TIP3    H250658   6.088   4.940  14.523  0.4240 -1.1059 -0.3340
 9723TIP3   OH250659   5.139   4.967  15.047  0.1465 -0.2183  0.5828
 9723TIP3    H150660   5.175   5.009  14.969  3.6648 -1.4959  1.4339
 9723TIP3    H250661   5.112   5.040  15.103 -0.6286  0.7334 -1.0107
 9724TIP3   OH250662   2.762   1.733  14.912  0.4748 -0.2440 -0.3741
 9724TIP3    H150663   2.848   1.701  14.940 -0.9673 -2.7732  1.3379
 9724TIP3    H250664   2.751   1.698  14.824 -0.1569 -2.7156  0.6541
 9725TIP3   OH250665   5.831   6.611  15.507  0.3524 -0.2926  0.9486
 9725TIP3    H150666   5.763   6.547  15.530  0.3669 -0.4817  0.4852
 9725TIP3    H250667   5.911   6.575  15.546  0.3065 -0.4065  0.9397
 9726TIP3   OH250668   0.045   6.613  12.651 -0.4317  0.1381  0.3388
 9726TIP3    H150669   0.041   6.702  12.688 -2.8743 -0.0537  0.6011
 9726TIP3    H250670   0.031   6.626  12.557  0.8107  0.1603  0.1457
 9727TIP3   OH250671   6.690   4.258  15.470 -0.1422  0.5266 -0.6130
 9727TIP3    H150672   6.643   4.227  15.392  2.7160 -1.4702 -1.6599
 9727TIP3    H250673   6.656   4.205  15.542  1.2165 -1.7228 -1.5605
 9728TIP3   OH250674   7.326   3.463  15.054 -0.1162 -0.5308  0.0502
 9728TIP3    H150675   7.418   3.458  15.029  0.1030  0.7300  0.5808
 9728TIP3    H250676   7.326   3.516  15.134 -1.1009 -2.0604  1.0988
 9729TIP3   OH250677   0.556   3.903  14.570 -0.1490 -0.8363  0.5266
 9729TIP3    H150678   0.604   3.896  14.488 -0.6822  1.0459  0.0338
 9729TIP3    H250679   0.472   3.860  14.552 -0.2340 -0.4982  0.0885
 9730TIP3   OH250680   3.260   6.814   0.616 -0.1632  0.4728 -0.3736
 9730TIP3    H150681   3.342   6.854   0.586  0.8022 -1.1195  0.0498
 9730TIP3    H250682   3.283   6.722   0.631 -1.8990  0.1362  0.3199
 9731TIP3   OH250683   6.867   5.585  13.816 -0.4150 -0.1771 -0.1479
 9731TIP3    H150684   6.864   5.610  13.723  0.3380 -1.2812 -0.4857
 9731TIP3    H250685   6.906   5.660  13.859 -1.4540  0.6425 -0.6176
 9732TIP3   OH250686   5.681   6.957  13.046  0.0877  0.5851  0.0264
 9732TIP3    H150687   5.612   6.926  12.989 -1.8151  0.7701  2.1544
 9732TIP3    H250688   5.749   6.889  13.042  0.3996  1.0034 -3.0462
 9733TIP3   OH250689   0.969   3.325  13.392  0.4074  0.0201 -0.4171
 9733TIP3    H150690   0.874   3.338  13.391  0.1129 -1.9067  0.1819
 9733TIP3    H250691   1.003   3.397  13.338 -1.3078  1.2492  0.0732
 9734TIP3   OH250692   4.916   6.686  14.605 -0.1846 -0.3076 -0.1365
 9734TIP3    H150693   4.991   6.689  14.665 -1.2662 -1.6110  1.3495
 9734TIP3    H250694   4.946   6.632  14.532  0.5663 -0.2375  0.1166
 9735TIP3   OH250695   1.478   5.517  15.408 -0.1369 -0.4072 -0.0165
 9735TIP3    H150696   1.556   5.555  15.367  0.3636 -0.5340  0.8138
 9735TIP3    H250697   1.510   5.438  15.453 -0.3009  0.8172  2.3259
 9736TIP3   OH250698   6.526   4.076  11.574 -0.0678 -0.0967 -0.4743
 9736TIP3    H150699   6.593   4.040  11.516  1.4904 -0.5015  1.5385
 9736TIP3    H250700   6.476   3.999  11.602  1.0888 -0.2752  1.1045
 9737TIP3   OH250701   6.111   3.969  12.160 -0.4620  0.1211 -0.8741
 9737TIP3    H150702   6.049   3.997  12.227  0.1058 -0.2022 -0.2073
 9737TIP3    H250703   6.060   3.967  12.079 -0.6273  2.6520 -0.8604
 9738TIP3   OH250704   5.214   0.157   1.577  0.5900  0.2090  0.1178
 9738TIP3    H150705   5.182   0.127   1.493  0.5959  0.6040 -0.0273
 9738TIP3    H250706   5.281   0.093   1.602  0.3692 -0.0770 -0.0307
 9739TIP3   OH250707   4.266   5.603  15.239 -0.2792 -0.1690 -0.1204
 9739TIP3    H150708   4.225   5.539  15.180 -2.3248 -0.7649  1.8796
 9739TIP3    H250709   4.360   5.586  15.230 -0.7289 -2.8400 -0.3270
 9740TIP3   OH250710   5.975   6.291   0.512  0.5985 -0.6973  0.0228
 9740TIP3    H150711   6.066   6.263   0.503  1.0174  0.4358  0.5874
 9740TIP3    H250712   5.953   6.328   0.426  0.8278 -0.5202  0.0403
 9741TIP3   OH250713   4.753   5.681  14.938  0.0950 -1.0631  0.1063
 9741TIP3    H150714   4.800   5.737  14.876  0.3251 -0.7800  0.5351
 9741TIP3    H250715   4.710   5.743  14.997 -0.2876 -1.3298  0.1085
 9742TIP3   OH250716   3.871   3.415  14.764 -0.1226 -0.1573 -0.5264
 9742TIP3    H150717   3.853   3.507  14.742 -1.3276  0.3118  2.2416
 9742TIP3    H250718   3.946   3.419  14.824 -2.6289 -0.5921  2.7634
 9743TIP3   OH250719   3.374   0.342   2.641 -0.0386 -0.5695  0.0124
 9743TIP3    H150720   3.451   0.360   2.585  0.3807 -3.9962 -0.6270
 9743TIP3    H250721   3.411   0.314   2.724 -0.6613  1.5273  1.0211
 9744TIP3   OH250722   0.657   0.101   0.356  0.0868 -0.9306 -0.2910
 9744TIP3    H150723   0.667   0.007   0.342 -0.9934 -1.2616  1.1118
 9744TIP3    H250724   0.683   0.115   0.447  0.1824  0.1229 -0.4690
 9745TIP3   OH250725   1.309   6.534   0.965 -0.6095  0.1591  0.1086
 9745TIP3    H150726   1.339   6.625   0.964 -0.3870  0.1260  1.9668
 9745TIP3    H250727   1.225   6.535   0.919 -1.2638  1.5604  1.3012
 9746TIP3   OH250728   1.554   6.675  15.433  0.2825  0.0570  0.1303
 9746TIP3    H150729   1.593   6.628  15.359  1.2289  0.9786  0.0286
 9746TIP3    H250730   1.506   6.608  15.482  1.6355 -1.0131  0.0053
 9747TIP3   OH250731   6.719   7.218   0.832  0.5151 -0.0211  0.5904
 9747TIP3    H150732   6.691   7.192   0.744  0.8512  2.6378 -0.3593
 9747TIP3    H250733   6.691   7.146   0.889  1.0301 -2.1660 -1.7973
 9748TIP3   OH250734   1.268   0.929   4.675 -0.2545  0.1173  0.3415
 9748TIP3    H150735   1.178   0.937   4.707 -1.2354  0.5379 -2.3310
 9748TIP3    H250736   1.308   1.014   4.694 -1.0492  0.6233 -0.2169
 9749TIP3   OH250737   7.167   7.302   1.524 -0.6985 -0.6721 -0.3207
 9749TIP3    H150738   7.239   7.285   1.464 -1.0026 -1.7981 -0.3798
 9749TIP3    H250739   7.100   7.238   1.499 -1.3426 -0.2589  0.3442
 9750TIP3   OH250740   5.347   6.914  15.396 -0.0815  0.4771  0.7839
 9750TIP3    H150741   5.347   6.836  15.451  0.4135 -0.5225 -0.6067
 9750TIP3    H250742   5.313   6.884  15.312  0.4485  1.6815  0.1260
 9751TIP3   OH250743   6.914   0.866  14.797 -0.4386  0.2255  0.1583
 9751TIP3    H150744   6.828   0.840  14.829 -1.5786  1.2094 -2.0185
 9751TIP3    H250745   6.898   0.899  14.709  2.2274  0.0695 -0.4296
 9752TIP3   OH250746   6.066   6.420   0.733 -0.3668  0.5310  0.3092
 9752TIP3    H150747   6.011   6.375   0.797 -2.6018  0.6675 -1.4535
 9752TIP3    H250748   6.041   6.383   0.649  1.6594  1.2241 -0.6369
 9753TIP3   OH250749   1.940   6.212   4.096 -0.3412  0.1168  0.3204
 9753TIP3    H150750   2.023   6.242   4.132 -0.8914 -0.1995  1.9032
 9753TIP3    H250751   1.883   6.289   4.099  0.2092  0.6496 -1.8477
 9754TIP3   OH250752   2.411   1.929   0.772  0.8049 -0.0856 -0.4901
 9754TIP3    H150753   2.321   1.919   0.803  1.2257  1.6935  1.4623
 9754TIP3    H250754   2.407   1.908   0.679 -1.6133 -0.0929 -0.4196
 9755TIP3   OH250755   0.635   0.787  15.527  0.3778 -0.4006 -0.0782
 9755TIP3    H150756   0.647   0.815  15.618  0.2401  1.0484 -0.4942
 9755TIP3    H250757   0.626   0.869  15.478 -1.8254 -1.1971 -1.0857
 9756TIP3   OH250758   2.145   0.516   0.887  0.1422 -0.0439 -0.6286
 9756TIP3    H150759   2.119   0.453   0.954  0.0067  0.6167 -0.0561
 9756TIP3    H250760   2.104   0.598   0.914 -0.6628  0.0157 -2.0153
 9757TIP3   OH250761   7.054   0.597  15.474 -0.3083  0.5999  0.5987
 9757TIP3    H150762   7.024   0.676  15.520 -1.5463 -0.3732  1.5031
 9757TIP3    H250763   7.086   0.540  15.544 -0.9930 -0.3765  0.1227
 9758TIP3   OH250764   6.230   1.305  14.419 -0.2366  0.3248  0.4071
 9758TIP3    H150765   6.276   1.383  14.389 -2.4940  1.8278  0.6863
 9758TIP3    H250766   6.184   1.273  14.341 -0.3275  0.0281  0.5814
 9759TIP3   OH250767   0.379   1.589  14.512  0.3507 -0.1357  0.2706
 9759TIP3    H150768   0.363   1.500  14.479 -0.1961 -0.3620  1.1270
 9759TIP3    H250769   0.402   1.577  14.604  0.8308  0.5738  0.2450
 9760TIP3   OH250770   0.492   3.885  15.194 -0.8292  0.4543 -0.2727
 9760TIP3    H150771   0.539   3.879  15.110  2.5141 -2.2352  1.6791
 9760TIP3    H250772   0.528   3.964  15.235 -0.7276  0.4609 -0.3720
 9761TIP3   OH250773   0.573   2.092  14.812  0.7592  0.3007 -0.0947
 9761TIP3    H150774   0.608   2.009  14.780  0.8985  0.4970 -0.4543
 9761TIP3    H250775   0.514   2.067  14.883  0.8242 -0.1050 -0.1813
 9762TIP3   OH250776   0.580   1.677  15.939  0.3190  0.0764  0.0433
 9762TIP3    H150777   0.672   1.674  15.965 -0.0265  0.7086  1.3707
 9762TIP3    H250778   0.579   1.728  15.858  1.1262  0.0764  0.0338
 9763TIP3   OH250779   6.606   1.137  14.019 -0.0842  0.7361 -0.1497
 9763TIP3    H150780   6.664   1.063  14.033  2.6302  2.8603  0.3219
 9763TIP3    H250781   6.621   1.194  14.094 -0.2860  2.8741 -1.6654
 9764TIP3   OH250782   7.234   1.345  14.965 -0.2269  0.0879 -0.2347
 9764TIP3    H150783   7.305   1.409  14.978  1.0158 -1.4150  0.5438
 9764TIP3    H250784   7.279   1.260  14.962 -1.8577 -0.7562 -1.2645
 9765TIP3   OH250785   7.009   6.717   0.411 -0.8300  0.1494  0.8450
 9765TIP3    H150786   6.979   6.661   0.483 -0.2759 -2.5966 -0.9789
 9765TIP3    H250787   7.090   6.756   0.444 -0.3840 -1.3735  1.5848
 9766TIP3   OH250788   0.078   7.338  14.040 -0.0145 -0.1908 -0.3568
 9766TIP3    H150789   0.005   7.374  13.989  0.7743  1.5900 -0.2653
 9766TIP3    H250790   0.061   7.366  14.130 -0.3368 -1.6095  0.0323
 9767TIP3   OH250791   6.748   0.528  15.087  0.1175  0.0456 -0.1978
 9767TIP3    H150792   6.758   0.605  15.031  0.9806 -1.3682 -2.0305
 9767TIP3    H250793   6.653   0.519  15.098  0.0198  1.5601  0.3207
 9768TIP3   OH250794   7.089   0.784   0.256 -0.1357 -0.2195  0.1116
 9768TIP3    H150795   7.106   0.842   0.331  1.2868  0.6674 -0.8795
 9768TIP3    H250796   7.129   0.701   0.281  1.5197  0.4728 -0.2206
 9769TIP3   OH250797   5.769   6.349   1.123  0.1968 -0.2979 -0.9292
 9769TIP3    H150798   5.708   6.417   1.153  2.8359  0.1028  4.1632
 9769TIP3    H250799   5.743   6.271   1.172  2.3889 -0.6934 -0.3643
 9770TIP3   OH250800   6.835   0.758  15.931 -0.0874  0.2111 -0.2160
 9770TIP3    H150801   6.883   0.824  15.981 -0.0248  0.8709 -1.1505
 9770TIP3    H250802   6.858   0.675  15.974 -2.1498  0.9798  2.5528
 9771TIP3   OH250803   6.932   0.596  14.603  0.2380  0.4631  0.4025
 9771TIP3    H150804   6.902   0.664  14.663  1.3759 -0.0239  1.5619
 9771TIP3    H250805   6.882   0.518  14.629 -0.5796  0.6850 -0.4850
 9772TIP3   OH250806   0.539   0.757   1.170 -0.0613  0.0311  0.2354
 9772TIP3    H150807   0.534   0.756   1.075  0.4133 -1.5605  0.2142
 9772TIP3    H250808   0.448   0.763   1.198 -0.1336  1.8302 -0.3039
 9773TIP3   OH250809   1.525   1.573   0.721  0.5975 -0.3411  0.0779
 9773TIP3    H150810   1.579   1.595   0.796 -0.5639 -0.7699  1.0518
 9773TIP3    H250811   1.534   1.478   0.712 -0.3987 -0.4920  0.5768
 9774TIP3   OH250812   2.051   2.378  15.940 -0.0745  0.6578 -0.2861
 9774TIP3    H150813   2.080   2.304  15.885  0.1151  0.3201  0.2658
 9774TIP3    H250814   2.115   2.381  16.011 -1.0016  0.3565  0.5603
 9775TIP3   OH250815   0.885   0.304   0.609 -0.0406  0.2462  0.3814
 9775TIP3    H150816   0.897   0.214   0.640  2.3392 -0.5405 -2.5844
 9775TIP3    H250817   0.930   0.358   0.673 -0.8310 -0.7031  1.7820
 9776TIP3   OH250818   2.266   6.691   0.060  0.2802 -0.3322 -0.3901
 9776TIP3    H150819   2.258   6.783   0.035  1.8904 -0.6615 -2.2663
 9776TIP3    H250820   2.310   6.693   0.145 -2.5446  0.7034  1.1315
 9777TIP3   OH250821   4.029   0.876  14.776 -0.4545 -0.5190  0.1926
 9777TIP3    H150822   4.094   0.817  14.738 -0.6342 -1.2271  0.9783
 9777TIP3    H250823   3.984   0.914  14.700  0.9284  0.0448 -0.3489
 9778TIP3   OH250824   1.841   7.110   1.287 -0.2818 -0.1072  0.5797
 9778TIP3    H150825   1.833   7.016   1.306  0.2906 -0.3192 -0.2386
 9778TIP3    H250826   1.751   7.138   1.270 -0.5204 -0.3976  1.3289
 9779TIP3   OH250827   4.891   0.711   2.166 -0.1852 -0.0019 -0.1396
 9779TIP3    H150828   4.959   0.762   2.210 -0.6961  1.0900 -0.5980
 9779TIP3    H250829   4.919   0.620   2.176  0.8108  0.3752  0.5647
 9780TIP3   OH250830   1.051   0.163  15.927  0.3954 -0.1242 -0.1264
 9780TIP3    H150831   1.074   0.214  15.849 -2.9237  0.8730 -0.5137
 9780TIP3    H250832   1.051   0.226  15.999 -2.6808  0.2885 -0.4271
 9781TIP3   OH250833   2.263   0.861  15.858  0.6215 -0.4135 -0.2200
 9781TIP3    H150834   2.356   0.839  15.853  0.2554 -2.2172  0.6548
 9781TIP3    H250835   2.257   0.927  15.927  1.3053  0.1054 -0.6507
 9782TIP3   OH250836   0.522   7.263  15.567 -0.4982  0.2393 -0.2184
 9782TIP3    H150837   0.555   7.252  15.478 -0.5446 -1.9895  0.0208
 9782TIP3    H250838   0.581   7.328  15.606  0.1682  0.4435 -1.5347
 9783TIP3   OH250839   3.098   0.451  15.140 -0.1576 -0.7504 -0.1022
 9783TIP3    H150840   3.097   0.488  15.228 -0.8001 -0.1806 -0.3492
 9783TIP3    H250841   3.164   0.502  15.093 -2.4049  1.4086 -1.0031
 9784TIP3   OH250842   0.002   0.545   0.455 -0.6172  0.4241 -0.0539
 9784TIP3    H150843   0.024   0.533   0.547 -0.4547  2.1567  0.1481
 9784TIP3    H250844   0.086   0.562   0.412 -0.6343 -0.8175 -0.6141
 9785TIP3   OH250845   4.399   5.733   0.425  0.3359  0.4429  0.0402
 9785TIP3    H150846   4.450   5.756   0.348 -0.8919 -0.7829 -1.1753
 9785TIP3    H250847   4.462   5.732   0.497  1.6849  0.6326 -1.1227
 9786TIP3   OH250848   2.563   0.859   2.169  0.7837 -0.7915  0.1808
 9786TIP3    H150849   2.640   0.895   2.125  0.1834 -0.1801 -0.3827
 9786TIP3    H250850   2.567   0.895   2.258  1.3903 -1.1281  0.2907
 9787TIP3   OH250851   1.913   2.645  15.702 -0.3354  0.5939  0.3129
 9787TIP3    H150852   1.908   2.738  15.722 -1.6872  0.2657  1.5794
 9787TIP3    H250853   1.920   2.602  15.787 -2.0880 -0.5979 -0.1210
 9788TIP3   OH250854   3.443   2.338   1.659 -0.0818 -0.3329  0.1741
 9788TIP3    H150855   3.471   2.425   1.687 -2.2265  0.8342 -1.1418
 9788TIP3    H250856   3.364   2.321   1.709 -0.1376 -1.1564 -0.1827
 9789TIP3   OH250857   4.276   1.003   0.348 -0.0913 -0.3120 -0.0198
 9789TIP3    H150858   4.214   1.021   0.419 -0.0878 -0.6170  0.0624
 9789TIP3    H250859   4.347   1.066   0.361 -0.8188  0.6532 -0.6561
 9790TIP3   OH250860   1.235   6.462   1.463 -0.2485 -0.4279  0.1021
 9790TIP3    H150861   1.252   6.387   1.406  1.0273 -0.0343 -0.0502
 9790TIP3    H250862   1.188   6.525   1.407  0.2669 -0.3834 -0.2833
 9791TIP3   OH250863   6.157   6.990  14.679 -0.5884  0.2351 -0.0687
 9791TIP3    H150864   6.070   6.953  14.666 -0.3224 -0.5839  0.4635
 9791TIP3    H250865   6.174   7.041  14.600 -1.0836 -0.5162 -0.6561
 9792TIP3   OH250866   1.932   6.671   0.471  0.6211 -0.3568  0.0753
 9792TIP3    H150867   1.934   6.633   0.383 -1.6803  0.6132 -0.4130
 9792TIP3    H250868   1.860   6.626   0.515  1.0218 -0.0177  1.0877
 9793TIP3   OH250869   3.839   6.870  13.866 -0.4642  0.0769 -0.9029
 9793TIP3    H150870   3.905   6.937  13.885 -0.3964  0.1172 -1.2939
 9793TIP3    H250871   3.845   6.809  13.940 -0.7946  0.7109 -0.3470
 9794TIP3   OH250872   1.339   1.199   0.618  0.2505  0.1998 -0.1551
 9794TIP3    H150873   1.313   1.124   0.671 -0.4854  0.4790 -0.1135
 9794TIP3    H250874   1.423   1.174   0.580  1.3733  0.4505  2.0715
 9795TIP3   OH250875   3.406   0.215   1.008  0.1013 -0.2007 -0.0674
 9795TIP3    H150876   3.377   0.147   1.069 -0.1850  0.4899  0.5821
 9795TIP3    H250877   3.363   0.295   1.040  1.7686  0.6158  0.2011
 9796TIP3   OH250878   0.706   2.339   1.159  0.0746  0.0532 -0.0855
 9796TIP3    H150879   0.684   2.411   1.219  0.8595  0.8988 -0.7936
 9796TIP3    H250880   0.642   2.346   1.088 -1.6219 -1.6968  1.2305
 9797TIP3   OH250881   1.782   6.914   2.473  0.4091  0.5952  0.3430
 9797TIP3    H150882   1.754   7.001   2.444  0.0342  0.4914  0.3959
 9797TIP3    H250883   1.701   6.865   2.484  0.6177  0.2528  0.3639
 9798TIP3   OH250884   3.114   4.270  14.773  0.5583 -0.1754  0.3796
 9798TIP3    H150885   3.055   4.196  14.760  0.4757 -0.2517  1.1579
 9798TIP3    H250886   3.109   4.320  14.691 -0.2378 -0.4274  0.2751
 9799TIP3   OH250887   4.247   7.240  14.176 -0.3791 -0.3252  0.6327
 9799TIP3    H150888   4.295   7.241  14.258  2.0748 -0.8227 -0.7546
 9799TIP3    H250889   4.282   7.165  14.128 -1.4691  0.2038 -1.0437
 9800TIP3   OH250890   0.636   7.179   1.682  0.4022  0.3947 -0.2433
 9800TIP3    H150891   0.544   7.192   1.659  0.5830 -1.1602 -1.9254
 9800TIP3    H250892   0.644   7.216   1.770 -1.7905  0.6604 -0.1309
 9801TIP3   OH250893   3.093   7.043   1.661  0.1443  0.0355 -0.1129
 9801TIP3    H150894   3.154   7.115   1.644  0.1761 -0.4594 -2.1445
 9801TIP3    H250895   3.076   7.049   1.755  0.8475  2.1348 -0.0869
 9802TIP3   OH250896   7.048   0.926   0.028  0.1155 -0.2111 -0.7308
 9802TIP3    H150897   6.982   0.989   0.056  1.6087  1.2725 -0.5052
 9802TIP3    H250898   7.069   0.876   0.107 -2.1376 -2.0389 -1.2249
 9803TIP3   OH250899   4.406   2.830   0.578 -0.0026  0.0769 -0.2193
 9803TIP3    H150900   4.312   2.840   0.565 -0.0025 -1.3113 -1.4533
 9803TIP3    H250901   4.418   2.736   0.592  1.5161 -0.1988 -3.0594
 9804TIP3   OH250902   3.442   0.614   1.647 -0.3921  0.3901 -0.4865
 9804TIP3    H150903   3.389   0.572   1.714  2.4410  0.4849  1.9412
 9804TIP3    H250904   3.398   0.696   1.628 -1.8099 -0.1448  0.4753
 9805TIP3   OH250905   1.341   6.430  15.776  0.4287  0.1411  0.3127
 9805TIP3    H150906   1.398   6.476  15.838 -1.0342 -0.5798  2.2711
 9805TIP3    H250907   1.258   6.421  15.823 -0.0734 -2.3106 -0.9404
 9806TIP3   OH250908   7.065   5.854   1.308  0.2021 -0.1081  0.2417
 9806TIP3    H150909   7.129   5.873   1.376  0.7837 -0.0874 -0.2994
 9806TIP3    H250910   7.012   5.783   1.344  1.2840 -0.9388  0.2341
 9807TIP3   OH250911   1.098   1.138  15.731  0.1376  0.1388 -0.4283
 9807TIP3    H150912   1.151   1.077  15.679  0.8979  0.9041 -0.5655
 9807TIP3    H250913   1.009   1.104  15.723 -0.0236  1.0903 -3.5667
 9808TIP3   OH250914   3.699   6.400   1.163  0.4905 -0.0550  0.0681
 9808TIP3    H150915   3.647   6.320   1.170 -0.1906  0.1663 -2.2380
 9808TIP3    H250916   3.786   6.375   1.196 -0.1184 -1.3181  0.7615
 9809TIP3   OH250917   4.282   2.169   0.395  0.2085 -0.7607 -0.0322
 9809TIP3    H150918   4.327   2.178   0.479  0.3273  2.1596 -0.3704
 9809TIP3    H250919   4.200   2.124   0.417 -0.3352  1.0917  1.8594
 9810TIP3   OH250920   1.094   1.350   1.255  0.1208  0.7404  0.6430
 9810TIP3    H150921   1.022   1.287   1.247  0.6866 -0.1504  2.1935
 9810TIP3    H250922   1.064   1.428   1.209 -1.8842  0.4253  1.3721
 9811TIP3   OH250923   0.238   0.417  15.398  0.3187  0.3771  0.1538
 9811TIP3    H150924   0.323   0.452  15.427 -0.1623  1.6756  0.0207
 9811TIP3    H250925   0.192   0.493  15.363 -0.8240 -0.3686  0.0355
 9812TIP3   OH250926   2.833   3.435  15.963 -0.2252 -0.5848 -0.2295
 9812TIP3    H150927   2.821   3.525  15.993 -0.2473 -0.4382 -0.6880
 9812TIP3    H250928   2.918   3.409  16.000 -1.1619 -1.0903  1.6583
 9813TIP3   OH250929   1.978   1.255  15.454  0.2722  0.1301  0.0929
 9813TIP3    H150930   1.969   1.178  15.398 -1.9210  1.4043 -1.4032
 9813TIP3    H250931   1.960   1.223  15.543 -2.9283 -0.6922 -0.7996
 9814TIP3   OH250932   1.197   0.894   0.011  0.3203  0.7277  0.5850
 9814TIP3    H150933   1.151   0.975   0.033  0.3624  1.1242 -0.7402
 9814TIP3    H250934   1.249   0.916  -0.066 -0.8556 -0.9841 -0.7287
 9815TIP3   OH250935   0.220   6.344   0.211 -0.4010  0.2106 -0.3434
 9815TIP3    H150936   0.182   6.322   0.125 -0.6242  1.0567 -0.4658
 9815TIP3    H250937   0.313   6.359   0.193 -0.0761 -1.4494 -0.1147
 9816TIP3   OH250938   6.428   6.997   2.402 -0.3240 -0.4510 -0.2953
 9816TIP3    H150939   6.358   7.042   2.449  0.6328  0.5161  0.2558
 9816TIP3    H250940   6.437   6.913   2.447 -2.0096 -1.1563 -1.2204
 9817TIP3   OH250941   2.416   0.462   1.817 -0.2741  0.0469  0.3375
 9817TIP3    H150942   2.466   0.392   1.775  0.3977 -0.7859  2.4449
 9817TIP3    H250943   2.471   0.539   1.811 -0.2883 -0.0035 -0.5050
 9818TIP3   OH250944   4.366   0.336   0.539  0.9582 -0.0043 -0.0710
 9818TIP3    H150945   4.444   0.362   0.588  0.3133  1.4179  0.2276
 9818TIP3    H250946   4.391   0.346   0.447  0.2593  3.1988  0.0367
 9819TIP3   OH250947   2.980   0.453   0.582  0.2041 -0.0277 -0.3127
 9819TIP3    H150948   2.979   0.524   0.646 -1.0975  0.5673 -0.9784
 9819TIP3    H250949   3.033   0.486   0.509  1.7521 -0.7348  0.4605
 9820TIP3   OH250950   3.071   0.583   0.338  0.8289 -0.6799  0.0308
 9820TIP3    H150951   3.005   0.540   0.285  0.1045  0.0811  0.3066
 9820TIP3    H250952   3.052   0.676   0.331  1.4475 -0.4938  0.6637
 9821TIP3   OH250953   2.616   3.715  15.856  0.5606  0.6104  0.1924
 9821TIP3    H150954   2.672   3.696  15.931  0.0647  0.8272  0.6212
 9821TIP3    H250955   2.529   3.684  15.881  0.3478  0.8660 -0.2110
 9822TIP3   OH250956   2.830   2.147   1.008 -0.1206  0.2410 -0.2253
 9822TIP3    H150957   2.818   2.200   0.930  0.0869 -1.1612 -1.2279
 9822TIP3    H250958   2.746   2.102   1.020 -0.4656  1.1731  0.9129
 9823TIP3   OH250959   1.369   0.424   1.461  0.0104  0.1299 -0.1590
 9823TIP3    H150960   1.455   0.423   1.504 -0.4114 -0.2885  0.6990
 9823TIP3    H250961   1.383   0.376   1.380  0.9151  1.2646 -0.7015
 9824TIP3   OH250962   4.701   1.874   1.519 -0.3139  0.0682  0.8012
 9824TIP3    H150963   4.690   1.881   1.424  3.4608 -0.6573  0.2391
 9824TIP3    H250964   4.721   1.963   1.547  1.2446 -0.1869  0.5121
 9825TIP3   OH250965   4.327   1.933   0.233  0.4285  0.6249  0.6576
 9825TIP3    H150966   4.320   2.014   0.282  0.4148  0.3503  1.1148
 9825TIP3    H250967   4.330   1.864   0.300 -0.6028  0.1699  0.2458
 9826TIP3   OH250968   5.598   6.860  15.217 -1.0561 -0.5770 -0.0492
 9826TIP3    H150969   5.612   6.770  15.188 -0.3746 -0.0819 -1.3183
 9826TIP3    H250970   5.579   6.853  15.311  2.5162 -1.7876  0.6582
 9827TIP3   OH250971   5.434   3.194   1.148  0.1366  0.2288 -0.0484
 9827TIP3    H150972   5.373   3.239   1.207 -1.4617 -0.4237 -1.1772
 9827TIP3    H250973   5.497   3.261   1.124  0.2760  0.7498  1.6535
 9828TIP3   OH250974   4.824   3.453   1.641 -0.1860  0.7779 -0.2887
 9828TIP3    H150975   4.786   3.522   1.587  0.0840  0.5420 -0.7805
 9828TIP3    H250976   4.805   3.480   1.731 -0.2828  1.3757 -0.4851
 9829TIP3   OH250977   5.298   7.299   1.099 -0.2552  0.0531 -0.0055
 9829TIP3    H150978   5.332   7.212   1.121  0.0767 -0.0143 -0.7420
 9829TIP3    H250979   5.207   7.284   1.075 -0.4624  0.0495  0.7852
 9830TIP3   OH250980   3.807   7.167   0.378 -0.2066 -0.1851  0.0041
 9830TIP3    H150981   3.847   7.231   0.319  0.8855 -0.9598 -0.1193
 9830TIP3    H250982   3.725   7.144   0.336  0.6134 -0.8169 -1.2994
 9831TIP3   OH250983   3.663   6.523   0.030 -0.1263 -0.2551  0.3107
 9831TIP3    H150984   3.585   6.481   0.067 -0.3796  1.2129  1.4711
 9831TIP3    H250985   3.630   6.578  -0.040  0.1337 -1.4187 -0.7455
 9832TIP3   OH250986   0.862   6.231   0.347  0.2090 -0.1137 -0.5273
 9832TIP3    H150987   0.837   6.173   0.418 -0.0295  1.0060  0.3124
 9832TIP3    H250988   0.839   6.319   0.378 -0.1402  0.3611 -2.0815
 9833TIP3   OH250989   3.882   5.053  15.482 -0.3151 -0.2307  0.2015
 9833TIP3    H150990   3.814   4.988  15.500 -0.1443 -0.2527  0.7827
 9833TIP3    H250991   3.964   5.004  15.482 -0.0727  0.1418  1.7029
 9834TIP3   OH250992   5.304   7.262  15.713  0.1923  0.4565  0.2020
 9834TIP3    H150993   5.253   7.234  15.636  0.9994  0.0369 -0.1843
 9834TIP3    H250994   5.361   7.332  15.679 -1.1128  1.9067  0.9406
 9835TIP3   OH250995   4.081   1.094   0.930 -0.0118 -0.6120  0.8217
 9835TIP3    H150996   4.016   1.151   0.971  1.2495  0.2458  1.6508
 9835TIP3    H250997   4.055   1.005   0.955 -2.6975 -0.5530 -1.4654
 9836TIP3   OH250998   1.842   6.560   1.277  0.2972 -0.4601  0.3267
 9836TIP3    H150999   1.859   6.468   1.258 -0.8416 -0.3225 -1.4742
 9836TIP3    H251000   1.926   6.604   1.263  0.8192 -1.1958  1.1056
 9837TIP3   OH251001   2.626   1.617  13.892 -0.1574 -0.6160 -0.5537
 9837TIP3    H151002   2.635   1.569  13.974 -0.0067 -0.6478 -0.5890
 9837TIP3    H251003   2.576   1.696  13.916 -2.4931 -1.9251 -0.9292
 9838TIP3   OH251004   2.149   6.720   1.814  0.2816  0.0706 -0.8768
 9838TIP3    H151005   2.227   6.682   1.774  1.7897  0.6629  1.3497
 9838TIP3    H251006   2.150   6.812   1.786 -0.8735 -0.4487 -2.6505
 9839TIP3   OH251007   6.110   2.050   1.277  0.3628  0.3592  0.3218
 9839TIP3    H151008   6.045   2.000   1.327  0.2601  0.7774  0.6081
 9839TIP3    H251009   6.149   1.985   1.218 -0.5268  0.1646 -0.0676
 9840TIP3   OH251010   5.419   0.845  14.122  0.0480  0.4725  0.4157
 9840TIP3    H151011   5.349   0.892  14.166  0.1991  0.6435  0.4746
 9840TIP3    H251012   5.376   0.800  14.049 -0.1440  0.4628  0.5364
 9841TIP3   OH251013   3.865   0.492  15.218 -0.3892  0.2424 -0.3548
 9841TIP3    H151014   3.874   0.569  15.275  1.6534 -0.5764  0.4992
 9841TIP3    H251015   3.912   0.517  15.138 -2.6776  1.1390 -1.4525
 9842TIP3   OH251016   5.058   0.131   0.145  0.1074 -0.0892  0.0348
 9842TIP3    H151017   5.141   0.177   0.145  1.7501 -2.9238  1.2101
 9842TIP3    H251018   5.072   0.054   0.090 -1.1626 -1.4845  1.5939
 9843TIP3   OH251019   1.125   2.497  15.795  0.1947 -0.0268  0.2056
 9843TIP3    H151020   1.124   2.592  15.780  0.4454  0.4651  3.0563
 9843TIP3    H251021   1.203   2.482  15.848 -0.8878 -1.5258  1.4164
 9844TIP3   OH251022   7.215   0.933  14.650 -0.2906  0.4676 -0.2266
 9844TIP3    H151023   7.155   0.874  14.697 -1.9199  0.0231 -2.7693
 9844TIP3    H251024   7.261   0.876  14.588  0.2249  1.3906 -0.7013
 9845TIP3   OH251025   2.834   1.603  15.270 -0.3346  0.0123 -0.1376
 9845TIP3    H151026   2.785   1.643  15.342 -1.6280  0.6010 -1.3080
 9845TIP3    H251027   2.913   1.655  15.263  0.4706 -0.9099  1.7461
 9846TIP3   OH251028   3.521   1.189   0.313 -0.0478  0.2327  0.4079
 9846TIP3    H151029   3.564   1.114   0.273 -1.0107 -0.0403 -0.1384
 9846TIP3    H251030   3.538   1.261   0.253  0.0507  0.2292  0.4322
 9847TIP3   OH251031   0.754   6.475   0.432  0.3361 -0.4584  0.5748
 9847TIP3    H151032   0.661   6.465   0.454  0.6266 -1.7235  1.2862
 9847TIP3    H251033   0.781   6.555   0.477  0.1329 -1.3077  2.2732
 9848TIP3   OH251034   2.728   1.134  15.229  0.5523  0.2852  0.3323
 9848TIP3    H151035   2.667   1.148  15.157  1.0819  0.6333 -0.0493
 9848TIP3    H251036   2.809   1.106  15.187  0.5307 -0.5948  0.8628
 9849TIP3   OH251037   6.233   1.006  13.444 -0.2162 -0.0461  0.4360
 9849TIP3    H151038   6.229   0.917  13.408  0.9888 -1.1090  2.8389
 9849TIP3    H251039   6.314   1.007  13.496 -1.4648  1.7120  2.4012
 9850TIP3   OH251040   3.610   1.505  15.502  0.2275  0.2711  0.0275
 9850TIP3    H151041   3.515   1.498  15.512  0.4471  0.1571  2.3137
 9850TIP3    H251042   3.644   1.420  15.531  1.1755  1.2182  1.7774
 9851TIP3   OH251043   4.871   1.347  15.670  0.1211  0.0465 -1.3858
 9851TIP3    H151044   4.933   1.414  15.700  1.0035 -1.0285 -0.7833
 9851TIP3    H251045   4.925   1.272  15.648 -0.8590 -0.4452 -2.1815
 9852TIP3   OH251046   5.055   2.466  15.843 -0.3495 -0.2996 -0.3474
 9852TIP3    H151047   5.047   2.541  15.902  0.1315 -0.7558  0.3028
 9852TIP3    H251048   4.972   2.463  15.796 -0.7408  0.0606  0.3154
 9853TIP3   OH251049   5.718   0.359   0.724  0.0752  0.1097 -0.4884
 9853TIP3    H151050   5.759   0.359   0.811  1.7073 -1.3421 -1.2231
 9853TIP3    H251051   5.689   0.449   0.710  0.0663  0.4205  1.4313
 9854TIP3   OH251052   5.496   0.506   1.101 -0.4708 -0.3205  0.4277
 9854TIP3    H151053   5.500   0.593   1.141 -1.1377  0.1120 -0.4087
 9854TIP3    H251054   5.438   0.518   1.026  1.1141 -0.9917 -0.9417
 9855TIP3   OH251055   5.100   1.747  15.408  0.1302  0.0729 -0.3421
 9855TIP3    H151056   5.171   1.697  15.368 -1.6626 -2.4892 -0.4437
 9855TIP3    H251057   5.030   1.747  15.342 -0.4699  1.3912  0.2740
 9856TIP3   OH251058   3.329   6.874   0.119  0.4848 -0.2684  0.0055
 9856TIP3    H151059   3.242   6.858   0.083 -0.2401  2.0105  0.6139
 9856TIP3    H251060   3.362   6.788   0.144  0.2754 -1.7135 -4.3901
 9857TIP3   OH251061   6.026   1.369  14.817 -0.4933 -0.4035 -0.8634
 9857TIP3    H151062   6.019   1.420  14.736 -1.2959  0.0289 -0.5266
 9857TIP3    H251063   6.054   1.282  14.788 -0.5392 -0.1792 -1.5863
 9858TIP3   OH251064   4.523   0.975  15.584 -0.2041  0.0614 -0.4374
 9858TIP3    H151065   4.609   1.002  15.552 -1.2196  1.0231 -2.3781
 9858TIP3    H251066   4.523   0.880  15.574  0.4736  0.0961 -0.7986
 9859TIP3   OH251067   4.185   2.780   1.992 -0.1732  0.6246  0.0279
 9859TIP3    H151068   4.105   2.729   2.002 -1.6834  2.7080 -0.9631
 9859TIP3    H251069   4.249   2.718   1.958 -2.5358 -0.1588 -3.1913
 9860TIP3   OH251070   5.435   7.160  15.081  0.4377  0.0885  0.1929
 9860TIP3    H151071   5.398   7.218  15.015 -1.5983 -0.2691  1.0012
 9860TIP3    H251072   5.481   7.220  15.141  1.8945  0.4490 -1.2457
 9861TIP3   OH251073   4.498   5.916   1.029 -0.2101 -0.2019  0.0332
 9861TIP3    H151074   4.440   5.849   1.066  0.0673 -1.0024 -0.9716
 9861TIP3    H251075   4.582   5.903   1.073  0.7327 -2.5128 -2.3035
 9862TIP3   OH251076   2.680   5.881   1.462  0.3566 -0.4935  0.1279
 9862TIP3    H151077   2.602   5.936   1.472  0.4955 -0.0281 -1.2317
 9862TIP3    H251078   2.654   5.796   1.498  0.0557  0.3622  1.9929
 9863TIP3   OH251079   4.993   3.629   2.255  0.3485  0.3756  0.0356
 9863TIP3    H151080   4.905   3.591   2.250 -0.0568  1.4336 -1.5184
 9863TIP3    H251081   4.991   3.684   2.333 -1.1671  2.2487 -1.2641
 9864TIP3   OH251082   1.411   6.797   0.967  0.2500  0.1512 -0.2299
 9864TIP3    H151083   1.355   6.830   0.896 -0.9792 -1.2075  0.0752
 9864TIP3    H251084   1.410   6.866   1.033 -2.9860 -0.7492  0.7761
 9865TIP3   OH251085   5.437   1.769   0.183 -0.5874  0.1450 -0.2907
 9865TIP3    H151086   5.492   1.693   0.164 -1.5113 -0.6075 -0.0326
 9865TIP3    H251087   5.440   1.776   0.279  0.0488  0.8611 -0.3609
 9866TIP3   OH251088   0.246   0.237   2.220  0.3092 -0.2427 -0.0377
 9866TIP3    H151089   0.327   0.264   2.264 -0.1052 -0.0237  0.5971
 9866TIP3    H251090   0.194   0.317   2.216 -0.7111 -0.8215  1.3872
 9867TIP3   OH251091   6.892   2.999  15.439 -0.1162 -0.0438  0.2324
 9867TIP3    H151092   6.888   2.962  15.527 -0.8546  0.1243  0.2682
 9867TIP3    H251093   6.937   2.932  15.387 -0.2913 -0.4358  0.5847
 9868TIP3   OH251094   5.668   6.916   0.223  0.4978  0.0217 -0.3672
 9868TIP3    H151095   5.714   6.835   0.200  0.4059 -0.1783  0.1373
 9868TIP3    H251096   5.723   6.957   0.289  0.5796  0.4098 -0.6766
 9869TIP3   OH251097   7.140   6.336  13.485  0.5576 -0.0587 -1.1937
 9869TIP3    H151098   7.226   6.310  13.516  0.1789 -1.7932 -1.5139
 9869TIP3    H251099   7.125   6.422  13.524  2.0765 -0.1093 -0.4628
 9870TIP3   OH251100   7.055   6.526  14.961 -0.2915  0.0551 -0.5257
 9870TIP3    H151101   6.998   6.472  15.016  0.4459 -0.0313  0.1568
 9870TIP3    H251102   7.077   6.469  14.887  1.9886 -1.2707  1.1084
 9871TIP3   OH251103   5.793   6.710  14.678 -0.1873 -0.3902  0.4846
 9871TIP3    H151104   5.863   6.682  14.738  1.3188 -0.2362 -1.1774
 9871TIP3    H251105   5.742   6.630  14.663  1.1626 -1.1275 -0.3136
 9872TIP3   OH251106   4.876   0.705   0.607  0.1735 -0.1265 -0.1711
 9872TIP3    H151107   4.815   0.755   0.553 -0.7769 -0.0440  0.9793
 9872TIP3    H251108   4.823   0.671   0.679  1.9534  2.1114  2.2906
 9873TIP3   OH251109   5.831   0.072   0.937 -0.0092 -0.5259  0.0571
 9873TIP3    H151110   5.767   0.108   0.876 -0.8347 -1.3898  0.3941
 9873TIP3    H251111   5.792   0.083   1.024  0.3302 -0.9763  0.2744
 9874TIP3   OH251112   6.580   6.485   0.670 -0.1645  0.3212  0.2316
 9874TIP3    H151113   6.606   6.424   0.601  0.9995 -0.3373  1.2215
 9874TIP3    H251114   6.491   6.459   0.693  0.5346 -1.4279  1.0614
 9875TIP3   OH251115   2.188   6.531  15.720 -0.0365 -0.1111 -0.3083
 9875TIP3    H151116   2.106   6.549  15.674 -2.2404 -1.5870  2.8564
 9875TIP3    H251117   2.215   6.615  15.756 -1.6750 -0.1037  0.9475
 9876TIP3   OH251118   3.168   1.085  15.676  0.3231  0.7862  0.1615
 9876TIP3    H151119   3.149   1.036  15.756  2.0017  0.6199  0.4748
 9876TIP3    H251120   3.206   1.019  15.617  2.4810  1.6425  0.5430
 9877TIP3   OH251121   1.304   6.075  15.181 -0.2416  0.3942 -0.5246
 9877TIP3    H151122   1.347   6.131  15.246  1.8808 -0.9694 -0.6762
 9877TIP3    H251123   1.238   6.027  15.231  0.5584  0.2278  0.3869
 9878TIP3   OH251124   2.055   4.722   1.955 -0.2560  0.1336 -0.3967
 9878TIP3    H151125   2.077   4.777   2.031  0.3475  0.6211 -0.9165
 9878TIP3    H251126   2.082   4.634   1.981 -0.8883  0.1333  0.3002
 9879TIP3   OH251127   7.323   1.572  15.666 -0.1578 -0.2728 -0.1032
 9879TIP3    H151128   7.246   1.624  15.644 -0.0695 -0.3666 -0.6374
 9879TIP3    H251129   7.342   1.522  15.587  0.7467  0.1205 -0.1450
 9880TIP3   OH251130   5.135   0.712  15.723 -0.5340 -0.1774  0.6680
 9880TIP3    H151131   5.191   0.719  15.800  1.0058  1.4696 -0.5787
 9880TIP3    H251132   5.117   0.618  15.716  1.5946 -0.6828  1.4371
 9881TIP3   OH251133   5.881   2.874  13.623 -0.2157 -0.0057  0.4068
 9881TIP3    H151134   5.787   2.881  13.637 -0.4780  0.2369 -1.4637
 9881TIP3    H251135   5.905   2.791  13.665 -1.2012  0.0694  1.1335
 9882TIP3   OH251136   6.261   6.374  13.638  0.9917 -0.0429  0.0114
 9882TIP3    H151137   6.326   6.412  13.579  1.3040  0.5812  0.7596
 9882TIP3    H251138   6.211   6.448  13.671  0.1130 -0.4859 -0.2932
 9883TIP3   OH251139   5.917   1.625   1.380 -0.3643  0.2261  0.0042
 9883TIP3    H151140   5.932   1.537   1.347  0.9664  0.5204 -0.2079
 9883TIP3    H251141   5.824   1.627   1.401 -1.0138 -0.3328 -2.6660
 9884TIP3   OH251142   0.037   1.396   1.459 -0.5474 -0.2812  0.1429
 9884TIP3    H151143   0.121   1.350   1.454  0.4138  1.5756 -1.1997
 9884TIP3    H251144  -0.028   1.326   1.467  0.9776 -1.8191 -0.5944
 9885TIP3   OH251145   4.114   0.168  15.613  0.0172 -0.0537 -0.0764
 9885TIP3    H151146   4.151   0.191  15.528  0.5422 -0.9005 -0.0874
 9885TIP3    H251147   4.125   0.073  15.619  0.0530  0.0074  0.9597
 9886TIP3   OH251148   6.576   1.368  13.740  0.2609 -0.2094 -0.8753
 9886TIP3    H151149   6.580   1.333  13.651  0.3475  0.8726 -1.2944
 9886TIP3    H251150   6.623   1.304  13.793  2.0076  0.1870 -1.9274
 9887TIP3   OH251151   2.200   0.666  13.813 -0.5545 -0.0374 -0.1016
 9887TIP3    H151152   2.181   0.752  13.776 -1.2861  0.4960  1.5126
 9887TIP3    H251153   2.162   0.668  13.901  1.5159 -1.1365  0.8552
 9888TIP3   OH251154   5.410   1.133   0.514 -0.3181  0.8396  1.4017
 9888TIP3    H151155   5.480   1.197   0.508  0.2332  0.2133  1.0191
 9888TIP3    H251156   5.401   1.098   0.426 -1.3863  1.1928  1.3577
 9889TIP3   OH251157   3.501   4.342  15.711  0.0138  0.0658 -0.3582
 9889TIP3    H151158   3.472   4.343  15.620 -0.4546  0.6404 -0.2082
 9889TIP3    H251159   3.490   4.252  15.740  2.8338 -0.7851 -1.7166
 9890TIP3   OH251160   4.568   6.891   0.815  0.5321 -0.3230  0.0035
 9890TIP3    H151161   4.650   6.880   0.767  0.6772  0.5045  0.0687
 9890TIP3    H251162   4.567   6.818   0.877  0.7713 -0.8772 -0.6309
 9891TIP3   OH251163   6.238   0.085   1.224  0.1939 -0.5133 -0.0985
 9891TIP3    H151164   6.322   0.084   1.180  1.4095  0.2875  2.1467
 9891TIP3    H251165   6.222  -0.007   1.247  0.4220 -0.6681 -0.5415
 9892TIP3   OH251166   5.686   1.697  14.215  0.5729  0.4069 -0.2396
 9892TIP3    H151167   5.710   1.718  14.305  3.2617 -0.7072 -0.6360
 9892TIP3    H251168   5.650   1.778  14.180  0.2685  1.0869  1.5989
 9893TIP3   OH251169   3.755   0.470  12.926 -0.1627  0.3627 -0.0271
 9893TIP3    H151170   3.665   0.476  12.959 -0.2824 -0.8250 -0.1032
 9893TIP3    H251171   3.781   0.560  12.910 -1.1563  0.7537  0.5072
 9894TIP3   OH251172   1.075   6.688  15.754 -0.2362 -0.0216  0.7710
 9894TIP3    H151173   1.041   6.600  15.772 -0.4212 -0.5981 -2.0807
 9894TIP3    H251174   1.161   6.690  15.796  0.1915 -1.9393  0.0353
 9895TIP3   OH251175   7.320   2.091  14.057 -0.2786 -0.0829  0.3477
 9895TIP3    H151176   7.312   1.996  14.056 -0.1809 -0.0962  0.6299
 9895TIP3    H251177   7.371   2.112  13.979  0.2082 -0.3133  0.5977
 9896TIP3   OH251178   4.976   0.457   2.152  0.0591  0.1910  0.0292
 9896TIP3    H151179   4.911   0.390   2.169  1.3767 -1.1700 -0.1691
 9896TIP3    H251180   5.050   0.434   2.209  1.7823 -0.4096 -2.3273
 9897TIP3   OH251181   6.669   1.916   1.234 -0.1797 -0.1529 -0.1911
 9897TIP3    H151182   6.664   1.825   1.262 -0.1228  0.6571  2.5878
 9897TIP3    H251183   6.579   1.948   1.241 -0.2207 -0.0179 -1.2814
 9898TIP3   OH251184   6.088   2.908  14.603  0.5047 -0.5178 -0.3320
 9898TIP3    H151185   6.160   2.943  14.550  1.0429 -1.4568 -0.2257
 9898TIP3    H251186   6.091   2.958  14.684  3.6663 -3.2994  1.3912
 9899TIP3   OH251187   6.819   3.502  14.041 -0.7283  0.1064 -0.7280
 9899TIP3    H151188   6.781   3.416  14.025 -0.5967  0.2000 -1.5884
 9899TIP3    H251189   6.898   3.504  13.986 -0.3821  0.5305 -0.2192
 9900TIP3   OH251190   0.834   3.312  15.859 -0.1027 -0.4549  0.2803
 9900TIP3    H151191   0.918   3.303  15.904  0.6156 -1.1049 -1.1845
 9900TIP3    H251192   0.844   3.390  15.805 -0.3232 -0.7220 -0.1458
 9901TIP3   OH251193   6.385   2.221  15.990 -0.7649  0.2824  0.1702
 9901TIP3    H151194   6.324   2.229  15.916 -0.9066 -1.2164  0.1080
 9901TIP3    H251195   6.466   2.190  15.952 -0.4188  0.8288  0.4587
 9902TIP3   OH251196   0.537   0.498   0.726  0.5601 -1.1817  0.0814
 9902TIP3    H151197   0.509   0.418   0.769  0.1951 -0.1631  1.7588
 9902TIP3    H251198   0.456   0.541   0.700  0.7453 -1.1330 -0.4226
 9903TIP3   OH251199   1.902   4.389   2.461  0.3702 -0.4133  0.2077
 9903TIP3    H151200   1.847   4.400   2.538  0.8490 -1.4877  0.7045
 9903TIP3    H251201   1.863   4.316   2.413  1.7647 -1.6361  0.9198
 9904TIP3   OH251202   2.213   2.932   0.694 -0.3060 -0.3597  0.0181
 9904TIP3    H151203   2.207   3.027   0.705 -1.4160 -0.3361 -0.7855
 9904TIP3    H251204   2.249   2.920   0.606 -2.3175 -0.7013 -0.7831
 9905TIP3   OH251205   3.051   3.413   0.785  0.2601 -0.0395  0.1479
 9905TIP3    H151206   3.073   3.506   0.780 -1.3257  0.2780 -1.4196
 9905TIP3    H251207   3.002   3.405   0.867 -1.4738  0.9517 -0.7564
 9906TIP3   OH251208   1.375   1.657  15.122 -0.3352  0.0298  0.2315
 9906TIP3    H151209   1.314   1.645  15.196  0.6985 -0.6950  0.9827
 9906TIP3    H251210   1.328   1.714  15.062 -2.9203 -2.7477 -0.5118
 9907TIP3   OH251211   2.307   4.192  15.521 -0.0488 -0.0352  0.0450
 9907TIP3    H151212   2.225   4.200  15.471 -0.2637 -0.0018  0.3982
 9907TIP3    H251213   2.368   4.252  15.477 -0.2022 -0.0933 -0.2478
 9908TIP3   OH251214   0.647   3.498  15.184  0.2185 -0.2994 -0.1598
 9908TIP3    H151215   0.556   3.498  15.156  0.3580 -0.1976 -0.6406
 9908TIP3    H251216   0.695   3.532  15.107  0.3629  2.3714  1.0317
 9909TIP3   OH251217   1.959   0.860   1.421 -0.0531  0.6659 -0.5492
 9909TIP3    H151218   1.892   0.816   1.369  0.6033 -0.9397 -0.0760
 9909TIP3    H251219   1.911   0.922   1.475 -1.2171 -0.7457  0.0706
 9910TIP3   OH251220   0.234   1.486  14.223  0.3498  0.2299  0.7050
 9910TIP3    H151221   0.252   1.460  14.314 -0.0752 -1.8108  0.2370
 9910TIP3    H251222   0.188   1.411  14.186 -1.2309  1.8415 -0.6565
 9911TIP3   OH251223   2.668   5.165   0.993 -0.2995 -0.1502  0.3977
 9911TIP3    H151224   2.602   5.206   0.937 -0.3035  0.3198  0.7423
 9911TIP3    H251225   2.618   5.114   1.056 -0.3130 -0.2272  0.3250
 9912TIP3   OH251226   6.160   1.315   1.074 -0.0016 -0.6540  0.2655
 9912TIP3    H151227   6.161   1.221   1.093 -0.2788 -0.5984  0.5569
 9912TIP3    H251228   6.244   1.348   1.106  0.7213 -1.0613 -1.1565
 9913TIP3   OH251229   1.649   2.199   1.959 -0.1375  0.3726  0.2412
 9913TIP3    H151230   1.598   2.276   1.935 -0.5835  0.0342  0.1014
 9913TIP3    H251231   1.649   2.144   1.881 -0.4889 -0.1284  0.5924
 9914TIP3   OH251232   1.520   1.405  14.032  0.9803 -0.2109  0.2067
 9914TIP3    H151233   1.571   1.371  13.958 -0.5492 -1.0043 -0.5148
 9914TIP3    H251234   1.428   1.396  14.004  0.4323  1.0943  1.5086
 9915TIP3   OH251235   0.827   3.197  14.164 -0.5493 -0.4495 -0.3889
 9915TIP3    H151236   0.788   3.284  14.172 -0.7536 -0.5872  0.1321
 9915TIP3    H251237   0.767   3.148  14.108 -0.7323 -0.4287 -0.2111
 9916TIP3   OH251238   2.469   3.456  15.679 -0.0646  0.1983  0.1613
 9916TIP3    H151239   2.411   3.501  15.741  0.7312  2.3787 -0.6290
 9916TIP3    H251240   2.492   3.523  15.614  2.2013 -1.0105 -0.3451
 9917TIP3   OH251241   6.267   2.865   2.919  0.4000 -1.0151 -0.4552
 9917TIP3    H151242   6.288   2.895   3.007  1.4875  1.9986 -1.6580
 9917TIP3    H251243   6.326   2.791   2.903  2.0998  0.1275  0.3982
 9918TIP3   OH251244   1.239   3.187   0.700 -0.3251  0.5621 -0.2192
 9918TIP3    H151245   1.311   3.165   0.640 -0.1802  0.8992 -0.1677
 9918TIP3    H251246   1.249   3.124   0.772  0.5704  1.3057  0.3162
 9919TIP3   OH251247   7.135   3.897   0.408 -0.3977 -0.6235 -0.0369
 9919TIP3    H151248   7.157   3.987   0.386 -1.3029 -0.5474 -0.6276
 9919TIP3    H251249   7.053   3.904   0.458 -1.2981 -1.2294 -1.4064
 9920TIP3   OH251250   1.899   4.610  15.951 -0.3956 -0.4496  0.2078
 9920TIP3    H151251   1.870   4.651  16.032  0.6327  0.1550  0.2906
 9920TIP3    H251252   1.974   4.663  15.923 -0.9752 -0.4114 -1.3481
 9921TIP3   OH251253   0.460   2.561  15.887  0.5943 -0.0168 -0.8994
 9921TIP3    H151254   0.505   2.477  15.875  0.3306 -0.2744 -0.1075
 9921TIP3    H251255   0.397   2.545  15.957 -0.7408  0.3398 -1.9939
 9922TIP3   OH251256   0.571   2.664  12.208 -0.7284 -0.3161 -0.3134
 9922TIP3    H151257   0.611   2.674  12.294 -1.8546  0.7434  0.0869
 9922TIP3    H251258   0.597   2.576  12.180  2.4021  0.5385 -0.3515
 9923TIP3   OH251259   6.416   2.081  15.486 -0.4695 -0.0449 -0.3539
 9923TIP3    H151260   6.370   2.009  15.531  0.7347  0.6423  2.0513
 9923TIP3    H251261   6.371   2.160  15.515 -0.2528  0.3483 -1.0864
 9924TIP3   OH251262   1.224   4.262   1.680 -0.2531 -0.4156 -0.3445
 9924TIP3    H151263   1.216   4.173   1.645  0.8666 -0.3156 -0.8951
 9924TIP3    H251264   1.307   4.261   1.727 -1.0611 -0.1362  1.1260
 9925TIP3   OH251265   1.905   3.889   1.354  0.0253  0.3243  0.0735
 9925TIP3    H151266   1.947   3.854   1.432 -0.3478 -0.0876  0.0883
 9925TIP3    H251267   1.903   3.984   1.368 -0.6114  0.1955  0.8423
 9926TIP3   OH251268   0.582   3.099  14.080  0.0664  0.7237 -0.4077
 9926TIP3    H151269   0.566   3.026  14.140 -1.1153 -0.7229 -2.3994
 9926TIP3    H251270   0.516   3.164  14.104  1.6099  1.5152  1.8819
 9927TIP3   OH251271   2.086   0.554   0.332 -0.0748 -0.2575  0.1252
 9927TIP3    H151272   2.105   0.472   0.378 -0.2866 -1.1396 -1.3027
 9927TIP3    H251273   1.995   0.544   0.303 -0.1374  0.5326  0.0587
 9928TIP3   OH251274   0.988   2.436   0.389 -0.1664  0.2407 -0.0801
 9928TIP3    H151275   0.917   2.409   0.332  0.0530 -0.5863  0.0308
 9928TIP3    H251276   1.065   2.442   0.332  0.0608 -0.6218  0.1311
 9929TIP3   OH251277   2.544   1.002   1.713 -0.1687  0.2391 -0.1154
 9929TIP3    H151278   2.636   0.979   1.730  0.5966  3.5518  0.5268
 9929TIP3    H251279   2.537   1.000   1.617  0.4748 -0.3543 -0.1614
 9930TIP3   OH251280   2.703   3.689  14.844 -0.5994  0.0970 -0.3006
 9930TIP3    H151281   2.646   3.688  14.922 -0.3220 -0.7713 -0.1122
 9930TIP3    H251282   2.645   3.716  14.773 -0.9546  0.4791  0.1284
 9931TIP3   OH251283   2.558   6.405  14.664  0.2830 -0.1685 -0.1124
 9931TIP3    H151284   2.626   6.401  14.597  0.4205  2.6526 -0.2155
 9931TIP3    H251285   2.545   6.314  14.691  2.0763 -1.0586 -2.0938
 9932TIP3   OH251286   0.051   3.755  15.785 -0.1751 -0.0237 -0.5457
 9932TIP3    H151287  -0.014   3.687  15.800 -0.1453  0.2653  0.9786
 9932TIP3    H251288   0.069   3.751  15.691 -0.7025 -1.6343 -0.5942
 9933TIP3   OH251289   1.428   2.381  14.610 -0.1686 -0.2320 -0.2653
 9933TIP3    H151290   1.395   2.314  14.550  1.6080 -1.7939  0.4537
 9933TIP3    H251291   1.412   2.344  14.697 -0.9304  1.1475  0.1909
 9934TIP3   OH251292   1.777   3.105  15.958 -0.5768 -0.3774  0.0958
 9934TIP3    H151293   1.711   3.143  15.900  0.1865 -0.1904 -0.6563
 9934TIP3    H251294   1.823   3.181  15.995 -0.0746 -0.5324 -0.2063
 9935TIP3   OH251295   0.081   2.392  13.123 -0.5159  0.0081  0.1922
 9935TIP3    H151296   0.079   2.487  13.126 -0.1730  0.0963 -1.6451
 9935TIP3    H251297   0.076   2.371  13.030 -2.6647 -1.8377  0.6850
 9936TIP3   OH251298   2.784   3.013   0.991  0.8437 -0.2469 -0.3744
 9936TIP3    H151299   2.834   2.965   0.925  0.9174 -0.5604 -0.0906
 9936TIP3    H251300   2.702   2.964   0.999  0.3466  0.4595 -1.0864
 9937TIP3   OH251301   5.362   1.788  14.833  0.2086  0.6014 -0.0938
 9937TIP3    H151302   5.410   1.734  14.894 -0.1518  2.0108  1.4792
 9937TIP3    H251303   5.413   1.785  14.752  1.6218  0.1159  0.8060
 9938TIP3   OH251304   6.196   1.552   0.485  0.1659 -0.0336 -0.3411
 9938TIP3    H151305   6.252   1.557   0.407 -1.1201  0.2044 -1.2659
 9938TIP3    H251306   6.136   1.626   0.476  1.1455  1.0454  1.7862
 9939TIP3   OH251307   7.193   1.907  15.556  0.1143 -0.2711 -0.1190
 9939TIP3    H151308   7.144   1.826  15.571 -1.9558  1.0408  0.4149
 9939TIP3    H251309   7.135   1.960  15.502  2.3892 -0.0019 -2.3955
 9940TIP3   OH251310   5.460   3.286   0.855  0.3548  0.2592 -0.5473
 9940TIP3    H151311   5.540   3.238   0.877  0.3400 -0.2956 -1.6494
 9940TIP3    H251312   5.456   3.282   0.759  0.9425  3.3902 -0.7608
 9941TIP3   OH251313   2.879   3.273  14.159  0.1094 -0.7475  0.6855
 9941TIP3    H151314   2.908   3.281  14.068 -1.0481 -0.0353  0.3618
 9941TIP3    H251315   2.951   3.311  14.210 -1.0844  2.9676 -0.2309
 9942TIP3   OH251316   5.174   2.371   0.241  0.7103  0.1599 -0.0779
 9942TIP3    H151317   5.206   2.394   0.154  0.5747 -1.4537 -0.5656
 9942TIP3    H251318   5.159   2.277   0.237  1.1381 -0.0144  1.8264
 9943TIP3   OH251319   3.059   7.184   0.124 -0.2419 -0.3661 -0.1919
 9943TIP3    H151320   2.992   7.252   0.128  0.2510  0.1776 -1.0545
 9943TIP3    H251321   3.141   7.230   0.136 -0.0499 -1.1324  1.6744
 9944TIP3   OH251322   6.267   2.792  14.316  0.2642  0.1993  0.0321
 9944TIP3    H151323   6.299   2.880  14.339 -0.2183 -0.3212  2.9360
 9944TIP3    H251324   6.339   2.752  14.268  1.9556  0.9373  1.8522
 9945TIP3   OH251325   2.433   3.744   0.919  0.3478 -0.3612 -0.4699
 9945TIP3    H151326   2.388   3.827   0.906 -0.0491 -0.3129  1.0328
 9945TIP3    H251327   2.526   3.763   0.902  0.3151  0.4934  0.2926
 9946TIP3   OH251328   2.381   2.879   0.476 -0.3399  0.5939 -0.4237
 9946TIP3    H151329   2.422   2.963   0.454  0.4053 -0.1185 -1.8567
 9946TIP3    H251330   2.453   2.816   0.471 -1.0453 -0.2381 -0.0898
 9947TIP3   OH251331   4.815   4.366  15.033  0.2094 -0.0438  0.3009
 9947TIP3    H151332   4.752   4.399  15.097 -0.4500 -0.9967  0.1494
 9947TIP3    H251333   4.764   4.309  14.976  1.3714 -1.5216  0.7104
 9948TIP3   OH251334   2.369   5.201   2.090 -0.2335 -0.1791  0.2778
 9948TIP3    H151335   2.320   5.254   2.153 -0.7149  0.8915 -0.9713
 9948TIP3    H251336   2.318   5.207   2.010  0.7359 -0.9595 -0.4055
 9949TIP3   OH251337   3.655   1.271  15.771 -0.2353  0.1126  0.0858
 9949TIP3    H151338   3.711   1.349  15.764  1.0754 -0.8861 -0.6275
 9949TIP3    H251339   3.684   1.228  15.851 -1.3686  0.6565  0.8033
 9950TIP3   OH251340   4.754   1.986  15.881 -0.3977  0.5461  0.4566
 9950TIP3    H151341   4.731   1.901  15.919  0.7989 -0.2140 -0.5095
 9950TIP3    H251342   4.848   1.982  15.869 -0.5484  1.4007 -1.1049
 9951TIP3   OH251343   3.459   1.850  15.431  0.2081  0.1575  0.1076
 9951TIP3    H151344   3.483   1.939  15.406  2.6332  0.1690  2.2815
 9951TIP3    H251345   3.537   1.814  15.473 -1.3667 -2.2915  1.0970
 9952TIP3   OH251346   1.858   1.713   1.516  0.1020  0.1749  0.3274
 9952TIP3    H151347   1.863   1.638   1.575  1.7944 -0.0479 -0.0566
 9952TIP3    H251348   1.780   1.760   1.543 -0.0671 -0.8379  1.6518
 9953TIP3   OH251349   4.957   4.310   0.535 -0.7618  0.5258  0.1574
 9953TIP3    H151350   4.865   4.322   0.556 -0.2142 -0.9074  3.7825
 9953TIP3    H251351   4.982   4.229   0.579  2.4454  1.3452  0.0259
 9954TIP3   OH251352   3.801   1.739   0.915  0.7219 -0.5173 -0.0203
 9954TIP3    H151353   3.748   1.795   0.972  0.2600 -2.2699  1.2974
 9954TIP3    H251354   3.815   1.792   0.836 -0.2290  1.2096  0.9428
 9955TIP3   OH251355   3.719   3.716   0.505 -0.3987  0.0907 -0.5909
 9955TIP3    H151356   3.736   3.800   0.464  0.3725  0.2906  0.1211
 9955TIP3    H251357   3.679   3.738   0.589  2.4787 -0.0947  0.9219
 9956TIP3   OH251358   5.982   5.575  15.614  0.4868 -0.0677 -0.0977
 9956TIP3    H151359   6.076   5.584  15.626  0.4393 -0.4227  0.5478
 9956TIP3    H251360   5.952   5.524  15.689 -0.3740  0.9302  0.2540
 9957TIP3   OH251361   5.005   3.012  15.268  0.2607 -0.4753 -0.4817
 9957TIP3    H151362   4.975   2.956  15.339  0.4130  1.9161  1.5597
 9957TIP3    H251363   5.100   2.997  15.264  0.5102  0.6066  0.9812
 9958TIP3   OH251364   1.574   3.454   0.541  0.8054 -0.0115  0.5494
 9958TIP3    H151365   1.646   3.517   0.537  0.5605  0.2364  0.0132
 9958TIP3    H251366   1.564   3.423   0.451 -0.6609  0.9739  0.3524
 9959TIP3   OH251367   3.161   3.269   1.415 -0.0416 -0.3486 -0.6875
 9959TIP3    H151368   3.167   3.301   1.325  0.2415  1.7902  0.0655
 9959TIP3    H251369   3.068   3.256   1.430 -0.3879  2.2953 -0.3062
 9960TIP3   OH251370   2.109   3.670  15.217 -0.1072  0.0541 -0.0388
 9960TIP3    H151371   2.131   3.761  15.235  1.6018 -0.1690 -0.8600
 9960TIP3    H251372   2.149   3.652  15.132 -3.1737 -0.5351 -1.4429
 9961TIP3   OH251373   4.671   4.741  15.366  0.0895 -0.1141 -0.3097
 9961TIP3    H151374   4.684   4.663  15.311  2.2616 -0.7825  1.0799
 9961TIP3    H251375   4.616   4.712  15.438  0.5064 -0.2548 -0.0452
 9962TIP3   OH251376   2.201   3.735   0.475 -0.3667  0.4505 -0.3529
 9962TIP3    H151377   2.174   3.646   0.498 -0.0766 -0.5499 -3.5933
 9962TIP3    H251378   2.172   3.789   0.548 -0.9785 -2.2306  1.4560
 9963TIP3   OH251379   2.534   2.931   1.072 -0.1648 -0.0503 -0.0601
 9963TIP3    H151380   2.490   2.862   1.022 -1.4836  0.5081  0.3243
 9963TIP3    H251381   2.481   3.009   1.058  2.3972  1.4139 -2.1083
 9964TIP3   OH251382   2.189   4.854  15.596 -0.1028 -0.9062 -0.6566
 9964TIP3    H151383   2.208   4.946  15.578 -2.2022 -0.2755  0.2797
 9964TIP3    H251384   2.275   4.816  15.615  0.6332  1.1954  0.4685
 9965TIP3   OH251385   3.966   2.141   0.779  0.1808 -0.0433  0.2275
 9965TIP3    H151386   3.986   2.077   0.848 -0.0612 -0.9525 -0.5330
 9965TIP3    H251387   4.051   2.177   0.755  0.7230 -2.2687 -1.4202
 9966TIP3   OH251388   1.164   3.156  14.564  0.5237  0.1858  0.0908
 9966TIP3    H151389   1.171   3.061  14.557  1.1897  0.3795 -2.4735
 9966TIP3    H251390   1.254   3.187  14.554  0.2444  1.1071  0.4074
 9967TIP3   OH251391   5.192   2.979   1.572 -0.1144 -0.0905 -0.0995
 9967TIP3    H151392   5.275   3.003   1.530  0.2394  0.5436  0.9420
 9967TIP3    H251393   5.135   3.054   1.556 -0.4241 -0.4358 -0.6299
 9968TIP3   OH251394   5.179   3.044  15.566  0.3812 -0.1628  0.4708
 9968TIP3    H151395   5.131   3.120  15.598  0.7517  0.3839 -0.2521
 9968TIP3    H251396   5.138   2.970  15.610 -0.2317  0.4163  0.8944
 9969TIP3   OH251397   3.069   3.593   1.067  0.0212 -0.0044 -0.3462
 9969TIP3    H151398   3.144   3.546   1.104  0.6026  1.2276  0.0786
 9969TIP3    H251399   2.994   3.559   1.116  0.1283 -2.0122 -1.4907
 9970TIP3   OH251400   4.044   3.343  15.647 -0.4060 -0.2325  0.4454
 9970TIP3    H151401   4.028   3.436  15.633 -2.4161 -0.4482  1.1615
 9970TIP3    H251402   4.043   3.332  15.742 -4.0993 -1.5867  0.3367
 9971TIP3   OH251403   4.055   3.481   1.983 -0.1268  0.2685 -0.1005
 9971TIP3    H151404   4.053   3.391   1.952  1.7499  0.3409 -0.4489
 9971TIP3    H251405   4.013   3.531   1.913  0.9667 -0.0290 -0.9849
 9972TIP3   OH251406   1.279   2.920   0.228  0.4567  0.0780 -0.0722
 9972TIP3    H151407   1.288   2.868   0.149  0.2607 -1.6814  1.0454
 9972TIP3    H251408   1.361   2.904   0.276 -0.1388 -0.1890  0.8550
 9973TIP3   OH251409   6.687   2.365   0.775 -0.0555 -0.4948 -0.0395
 9973TIP3    H151410   6.676   2.459   0.759  1.4614 -0.6186 -1.9941
 9973TIP3    H251411   6.601   2.328   0.757 -0.4924  0.4395  0.0745
 9974TIP3   OH251412   3.589   2.274   0.756  0.4348 -0.1333  0.2137
 9974TIP3    H151413   3.676   2.301   0.726  0.9576 -1.9666 -0.0241
 9974TIP3    H251414   3.587   2.297   0.848  0.4555  1.6145 -0.2017
 9975TIP3   OH251415   4.053   3.655   0.102  0.7168  0.4523  0.3204
 9975TIP3    H151416   4.023   3.705   0.025 -0.0232 -1.7845 -0.8959
 9975TIP3    H251417   3.975   3.647   0.157  0.2914 -1.1092 -0.4804
 9976TIP3   OH251418   3.931   0.821  15.149  0.1641  0.6182  0.2479
 9976TIP3    H151419   3.949   0.744  15.095 -2.2953  0.0005  0.2411
 9976TIP3    H251420   3.991   0.888  15.117  1.3909 -0.9013 -0.6662
 9977TIP3   OH251421   6.196   0.538   0.400 -0.5286  0.1533 -0.1547
 9977TIP3    H151422   6.227   0.473   0.337 -2.0946 -0.3009 -0.4923
 9977TIP3    H251423   6.214   0.623   0.359  1.3049 -0.0609  0.1802
 9978TIP3   OH251424   0.705   7.066   0.858  0.0988 -0.4820  0.2808
 9978TIP3    H151425   0.650   7.078   0.935  0.8723 -0.6089  0.8550
 9978TIP3    H251426   0.794   7.081   0.890  0.4322 -0.6746 -0.5564
 9979TIP3   OH251427   0.798   0.144   1.022  0.3083  0.6181 -0.2597
 9979TIP3    H151428   0.814   0.134   1.116 -0.6547  0.2410 -0.1298
 9979TIP3    H251429   0.703   0.136   1.013  0.4380  0.2077 -1.3173
 9980TIP3   OH251430   1.832   4.099   0.474 -0.4424  0.0107  0.1959
 9980TIP3    H151431   1.776   4.176   0.466 -0.6429 -0.2968 -1.7193
 9980TIP3    H251432   1.803   4.055   0.554 -0.4803  1.7937  1.1740
 9981TIP3   OH251433   1.659   2.034   0.036 -0.4607  0.0970 -0.4552
 9981TIP3    H151434   1.664   2.008  -0.056  1.2308  0.6243 -0.5151
 9981TIP3    H251435   1.575   2.081   0.042 -0.1813  0.8162 -1.9186
 9982TIP3   OH251436   3.038   3.053  15.495 -0.3226  0.7836  0.0488
 9982TIP3    H151437   3.015   2.983  15.435  1.6433  0.3689 -0.2720
 9982TIP3    H251438   2.955   3.095  15.518 -1.2282  0.0785 -1.8714
 9983TIP3   OH251439   4.072   5.790   1.831  0.6865  0.5112 -0.1181
 9983TIP3    H151440   4.136   5.852   1.797 -0.3130  0.7910 -1.5183
 9983TIP3    H251441   4.038   5.832   1.911  0.8802  1.2170 -0.4072
 9984TIP3   OH251442   4.654   2.553   0.609  0.0644  0.1691  0.6024
 9984TIP3    H151443   4.574   2.501   0.612  0.9331 -1.1864  1.0406
 9984TIP3    H251444   4.725   2.488   0.617  1.2132  1.2909 -0.2402
 9985TIP3   OH251445   4.961   4.523  15.350  0.1966 -0.0314  0.2630
 9985TIP3    H151446   5.001   4.608  15.372  0.9126 -0.6198  1.2693
 9985TIP3    H251447   5.002   4.498  15.268  0.5311  0.2479  0.3428
 9986TIP3   OH251448   5.148   4.096  13.256  0.1977  0.1667  0.0571
 9986TIP3    H151449   5.220   4.158  13.265 -0.0361  0.5196 -0.4694
 9986TIP3    H251450   5.069   4.150  13.268 -0.0522  0.2229 -1.6826
 9987TIP3   OH251451   4.478   3.094   0.611  0.2335 -0.0352 -0.4421
 9987TIP3    H151452   4.555   3.103   0.555  0.1710  0.9893 -0.3648
 9987TIP3    H251453   4.454   3.002   0.604 -0.1220  0.2024 -2.5422
 9988TIP3   OH251454   6.232   1.205  15.005 -0.3054 -0.1088 -0.0333
 9988TIP3    H151455   6.169   1.217  14.934  2.1170  0.4356 -2.1686
 9988TIP3    H251456   6.189   1.146  15.066 -2.9111  0.3338 -1.3699
 9989TIP3   OH251457   4.913   2.639   1.690 -0.3863  0.0538 -0.3660
 9989TIP3    H151458   4.867   2.710   1.645 -0.4750  0.9934  1.1532
 9989TIP3    H251459   4.845   2.591   1.736 -0.1287  0.1129  0.0903
 9990TIP3   OH251460   4.322   0.713   0.309 -0.2357 -0.1028  0.1036
 9990TIP3    H151461   4.364   0.678   0.388 -1.8374  1.1930  1.5743
 9990TIP3    H251462   4.303   0.804   0.331 -2.1201 -0.1609 -1.2089
 9991TIP3   OH251463   5.265   3.553  15.042  0.1331 -0.3887 -0.2409
 9991TIP3    H151464   5.242   3.482  15.102  1.6302 -1.3958 -0.8350
 9991TIP3    H251465   5.193   3.555  14.979  0.1946 -1.5609 -0.3652
 9992TIP3   OH251466   5.473   4.553  14.469  0.1610 -0.2083  0.2084
 9992TIP3    H151467   5.523   4.542  14.550 -1.0781  0.9073  1.1437
 9992TIP3    H251468   5.394   4.501  14.482 -0.5127  0.7884  0.1296
 9993TIP3   OH251469   6.056   4.465   0.471  0.3714  0.2297 -0.6494
 9993TIP3    H151470   6.093   4.528   0.533  1.6315 -1.4657  0.3956
 9993TIP3    H251471   5.963   4.485   0.468  0.5154  1.1913  0.7987
 9994TIP3   OH251472   4.558   2.908  15.745  0.3609 -0.3160 -0.0287
 9994TIP3    H151473   4.527   2.990  15.784  0.2509  0.7807 -2.3552
 9994TIP3    H251474   4.625   2.935  15.683  1.2792 -2.1170  0.1600
 9995TIP3   OH251475   5.069   1.204   0.058 -0.5131 -0.7049  0.0797
 9995TIP3    H151476   5.135   1.164   0.114  0.5724  0.3746 -0.4153
 9995TIP3    H251477   5.110   1.284   0.025 -3.1015  1.5951  2.1465
 9996TIP3   OH251478   3.814   5.038   1.888 -0.2734 -0.0921  0.2722
 9996TIP3    H151479   3.756   5.062   1.959  1.2713  0.3634  1.4115
 9996TIP3    H251480   3.841   5.122   1.849  0.8186 -0.2143  0.7440
 9997TIP3   OH251481   5.397   2.404  14.982 -0.4922 -0.0735  0.4306
 9997TIP3    H151482   5.487   2.373  14.997 -0.2891  0.2970 -0.0153
 9997TIP3    H251483   5.342   2.330  15.006  0.0200 -1.1629 -1.6245
 9998TIP3   OH251484   4.064   4.967  13.748 -0.2204 -0.3739  0.1188
 9998TIP3    H151485   4.151   4.929  13.737 -0.8853 -1.7594 -0.5647
 9998TIP3    H251486   4.063   5.043  13.690  0.7217 -0.0215  0.5636
 9999TIP3   OH251487   3.819   1.818  15.171  0.5083 -0.3468 -0.2774
 9999TIP3    H151488   3.885   1.887  15.171  1.0741 -0.8901 -0.4113
 9999TIP3    H251489   3.855   1.750  15.226  0.2303 -0.8099 -0.6625
10000TIP3   OH251490   5.482   3.506  14.571 -0.0890 -0.5318  0.1950
10000TIP3    H151491   5.387   3.497  14.570 -0.2172  0.6240  1.0933
10000TIP3    H251492   5.502   3.558  14.494 -0.1777 -0.8625 -0.0514
10001TIP3   OH251493   4.596   1.957  12.853 -0.0618  0.5212 -0.4297
10001TIP3    H151494   4.636   2.008  12.923  0.2681 -0.3365  0.0019
10001TIP3    H251495   4.661   1.956  12.783  0.3228 -0.1323 -0.0646
10002TIP3   OH251496   3.507   6.910  14.102  0.0091  0.4830 -0.1247
10002TIP3    H151497   3.569   6.981  14.085 -0.5040  0.8176 -0.6441
10002TIP3    H251498   3.425   6.955  14.125 -0.1912  0.0502  0.0203
10003TIP3   OH251499   4.946   0.645  14.942  0.1661 -0.6483 -0.2285
10003TIP3    H151500   4.975   0.635  15.033  0.7754  1.9140 -0.1191
10003TIP3    H251501   5.007   0.707  14.903 -2.1342  0.9414 -1.4170
10004TIP3   OH251502   5.343   5.708  13.218  0.1288 -0.1529  0.3507
10004TIP3    H151503   5.361   5.802  13.212  1.1974 -0.2276  2.0066
10004TIP3    H251504   5.248   5.702  13.223  0.0431  0.8316 -0.0281
10005TIP3   OH251505   2.501   3.345   0.348  0.4036 -0.7503 -0.0200
10005TIP3    H151506   2.455   3.381   0.272  1.6365  0.6474 -0.1174
10005TIP3    H251507   2.580   3.305   0.312  1.4564  0.7172  0.5874
10006TIP3   OH251508   4.137   4.168  13.788 -0.0210  0.2042  0.4025
10006TIP3    H151509   4.202   4.140  13.853  0.2935  0.3154  0.1381
10006TIP3    H251510   4.054   4.169  13.836 -0.0634 -1.3251  0.3841
10007TIP3   OH251511   4.362   2.319  14.557  0.0089  0.2551 -0.1358
10007TIP3    H151512   4.372   2.349  14.467 -1.9817  0.2110 -0.4091
10007TIP3    H251513   4.272   2.286  14.561  0.4606 -0.8371  1.5554
10008TIP3   OH251514   3.564   3.669  15.346  0.7142  0.3616 -0.2514
10008TIP3    H151515   3.642   3.700  15.301  0.2884 -1.0387 -2.0006
10008TIP3    H251516   3.491   3.713  15.303  0.3680 -0.2267 -0.2752
10009TIP3   OH251517   3.716   3.572  15.723  0.0811  0.5634  0.3297
10009TIP3    H151518   3.719   3.527  15.639  1.8185 -0.3031  0.8510
10009TIP3    H251519   3.644   3.530  15.770  0.5815 -0.5038  0.1539
10010TIP3   OH251520   3.532   3.900  15.143 -0.0938 -0.1630  0.1128
10010TIP3    H151521   3.512   3.985  15.104  1.3460  0.7082  1.2162
10010TIP3    H251522   3.468   3.890  15.213  1.0351  1.0271  1.3702
10011TIP3   OH251523   4.066   4.391  14.965 -0.3693  1.1475 -0.2665
10011TIP3    H151524   4.009   4.343  15.025  0.2591  0.9761  0.1983
10011TIP3    H251525   4.013   4.465  14.935 -2.5880 -1.6162 -3.6079
10012TIP3   OH251526   6.833   4.722  12.319  0.3498  0.0233  0.5102
10012TIP3    H151527   6.921   4.718  12.356 -0.0299 -2.4483  1.2675
10012TIP3    H251528   6.775   4.724  12.395 -0.2848  0.0300  0.0303
10013TIP3   OH251529   4.876   4.852  15.147 -0.1059 -0.0332  0.0984
10013TIP3    H151530   4.920   4.918  15.092 -0.8635  0.0356 -0.4286
10013TIP3    H251531   4.784   4.878  15.146 -0.2837 -0.6462  0.5441
10014TIP3   OH251532   3.119   2.931   0.558  0.4235 -0.2206  0.0245
10014TIP3    H151533   3.123   2.863   0.626 -1.1831 -3.0794 -2.5850
10014TIP3    H251534   3.032   2.969   0.568  0.8072  0.4994  0.6160
10015TIP3   OH251535   5.602   3.363  15.110 -0.7275  0.6174 -0.3498
10015TIP3    H151536   5.600   3.371  15.014  0.4576 -1.0942 -0.5440
10015TIP3    H251537   5.545   3.288  15.128  1.1612 -0.7474  0.0505
10016TIP3   OH251538   6.455   4.059  14.538 -0.0453  0.1025 -0.2880
10016TIP3    H151539   6.379   4.105  14.502  0.7170  0.3528 -1.6165
10016TIP3    H251540   6.419   3.978  14.574 -0.8696 -0.0596 -1.4415
10017TIP3   OH251541   5.362   6.872   0.100 -0.0187  0.4752  0.0322
10017TIP3    H151542   5.421   6.864   0.175  1.9243  1.4257 -1.3654
10017TIP3    H251543   5.334   6.783   0.082 -2.1602  0.4057  3.1205
10018TIP3   OH251544   5.874   2.025   3.095 -0.7218 -0.2997  0.2687
10018TIP3    H151545   5.889   2.106   3.047  0.8978 -0.8311 -0.1515
10018TIP3    H251546   5.859   2.053   3.185  1.5801  0.3977  0.4717
10019TIP3   OH251547   4.183   2.056   0.034  0.4603 -0.1931  0.2984
10019TIP3    H151548   4.239   2.001   0.089 -0.5927 -2.9589 -1.2897
10019TIP3    H251549   4.095   2.020   0.048 -0.4226  1.8366  0.0620
10020TIP3   OH251550   5.517   3.864   1.245  0.0219 -0.1429  0.2799
10020TIP3    H151551   5.474   3.915   1.314  1.2444  0.0896  0.8747
10020TIP3    H251552   5.610   3.868   1.266  0.3334 -0.7647 -0.9240
10021TIP3   OH251553   4.988   4.408  14.418  0.3890 -0.3088  0.4454
10021TIP3    H151554   5.075   4.419  14.456  0.2575 -2.0349  1.2948
10021TIP3    H251555   5.003   4.403  14.324  1.2135 -0.5272  0.5850
10022TIP3   OH251556   4.595   2.962  14.008 -0.2705 -0.3148 -0.3213
10022TIP3    H151557   4.658   2.970  13.937 -0.1135 -1.6787 -0.3419
10022TIP3    H251558   4.570   3.052  14.029 -0.6477  0.0804 -2.4080
10023TIP3   OH251559   3.343   3.834   0.839 -0.7187  0.8141 -0.9120
10023TIP3    H151560   3.371   3.900   0.776 -1.0611  1.0226 -0.8485
10023TIP3    H251561   3.425   3.803   0.879 -0.5897  1.6508 -0.4918
10024TIP3   OH251562   0.135   2.971  15.804 -0.1625  0.0405  0.2529
10024TIP3    H151563   0.218   2.947  15.845 -0.0019 -0.0782 -0.1370
10024TIP3    H251564   0.157   2.983  15.711 -0.5971 -0.0716  0.1345
10025TIP3   OH251565   1.791   1.072   1.532  0.2965 -0.9858 -0.4418
10025TIP3    H151566   1.719   1.119   1.491  2.2800  3.4290  0.8420
10025TIP3    H251567   1.770   1.071   1.625  0.7394 -1.9068 -0.3410
10026TIP3   OH251568   6.573   3.168   1.077  0.3083  0.1006 -0.5714
10026TIP3    H151569   6.614   3.241   1.032 -1.0218  1.8064  0.9249
10026TIP3    H251570   6.586   3.187   1.170 -1.4518 -0.7427 -0.1399
10027TIP3   OH251571   6.388   2.576  13.406 -0.2980 -0.8177 -0.7726
10027TIP3    H151572   6.442   2.499  13.426  1.2541  0.5422  0.4175
10027TIP3    H251573   6.442   2.629  13.348 -0.4694  0.3792  0.1332
10028TIP3   OH251574   0.719   1.874   1.614  0.1065  0.4331  0.2072
10028TIP3    H151575   0.635   1.908   1.582  0.3494  1.2051  0.3647
10028TIP3    H251576   0.713   1.881   1.709  1.0918  2.3801  0.1660
10029TIP3   OH251577   5.629   1.464   0.920  0.2565  0.1121 -0.4616
10029TIP3    H151578   5.691   1.534   0.900 -1.4616  1.9230  0.3277
10029TIP3    H251579   5.551   1.485   0.869 -1.3403  0.4437  2.0044
10030TIP3   OH251580   6.320   5.122   0.004 -0.5263  0.2727  0.0018
10030TIP3    H151581   6.326   5.158  -0.085 -1.1510  1.6696  0.5130
10030TIP3    H251582   6.258   5.049  -0.004  0.3757 -0.3993 -0.9478
10031TIP3   OH251583   5.328   0.968  14.597  0.0871  0.2440  0.3543
10031TIP3    H151584   5.360   1.057  14.615  0.2425  0.4332 -0.8035
10031TIP3    H251585   5.386   0.911  14.647  2.4063  0.5803 -1.8521
10032TIP3   OH251586   5.655   2.844   0.264  0.4174 -0.1138  0.8890
10032TIP3    H151587   5.572   2.829   0.218 -0.0705  1.7956  1.0800
10032TIP3    H251588   5.722   2.817   0.202 -0.3170 -0.0384  0.0484
10033TIP3   OH251589   5.245   2.554   0.789  0.3057 -0.0746 -0.2894
10033TIP3    H151590   5.325   2.570   0.840 -0.7544 -1.7745  1.9744
10033TIP3    H251591   5.186   2.625   0.815  0.1635 -0.3025  0.0139
10034TIP3   OH251592   6.907   1.974   0.026 -0.0905 -0.4738  0.0309
10034TIP3    H151593   6.980   1.915   0.044  0.5798 -0.0996 -1.3799
10034TIP3    H251594   6.847   1.961   0.099  0.8940 -1.5688  0.6616
10035TIP3   OH251595   7.214   6.858  14.419  0.1487  0.3960  0.1633
10035TIP3    H151596   7.198   6.947  14.386  1.3130 -0.0819 -1.7771
10035TIP3    H251597   7.129   6.830  14.454  0.4362  3.3271  3.4879
10036TIP3   OH251598   7.131   3.786   1.373 -0.4798 -0.7700  0.0960
10036TIP3    H151599   7.062   3.727   1.343 -0.9152 -0.3348  0.2446
10036TIP3    H251600   7.095   3.828   1.451 -0.4574  0.2348 -0.4278
10037TIP3   OH251601   2.528   2.621  15.573  0.3851 -0.2309 -0.0957
10037TIP3    H151602   2.479   2.685  15.625  0.2660 -0.7575  0.4536
10037TIP3    H251603   2.466   2.590  15.507 -0.2500 -1.3928  1.0226
10038TIP3   OH251604   6.797   3.450  14.528  0.2072  0.2326  0.5822
10038TIP3    H151605   6.839   3.481  14.448 -0.1464 -0.9161 -0.0623
10038TIP3    H251606   6.783   3.529  14.580  1.3719  0.8626 -0.0416
10039TIP3   OH251607   5.855   3.403  14.340 -0.2375  0.1138 -0.6510
10039TIP3    H151608   5.948   3.390  14.319 -0.2817 -1.5290  0.0828
10039TIP3    H251609   5.819   3.314  14.345 -2.6277  0.7704 -4.2337
10040TIP3   OH251610   4.798   3.239   0.669 -0.3074 -0.4075 -0.6731
10040TIP3    H151611   4.813   3.146   0.686  1.0043 -0.1137 -0.1265
10040TIP3    H251612   4.855   3.258   0.594  0.4415  0.2474  0.0546
10041TIP3   OH251613   5.999   2.336   0.874  0.4311 -0.0036 -0.0365
10041TIP3    H151614   5.966   2.376   0.954 -0.5890  0.1192 -0.5221
10041TIP3    H251615   5.927   2.341   0.812  1.6006  0.9924 -1.3625
10042TIP3   OH251616   5.318   2.914  15.330 -0.0205  0.1991 -0.3505
10042TIP3    H151617   5.277   2.950  15.409  0.5303  0.9009 -0.3793
10042TIP3    H251618   5.319   2.819  15.344  0.1699  0.3295  0.5282
10043TIP3   OH251619   5.429   2.176   0.160 -0.3059  0.0080 -0.0088
10043TIP3    H151620   5.417   2.204   0.069  0.2955  0.8604  0.1651
10043TIP3    H251621   5.341   2.156   0.191 -0.6220  0.6866 -0.4671
10044TIP3   OH251622   5.777   4.227  14.141  0.1273  0.2335 -0.1486
10044TIP3    H151623   5.687   4.196  14.140  0.2104 -0.0639  1.1011
10044TIP3    H251624   5.773   4.312  14.185  0.3521  0.5640 -0.7609
10045TIP3   OH251625   1.546   3.613  15.473  0.1588  0.3494  0.1917
10045TIP3    H151626   1.515   3.582  15.558 -0.0055 -0.1867 -0.0668
10045TIP3    H251627   1.480   3.583  15.411  0.5018  0.3739 -0.1872
10046TIP3   OH251628   4.492   3.749  13.276  0.2601  0.3988  0.2347
10046TIP3    H151629   4.572   3.794  13.248 -0.4439  0.8452 -1.1506
10046TIP3    H251630   4.421   3.800  13.235 -0.5490 -2.1162 -1.6427
10047TIP3   OH251631   0.669   3.680  14.734 -0.0745  0.0876 -0.4680
10047TIP3    H151632   0.600   3.617  14.712  0.6571 -0.4289 -1.2753
10047TIP3    H251633   0.650   3.756  14.679 -1.8247  1.1983  1.5509
10048TIP3   OH251634   5.398   2.151   0.473  0.3015 -0.3968 -0.1121
10048TIP3    H151635   5.319   2.194   0.506 -0.3354 -0.5710 -1.3785
10048TIP3    H251636   5.419   2.085   0.540  0.2477  0.6610  0.9597
10049TIP3   OH251637   1.255   3.856  15.695  0.0522  0.2223  0.6843
10049TIP3    H151638   1.185   3.920  15.712  1.2211  1.1821  1.9927
10049TIP3    H251639   1.325   3.907  15.655  0.1050 -0.6974 -0.4092
10050TIP3   OH251640   7.233   3.422   0.724  0.5088 -0.2370 -0.2912
10050TIP3    H151641   7.324   3.434   0.698  0.3277 -0.4381 -1.0073
10050TIP3    H251642   7.196   3.510   0.724  0.7186 -0.1451  0.0777
10051TIP3   OH251643   5.364   1.555  15.409 -0.0721 -0.6064  0.5601
10051TIP3    H151644   5.379   1.480  15.467  2.8286 -1.1607 -0.8554
10051TIP3    H251645   5.451   1.589  15.389 -1.2799  2.5509  0.3346
10052TIP3   OH251646   5.089   1.995  13.859 -0.4653  0.1352 -0.6548
10052TIP3    H151647   5.028   1.982  13.787 -0.6696  1.3680 -0.7174
10052TIP3    H251648   5.120   2.085  13.848 -1.2851  0.6966  1.3972
10053TIP3   OH251649   6.551   1.184  14.901  0.7159 -0.0565  0.0294
10053TIP3    H151650   6.516   1.256  14.953  1.1730 -0.3183  0.7028
10053TIP3    H251651   6.613   1.226  14.840  0.0836  0.2624 -0.4005
10054TIP3   OH251652   0.049   2.086  15.706 -0.3330 -0.1733  0.0942
10054TIP3    H151653  -0.013   2.159  15.708  0.2913  0.4196 -1.4177
10054TIP3    H251654  -0.006   2.010  15.687 -0.9450 -0.0754  1.3705
10055TIP3   OH251655   5.603   2.357   0.259 -0.4041 -0.4111  0.1096
10055TIP3    H151656   5.570   2.284   0.207 -0.4744  0.8426 -1.6669
10055TIP3    H251657   5.550   2.355   0.339 -0.4307 -2.2537  0.0729
10056TIP3   OH251658   0.588   4.408   0.526  0.2081  0.1534 -0.2428
10056TIP3    H151659   0.653   4.345   0.558 -0.8344 -1.0663 -0.4718
10056TIP3    H251660   0.506   4.381   0.568 -0.1696  1.6605  0.0199
10057TIP3   OH251661   0.615   1.813   0.740 -0.2611 -0.1458  0.3688
10057TIP3    H151662   0.555   1.769   0.680 -1.0722  0.5886  0.6161
10057TIP3    H251663   0.694   1.760   0.739 -0.5205 -0.5169 -0.8148
10058TIP3   OH251664   1.151   3.584  15.458 -0.0767  0.4583 -0.8138
10058TIP3    H151665   1.075   3.620  15.413 -2.2740 -1.5422  1.1747
10058TIP3    H251666   1.173   3.651  15.524 -0.9013  0.5044 -0.5726
10059TIP3   OH251667   2.234   5.178  14.707  0.6513  0.4654  0.7087
10059TIP3    H151668   2.153   5.128  14.717  0.9540 -0.2240 -0.2314
10059TIP3    H251669   2.281   5.164  14.789 -0.2252  0.9685  1.3126
10060TIP3   OH251670   2.537   6.287   0.782  0.3266 -0.1540  0.4107
10060TIP3    H151671   2.590   6.250   0.711  0.8606  0.5410  0.4402
10060TIP3    H251672   2.483   6.354   0.739 -0.0876 -0.4367  0.4883
10061TIP3   OH251673   1.165   3.631   0.552 -0.0690  0.3197  0.1661
10061TIP3    H151674   1.219   3.572   0.605 -0.2725 -0.4286 -0.4473
10061TIP3    H251675   1.225   3.701   0.526 -0.0579  0.8877  1.6750
10062TIP3   OH251676   1.105   5.382   1.886  0.8216  0.8526 -0.2200
10062TIP3    H151677   1.027   5.376   1.831 -0.3304 -1.9935  1.5843
10062TIP3    H251678   1.095   5.465   1.932 -1.3244  0.4165  0.1870
10063TIP3   OH251679   0.093   6.737  14.609  0.8684 -0.1291 -0.3775
10063TIP3    H151680   0.112   6.826  14.639 -0.7249  0.4140 -0.9482
10063TIP3    H251681   0.010   6.744  14.563  1.4015 -1.6645 -1.6270
10064TIP3   OH251682   1.065   3.727  15.889 -0.2162  0.2024 -0.0299
10064TIP3    H151683   1.131   3.784  15.851  0.1211  0.2502  0.6330
10064TIP3    H251684   1.001   3.786  15.929  0.0381  0.1236  0.4971
10065TIP3   OH251685   6.653   4.241   0.625 -0.1660 -0.1281  0.8130
10065TIP3    H151686   6.725   4.292   0.588 -1.3380  1.5776  0.8082
10065TIP3    H251687   6.670   4.238   0.719  2.3035 -3.6468  0.3841
10066TIP3   OH251688   0.277   4.033   1.583  0.1480  0.2326  0.1016
10066TIP3    H151689   0.318   3.978   1.517 -0.1009  1.2407 -0.8962
10066TIP3    H251690   0.348   4.085   1.619 -0.1712  1.7769 -1.4308
10067TIP3   OH251691   0.605   3.965  14.946  0.3101 -0.4030 -0.4598
10067TIP3    H151692   0.680   4.024  14.941  0.3481 -0.5899 -3.2114
10067TIP3    H251693   0.617   3.905  14.872 -1.2702 -1.9907  0.5387
10068TIP3   OH251694   0.668   4.559  13.809 -0.0939  0.0693 -0.4160
10068TIP3    H151695   0.752   4.545  13.852  0.4601  0.0460 -1.4913
10068TIP3    H251696   0.649   4.476  13.766 -2.8428 -1.4637  3.4380
10069TIP3   OH251697   0.829   3.822  15.740 -0.1598 -0.6113 -0.6202
10069TIP3    H151698   0.844   3.869  15.822  1.3759 -0.7923 -0.7951
10069TIP3    H251699   0.734   3.808  15.738 -0.5346  1.6599 -0.1240
10070TIP3   OH251700   1.840   3.819  14.187  0.5179  0.3412 -0.3435
10070TIP3    H151701   1.924   3.863  14.175  0.0515  1.5064  0.5618
10070TIP3    H251702   1.775   3.889  14.183 -0.3622 -0.4564 -0.3312
10071TIP3   OH251703   6.116   2.023   3.566  0.2250 -0.2504 -0.4100
10071TIP3    H151704   6.163   1.961   3.621 -1.6659 -2.8659 -1.6115
10071TIP3    H251705   6.087   2.091   3.626  0.8498 -1.4351  1.2684
10072TIP3   OH251706   1.219   4.592  15.363 -0.4044  0.0366 -0.2096
10072TIP3    H151707   1.277   4.622  15.433 -0.9432 -1.0577  0.7109
10072TIP3    H251708   1.158   4.665  15.350  0.4473  0.7349 -0.4043
10073TIP3   OH251709   1.504   2.861  14.882 -0.0582 -0.4915 -0.1694
10073TIP3    H151710   1.417   2.833  14.908  1.2283 -4.1876  0.5127
10073TIP3    H251711   1.507   2.846  14.788  0.5653 -2.6595  0.1653
10074TIP3   OH251712   1.582   5.156  15.022 -0.3845  0.5078 -0.2403
10074TIP3    H151713   1.596   5.236  14.972 -1.9881  0.2027 -1.1973
10074TIP3    H251714   1.565   5.089  14.956  2.8972 -1.1086  0.4244
10075TIP3   OH251715   0.145   1.033  15.267  0.4243  0.2348 -0.1962
10075TIP3    H151716   0.079   1.102  15.263 -0.3942 -0.5638 -0.8424
10075TIP3    H251717   0.143   0.993  15.180 -0.1456 -1.5395  0.6036
10076TIP3   OH251718   0.384   6.103  15.369  0.2428 -0.0008 -0.3245
10076TIP3    H151719   0.373   6.011  15.346 -0.9990  0.2445 -0.7007
10076TIP3    H251720   0.458   6.102  15.431  0.1129 -1.2667 -0.1594
10077TIP3   OH251721   2.137   3.575  14.960  0.2031  0.3711  0.1857
10077TIP3    H151722   2.063   3.576  14.900  0.0732  1.1340  0.3577
10077TIP3    H251723   2.189   3.500  14.931 -0.5425 -0.0663 -0.0404
10078TIP3   OH251724   0.027   5.959   1.294  0.1289 -0.0928  0.2694
10078TIP3    H151725   0.114   5.980   1.328 -0.0430  2.1106 -0.5811
10078TIP3    H251726  -0.017   5.915   1.367  1.0904  1.0762  1.5776
10079TIP3   OH251727   0.113   2.801   0.820  0.3471 -0.5318  0.6092
10079TIP3    H151728   0.191   2.821   0.768  0.8412 -0.5848  1.3079
10079TIP3    H251729   0.066   2.736   0.769 -0.3162  1.0275 -0.8056
10080TIP3   OH251730   1.477   4.351  14.348  0.4867  0.2241  0.2646
10080TIP3    H151731   1.410   4.401  14.302 -1.2157 -1.9379  0.2926
10080TIP3    H251732   1.450   4.354  14.440  0.0019 -1.2479  0.1832
10081TIP3   OH251733   3.672   6.019  14.587 -0.0965  0.1630  0.4529
10081TIP3    H151734   3.595   6.010  14.531 -0.3002  1.9741  0.4008
10081TIP3    H251735   3.638   6.013  14.676 -0.3913  1.4760  0.4401
10082TIP3   OH251736   0.432   5.988   0.677  0.4947  0.6750 -0.1925
10082TIP3    H151737   0.402   5.938   0.752  0.3910  1.2859  0.1772
10082TIP3    H251738   0.375   5.960   0.605 -0.3256  1.1151  0.2823
10083TIP3   OH251739   2.320   5.511  14.122  0.4590 -0.4023 -0.3028
10083TIP3    H151740   2.233   5.478  14.101  0.2985  0.3252 -0.8245
10083TIP3    H251741   2.380   5.445  14.088  0.1175 -0.8367 -0.0664
10084TIP3   OH251742   6.312   6.207  15.268  0.3557  0.2825  0.2147
10084TIP3    H151743   6.392   6.159  15.285 -0.7291 -2.1988 -1.3583
10084TIP3    H251744   6.303   6.205  15.172 -1.2354  1.0876  0.3299
10085TIP3   OH251745   0.845   4.797  13.443  0.2122 -0.1449 -0.3252
10085TIP3    H151746   0.835   4.845  13.361  0.9213 -1.4873 -1.2307
10085TIP3    H251747   0.762   4.808  13.488  0.1822  1.4599 -0.7558
10086TIP3   OH251748   1.839   4.638  13.808  0.0562  0.1668 -0.6042
10086TIP3    H151749   1.755   4.616  13.769 -0.7264  0.6217  0.7784
10086TIP3    H251750   1.886   4.687  13.740 -0.9464  0.2458 -1.2406
10087TIP3   OH251751   7.096   6.022  14.979 -1.0988  0.1254 -0.1771
10087TIP3    H151752   7.121   5.964  14.907 -0.8580  0.5356 -0.4234
10087TIP3    H251753   7.125   6.109  14.952 -1.5531  0.3799  0.1468
10088TIP3   OH251754   3.513   6.425  12.957  0.1656 -0.1651 -0.0336
10088TIP3    H151755   3.605   6.428  12.981  0.6037  0.8013 -1.7242
10088TIP3    H251756   3.468   6.471  13.028  0.8407 -1.5752  1.3333
10089TIP3   OH251757   5.770   0.729  14.555  0.2391  0.3819 -0.3847
10089TIP3    H151758   5.721   0.723  14.472 -1.1333  1.0989  0.3521
10089TIP3    H251759   5.827   0.652  14.554 -2.0980 -1.4241 -0.5394
10090TIP3   OH251760   0.832   4.194  13.227 -0.0010 -0.1698  0.3538
10090TIP3    H151761   0.877   4.110  13.221 -1.9293 -1.2466  0.3844
10090TIP3    H251762   0.902   4.260  13.224  1.3452 -1.6469 -3.1634
10091TIP3   OH251763   1.923   2.021   0.163 -0.1767 -0.1774  0.1532
10091TIP3    H151764   1.944   2.092   0.223  0.1776 -0.5735  0.4991
10091TIP3    H251765   1.828   2.025   0.152 -0.6070 -1.7130  2.7735
10092TIP3   OH251766   0.069   5.215  14.240  0.0443 -0.0881  0.9609
10092TIP3    H151767   0.141   5.171  14.194 -0.3424  0.6461 -0.3650
10092TIP3    H251768   0.006   5.145  14.259  0.8435 -0.6359  1.6229
10093TIP3   OH251769   2.069   4.429   0.640 -0.3277  0.2562  0.5537
10093TIP3    H151770   2.142   4.489   0.625  1.0622 -1.2728  1.0808
10093TIP3    H251771   2.043   4.400   0.553  1.2376 -0.9663  0.4629
10094TIP3   OH251772   1.805   4.802   1.891  0.1456 -0.4287 -0.2818
10094TIP3    H151773   1.768   4.797   1.980 -1.6550 -1.8118 -1.0765
10094TIP3    H251774   1.892   4.764   1.899  0.0801 -0.3582  0.9339
10095TIP3   OH251775   6.022   2.794   0.302 -0.2386 -0.2592  0.0768
10095TIP3    H151776   5.947   2.765   0.354 -0.2799 -1.6244 -0.7235
10095TIP3    H251777   5.989   2.799   0.213 -0.8795  4.6256  0.4714
10096TIP3   OH251778   0.676   3.038  14.592  0.3294 -0.7572 -0.5739
10096TIP3    H151779   0.599   3.089  14.566  1.4049  0.6629 -0.9963
10096TIP3    H251780   0.747   3.074  14.540  1.3276 -1.9697 -0.0715
10097TIP3   OH251781   1.616   4.066  13.676 -0.2787  0.0790  0.1694
10097TIP3    H151782   1.523   4.084  13.666  0.3360  2.6510 -1.6729
10097TIP3    H251783   1.639   4.098  13.763 -1.2552 -1.4239  1.0035
10098TIP3   OH251784   1.690   5.130   1.546 -1.0829  0.1289 -0.0047
10098TIP3    H151785   1.753   5.202   1.537 -0.2200 -0.4683  1.1733
10098TIP3    H251786   1.714   5.070   1.475 -1.0307  0.4245 -0.2416
10099TIP3   OH251787   2.196   6.675  15.101  0.0953  0.0736  0.1130
10099TIP3    H151788   2.259   6.631  15.157 -0.9178  0.6903  1.7821
10099TIP3    H251789   2.154   6.605  15.052  1.0050 -0.4727  0.1129
10100TIP3   OH251790   2.902   4.957   0.134 -0.2449  0.0314 -0.7423
10100TIP3    H151791   2.889   5.051   0.148  0.1853  0.4168 -2.6780
10100TIP3    H251792   2.977   4.934   0.188  0.3776  1.0681 -1.1461
10101TIP3   OH251793   3.665   2.018  15.362  0.2125 -0.7180  0.5409
10101TIP3    H151794   3.732   2.075  15.325 -0.9888 -0.1881 -0.8725
10101TIP3    H251795   3.713   1.948  15.405  1.6583 -0.6878 -0.9922
10102TIP3   OH251796   3.338   2.766   2.183  0.0295  0.2077  0.0491
10102TIP3    H151797   3.328   2.856   2.151 -0.8188 -0.6297 -2.1743
10102TIP3    H251798   3.415   2.733   2.137  1.3178  0.2817  2.0950
10103TIP3   OH251799   2.908   0.445  15.872  0.0664  0.4607  0.0192
10103TIP3    H151800   2.883   0.388  15.799  1.0841 -0.4614  0.3841
10103TIP3    H251801   2.949   0.521  15.830 -0.1275  0.3364 -0.3989
10104TIP3   OH251802   2.705   5.820   0.346 -0.1365  1.0932 -0.0478
10104TIP3    H151803   2.682   5.732   0.319  0.0123  1.1641 -0.4023
10104TIP3    H251804   2.760   5.854   0.276 -0.8871  1.7730 -0.3217
10105TIP3   OH251805   1.999   2.271  15.074  0.1155 -0.2029  0.5704
10105TIP3    H151806   1.912   2.262  15.035  0.6172 -1.0327 -0.3919
10105TIP3    H251807   2.010   2.366  15.086 -0.1452  0.0659 -1.1188
10106TIP3   OH251808   4.570   4.323  15.557 -0.7928 -0.5539  0.0526
10106TIP3    H151809   4.645   4.274  15.523 -3.2382 -3.6327 -1.1050
10106TIP3    H251810   4.583   4.324  15.652  1.6266  0.5594 -0.2586
10107TIP3   OH251811   1.323   3.629   1.860  0.5378 -0.0092 -0.7981
10107TIP3    H151812   1.285   3.572   1.927  0.2349  2.2592  1.0383
10107TIP3    H251813   1.273   3.710   1.867  1.3868  0.7185 -2.9041
10108TIP3   OH251814   3.235   2.554  14.586 -0.2256  0.0684 -0.4415
10108TIP3    H151815   3.168   2.542  14.654  0.2276 -1.6901 -0.2656
10108TIP3    H251816   3.306   2.496  14.613  0.8153  0.9208 -1.3395
10109TIP3   OH251817   2.639   4.575  14.291  0.3690  0.4517  0.1522
10109TIP3    H151818   2.667   4.512  14.358 -3.4187 -1.6092 -0.0628
10109TIP3    H251819   2.621   4.656  14.339  0.8298 -0.0287  1.1417
10110TIP3   OH251820   1.740   4.590  14.894 -0.1826 -0.7420 -0.3082
10110TIP3    H151821   1.735   4.516  14.833 -0.3854 -0.1372 -1.0266
10110TIP3    H251822   1.822   4.575  14.942  0.1481 -1.0529 -0.9520
10111TIP3   OH251823   2.442   4.580  13.870  0.2213  0.0312  0.0405
10111TIP3    H151824   2.457   4.519  13.943 -0.1131 -0.2593 -0.1305
10111TIP3    H251825   2.463   4.529  13.792  0.8363  0.4241 -0.0530
10112TIP3   OH251826   0.012   5.154  15.248 -0.0380  0.9508 -0.8371
10112TIP3    H151827   0.003   5.059  15.248  1.6250  0.7608  0.1910
10112TIP3    H251828   0.101   5.169  15.216 -0.0759  2.1228 -0.4138
10113TIP3   OH251829   5.429   4.742   0.249  0.3137 -0.2820 -0.8788
10113TIP3    H151830   5.457   4.777   0.165  0.2851 -0.6677 -1.0476
10113TIP3    H251831   5.385   4.659   0.228  1.7855 -1.2101 -0.3386
10114TIP3   OH251832   2.094   6.283   0.885 -0.0108  0.2595 -0.0856
10114TIP3    H151833   2.155   6.346   0.847 -0.6599 -0.5254 -2.4650
10114TIP3    H251834   2.105   6.204   0.833 -0.5472 -1.0125  1.6949
10115TIP3   OH251835   7.036   5.115   0.371  0.2643 -0.0848 -0.1803
10115TIP3    H151836   7.065   5.106   0.281  1.3061  0.6091  0.0791
10115TIP3    H251837   6.941   5.126   0.365 -0.1796 -3.7688 -0.9484
10116TIP3   OH251838   3.979   5.094  14.291 -0.0009 -0.8286 -0.2267
10116TIP3    H151839   3.959   5.001  14.299 -1.4586 -0.6680 -1.7327
10116TIP3    H251840   3.909   5.138  14.339  0.0147 -0.4646 -0.5353
10117TIP3   OH251841   5.529   6.113  15.677  0.0449  0.6392  0.2681
10117TIP3    H151842   5.610   6.085  15.635 -0.6291  1.5911 -1.7009
10117TIP3    H251843   5.549   6.112  15.771  1.2896 -2.3661  0.0064
10118TIP3   OH251844   1.615   3.631  11.776  0.2514  0.0178  0.0984
10118TIP3    H151845   1.528   3.606  11.745 -0.1797  1.5117  0.0367
10118TIP3    H251846   1.661   3.660  11.696  0.6502 -0.3462  0.1955
10119TIP3   OH251847   3.563   5.188   1.451 -0.4301  0.2763 -0.5786
10119TIP3    H151848   3.527   5.108   1.491  0.6617  1.3380  2.7255
10119TIP3    H251849   3.657   5.181   1.467 -0.5398  3.2022  1.7251
10120TIP3   OH251850   3.163   4.417  15.302 -0.1273  0.3975  0.2608
10120TIP3    H151851   3.155   4.369  15.219 -1.4545 -0.6099  0.9475
10120TIP3    H251852   3.084   4.470  15.306  0.6660  1.6072  0.1771
10121TIP3   OH251853   3.263   5.913  13.970 -0.3764  0.5076  0.4431
10121TIP3    H151854   3.331   5.891  14.033 -0.9829  0.8137  1.2026
10121TIP3    H251855   3.200   5.966  14.019 -1.4261 -0.1969 -0.1163
10122TIP3   OH251856   5.226   2.942   1.841  0.0752 -0.1223  0.1122
10122TIP3    H151857   5.222   2.956   1.747  1.7323  0.9640  0.1937
10122TIP3    H251858   5.186   2.856   1.854 -0.5582 -0.0890 -1.5231
10123TIP3   OH251859   2.897   5.785   1.304  0.5649 -0.5462 -0.4986
10123TIP3    H151860   2.918   5.692   1.309  1.5231 -0.3755 -1.1390
10123TIP3    H251861   2.848   5.804   1.384  3.8235 -0.7263  1.6249
10124TIP3   OH251862   2.941   5.838  15.809  0.1972  0.2048  0.4442
10124TIP3    H151863   3.023   5.861  15.853  0.6178 -1.4604  0.5383
10124TIP3    H251864   2.893   5.786  15.872  0.0353 -0.7138 -0.4220
10125TIP3   OH251865   2.981   4.878  15.876  0.1394 -0.1894 -0.3358
10125TIP3    H151866   2.964   4.896  15.968 -0.8836  0.6343 -0.6714
10125TIP3    H251867   3.076   4.871  15.870  0.2324  0.0596  0.7223
10126TIP3   OH251868   3.298   4.560  14.989  0.1138 -0.2991  0.2627
10126TIP3    H151869   3.208   4.569  15.023  0.3147 -1.6238  1.1462
10126TIP3    H251870   3.353   4.596  15.059  0.1385  3.1514 -1.4186
10127TIP3   OH251871   3.140   1.191   2.212 -0.2656 -0.1763  0.3028
10127TIP3    H151872   3.050   1.181   2.243 -0.6441 -0.3697 -0.8220
10127TIP3    H251873   3.131   1.210   2.119  0.8612 -0.1002  0.2008
10128TIP3   OH251874   3.629   3.899  14.045  0.0597  0.0381 -0.3664
10128TIP3    H151875   3.614   3.816  14.092  0.0916 -0.0881 -0.5759
10128TIP3    H251876   3.542   3.923  14.012  0.0129  0.1973 -0.1264
10129TIP3   OH251877   3.125   6.402  15.042  0.4359  0.3416 -0.3613
10129TIP3    H151878   3.038   6.362  15.043  0.6862 -0.2746 -1.8394
10129TIP3    H251879   3.175   6.353  15.108 -0.7588  1.7165  1.6115
10130TIP3   OH251880   3.637   2.726  15.212  0.3431 -0.0968  0.4744
10130TIP3    H151881   3.617   2.817  15.190 -1.6876 -1.0452 -1.7407
10130TIP3    H251882   3.727   2.713  15.183  0.2669  0.8842 -0.2116
10131TIP3   OH251883   2.006   3.013  14.590  0.1939  0.3194 -0.5667
10131TIP3    H151884   2.038   3.082  14.532  2.0422  0.2250  0.3070
10131TIP3    H251885   1.941   3.056  14.645  0.5261  1.0938 -0.7706
10132TIP3   OH251886   3.337   4.841   2.134  0.1611 -0.4601  0.2629
10132TIP3    H151887   3.430   4.840   2.157  0.0587 -1.1522  0.6681
10132TIP3    H251888   3.333   4.805   2.045  0.3738  0.4680 -0.1235
10133TIP3   OH251889   5.391   4.007  15.110  0.0760  0.5397 -0.5328
10133TIP3    H151890   5.330   3.941  15.077 -0.2266  0.7802 -0.4562
10133TIP3    H251891   5.465   4.005  15.049 -0.5159  1.0455 -1.2541
10134TIP3   OH251892   5.616   4.018  14.233 -0.0720  0.1759 -0.7887
10134TIP3    H151893   5.684   3.987  14.293  0.4786  1.0354 -0.9633
10134TIP3    H251894   5.621   3.959  14.158 -1.7181 -1.7973  0.6071
10135TIP3   OH251895   5.388   5.494  14.370  0.0116  0.3630 -0.1977
10135TIP3    H151896   5.328   5.438  14.419  0.9973  0.3868  1.0454
10135TIP3    H251897   5.338   5.573  14.350 -1.5663 -1.1196 -2.3968
10136TIP3   OH251898   6.472   3.198  15.283  0.3232 -0.2298  0.0311
10136TIP3    H151899   6.473   3.279  15.335 -0.5675 -0.2375  0.0635
10136TIP3    H251900   6.416   3.139  15.332  2.3921 -1.5012  0.9329
10137TIP3   OH251901   2.365   2.035  15.947  0.4175 -0.5032  0.1060
10137TIP3    H151902   2.302   1.972  15.914 -0.2028 -0.1340  0.5637
10137TIP3    H251903   2.451   1.998  15.926  0.0437 -0.9902 -0.5466
10138TIP3   OH251904   1.164   4.280   0.639  0.2214 -0.0537 -0.2198
10138TIP3    H151905   1.156   4.291   0.733  0.7668 -0.6301 -0.0950
10138TIP3    H251906   1.100   4.340   0.601  0.2701  0.4598  0.5049
10139TIP3   OH251907   3.124   6.274  13.486  0.0123 -0.5031  0.2687
10139TIP3    H151908   3.143   6.199  13.430  1.4217  0.1887 -0.1935
10139TIP3    H251909   3.153   6.248  13.573  2.5029  0.2758 -0.2949
10140TIP3   OH251910   5.332   3.948  13.946 -0.4954 -0.3498  0.5564
10140TIP3    H151911   5.261   3.993  13.901 -0.8392 -0.5153  0.9212
10140TIP3    H251912   5.382   3.905  13.877 -0.7395 -0.2136  0.2953
10141TIP3   OH251913   0.109   3.363  14.355  0.9589 -0.3305  0.0157
10141TIP3    H151914   0.033   3.344  14.300  1.0354 -0.8691  0.0962
10141TIP3    H251915   0.185   3.344  14.299  1.0500  1.7050 -0.5977
10142TIP3   OH251916   5.641   3.027  13.904 -0.2352  0.1707  0.3339
10142TIP3    H151917   5.673   2.954  13.851  0.9719  0.4948  0.6179
10142TIP3    H251918   5.719   3.074  13.931 -1.0517  2.2814 -0.8225
10143TIP3   OH251919   0.925   4.654   1.137  0.0256 -0.0422 -0.2303
10143TIP3    H151920   0.962   4.719   1.076 -0.4017  0.0790 -0.3620
10143TIP3    H251921   0.864   4.704   1.191 -1.2194 -0.5526 -1.1282
10144TIP3   OH251922   3.443   5.475  14.086 -0.0225 -0.0764 -0.1465
10144TIP3    H151923   3.420   5.388  14.056 -0.0197 -0.2688  0.3990
10144TIP3    H251924   3.530   5.465  14.125 -1.0326 -0.3432  2.1150
10145TIP3   OH251925   6.976   4.660  14.235 -0.4622 -0.0553 -0.0381
10145TIP3    H151926   7.009   4.732  14.290 -0.6093 -0.8503  1.1041
10145TIP3    H251927   7.047   4.597  14.233 -0.4022  0.0427 -0.9017
10146TIP3   OH251928   5.769   5.834  15.979  0.1512  0.6142 -0.0288
10146TIP3    H151929   5.864   5.846  15.986  0.1312 -0.0565  1.4487
10146TIP3    H251930   5.755   5.740  15.988 -0.8545  0.9531  2.5954
10147TIP3   OH251931   4.273   6.006   0.151 -0.0401  0.4962  0.0237
10147TIP3    H151932   4.335   6.078   0.149  0.5218 -0.0051 -1.1470
10147TIP3    H251933   4.315   5.937   0.100 -0.5784 -0.6485  1.1108
10148TIP3   OH251934   4.967   3.505  14.359  0.0375 -0.0575  0.4334
10148TIP3    H151935   4.882   3.546  14.376 -0.7140 -1.4523  0.1389
10148TIP3    H251936   4.997   3.545  14.277 -1.9524 -2.0121 -1.3106
10149TIP3   OH251937   4.971   3.303  14.800  0.1633 -0.1184 -0.8197
10149TIP3    H151938   4.943   3.361  14.871 -2.0214 -0.8431 -1.0578
10149TIP3    H251939   4.939   3.216  14.826  1.4962 -0.8354 -1.5183
10150TIP3   OH251940   4.304   4.351  15.116 -0.0616 -0.0417 -0.0459
10150TIP3    H151941   4.233   4.323  15.058  1.0795  1.2532 -2.1394
10150TIP3    H251942   4.355   4.271  15.131 -0.9060 -0.5898 -0.0110
10151TIP3   OH251943   2.578   5.569  15.728  0.0129 -0.1165  0.3060
10151TIP3    H151944   2.576   5.658  15.692  2.3467  0.5050  1.5942
10151TIP3    H251945   2.665   5.537  15.707 -0.5490 -1.8259  0.5294
10152TIP3   OH251946   5.406   5.129  14.231 -0.1188 -0.2656 -0.0105
10152TIP3    H151947   5.403   5.179  14.149  0.1962  1.7267  1.1610
10152TIP3    H251948   5.315   5.108  14.250 -0.2670 -0.0459 -0.4738
10153TIP3   OH251949   6.282   4.602  15.223  0.1795  0.0598 -0.3831
10153TIP3    H151950   6.189   4.583  15.230  0.0907  1.4717  3.0048
10153TIP3    H251951   6.299   4.667  15.290  3.4464  0.5718 -1.5936
10154TIP3   OH251952   3.341   5.229  14.001 -0.4896 -0.0896 -0.2149
10154TIP3    H151953   3.384   5.220  14.086  0.8632  1.2867 -0.7341
10154TIP3    H251954   3.335   5.140  13.967 -0.3118 -0.5563  0.9673
10155TIP3   OH251955   3.769   6.855  14.738  0.6444  0.1581 -0.9059
10155TIP3    H151956   3.812   6.842  14.822  0.8131 -0.5606 -1.1057
10155TIP3    H251957   3.753   6.767  14.704 -0.1600  0.4270 -1.2520
10156TIP3   OH251958   3.614   0.545  15.349 -0.4668 -0.2945  0.0456
10156TIP3    H151959   3.698   0.500  15.359  0.5854  1.4732 -0.7104
10156TIP3    H251960   3.561   0.485  15.297  0.6262 -1.0447 -0.2172
10157TIP3   OH251961   2.212   3.927  15.252  0.7448 -0.1419  0.4568
10157TIP3    H151962   2.158   4.001  15.281  0.7378  0.4838 -1.0688
10157TIP3    H251963   2.294   3.968  15.222  2.1121 -1.0725  2.7377
10158TIP3   OH251964   1.713   4.932   2.596 -0.2561 -0.0866  0.5303
10158TIP3    H151965   1.686   4.961   2.509  1.8231 -1.1861 -0.5103
10158TIP3    H251966   1.741   4.841   2.583 -0.4964 -0.4617  2.4672
10159TIP3   OH251967   3.526   6.918  15.537 -0.3704 -0.3876 -0.1195
10159TIP3    H151968   3.460   6.974  15.578 -0.2814 -0.2374 -0.1784
10159TIP3    H251969   3.513   6.932  15.443  0.8895  0.9845 -0.1103
10160TIP3   OH251970   4.310   0.478  15.340 -0.5467  0.2070  0.4560
10160TIP3    H151971   4.306   0.567  15.307 -0.4159  0.1055  0.1701
10160TIP3    H251972   4.320   0.488  15.435  1.5657  0.5118  0.2092
10161TIP3   OH251973   5.904   4.656   1.053 -0.3569 -0.0735 -0.0604
10161TIP3    H151974   5.818   4.624   1.080 -0.4128  0.6970  0.7071
10161TIP3    H251975   5.961   4.578   1.056 -1.0671 -0.6310 -0.8008
10162TIP3   OH251976   4.540   4.602  14.293 -0.1771 -0.2475 -0.7574
10162TIP3    H151977   4.484   4.661  14.343  0.7403 -0.7094  0.8669
10162TIP3    H251978   4.518   4.515  14.326  1.4360 -0.4367 -0.1436
10163TIP3   OH251979   3.198   5.123   0.201 -0.2557 -0.7239 -0.1089
10163TIP3    H151980   3.183   5.107   0.108 -1.7973 -0.8262  0.1403
10163TIP3    H251981   3.161   5.047   0.245  0.3106 -0.5927  0.6075
10164TIP3   OH251982   4.401   5.284   0.685 -0.4655 -0.3802  0.7161
10164TIP3    H151983   4.468   5.289   0.617 -0.0965 -1.7212  0.9775
10164TIP3    H251984   4.319   5.305   0.640  0.0377  0.6772  0.2737
10165TIP3   OH251985   5.701   0.937   1.177  0.0817 -0.5797  0.6152
10165TIP3    H151986   5.750   1.005   1.223 -0.2421 -0.1377  0.3172
10165TIP3    H251987   5.616   0.978   1.157  0.9024 -0.0692 -2.0806
10166TIP3   OH251988   2.971   4.741  14.643  0.1526 -0.4515 -0.4599
10166TIP3    H151989   3.054   4.702  14.671 -0.5691 -0.9823  0.9713
10166TIP3    H251990   2.983   4.835  14.655  0.6150 -0.5163 -0.4193
10167TIP3   OH251991   4.186   4.184  14.789 -0.2341  0.3479 -0.5424
10167TIP3    H151992   4.270   4.214  14.753 -0.0459 -0.1862 -0.5532
10167TIP3    H251993   4.157   4.256  14.845  1.1122 -0.2104  0.8851
10168TIP3   OH251994   3.050   4.051   0.449 -0.0153  0.6175  0.0698
10168TIP3    H151995   3.044   4.023   0.540  1.6323 -2.2949 -0.6645
10168TIP3    H251996   3.137   4.089   0.441  1.1220 -2.1515 -1.0498
10169TIP3   OH251997   5.607   3.560  14.314 -0.3248  0.2558 -0.3017
10169TIP3    H151998   5.684   3.510  14.343 -1.0125 -0.8221 -0.3111
10169TIP3    H251999   5.628   3.585  14.224 -0.1688 -0.4231 -0.4602
10170TIP3   OH252000   5.803   3.918  13.677  0.4362  0.2091  0.3318
10170TIP3    H152001   5.882   3.971  13.683  1.0334 -0.5372 -0.7841
10170TIP3    H252002   5.822   3.840  13.730  0.0821  0.4753  0.8507
10171TIP3   OH252003   4.829   5.413   0.724  0.1263 -0.0052 -0.6085
10171TIP3    H152004   4.903   5.472   0.709  1.5701 -2.2726 -2.7755
10171TIP3    H252005   4.855   5.361   0.801 -1.8272  3.1240  2.2915
10172TIP3   OH252006   4.661   2.834   0.704  0.0833 -0.1484 -0.2417
10172TIP3    H152007   4.684   2.741   0.700 -0.7289 -0.3229 -0.9637
10172TIP3    H252008   4.579   2.841   0.654 -0.8116  0.6532  1.3035
10173TIP3   OH252009   3.921   6.462   0.020 -0.3869  0.4697  0.1509
10173TIP3    H152010   3.929   6.424   0.108 -0.1082 -0.2065 -0.1643
10173TIP3    H252011   3.833   6.499   0.018 -0.5309  0.1548  0.5903
10174TIP3   OH252012   5.014   4.644   1.694 -0.0422 -0.2632 -0.0050
10174TIP3    H152013   4.943   4.700   1.663 -0.5974 -0.5759  0.6972
10174TIP3    H252014   4.970   4.573   1.740  0.7418 -0.2272  0.8147
10175TIP3   OH252015   6.064   1.399   0.213 -0.3296  0.3045 -0.0433
10175TIP3    H152016   6.075   1.368   0.303  0.7264  1.2484  0.1728
10175TIP3    H252017   6.117   1.339   0.160  0.5539  0.8539  0.2015
10176TIP3   OH252018   1.475   4.047  15.083 -0.1259  0.2857 -0.1205
10176TIP3    H152019   1.544   4.019  15.143 -0.7926  2.3906  1.6997
10176TIP3    H252020   1.396   4.005  15.117 -1.1517  4.1239  2.6836
10177TIP3   OH252021   5.870   5.233  15.258  0.6257 -0.0547 -0.7105
10177TIP3    H152022   5.904   5.294  15.192  0.4163  0.2242 -0.5632
10177TIP3    H252023   5.945   5.177  15.279  0.7702  0.0372 -0.9772
10178TIP3   OH252024   2.750   3.779  15.185  0.2950  0.2911  0.4089
10178TIP3    H152025   2.814   3.796  15.116 -1.1361  0.1256 -0.9771
10178TIP3    H252026   2.729   3.865  15.220 -0.9224  0.6446 -1.1450
10179TIP3   OH252027   5.372   5.609   1.291 -0.1007  0.1884  0.4119
10179TIP3    H152028   5.393   5.517   1.276  0.9785  0.4318  0.3248
10179TIP3    H252029   5.356   5.616   1.385 -1.5625 -0.3472  0.2010
10180TIP3   OH252030   3.452   6.109  15.915 -0.2356  0.4010  0.0461
10180TIP3    H152031   3.537   6.125  15.956 -0.3682  2.1041 -0.3235
10180TIP3    H252032   3.444   6.177  15.848 -1.2153 -0.7027 -0.9779
10181TIP3   OH252033   4.046   2.353   0.076 -0.3527 -0.3230 -0.1348
10181TIP3    H152034   4.111   2.422   0.086 -0.6829  0.1006 -0.8809
10181TIP3    H252035   4.005   2.370  -0.009 -2.1552  0.0236  0.7780
10182TIP3   OH252036   1.501   3.405  14.892  0.2477  0.2447  0.1984
10182TIP3    H152037   1.411   3.374  14.898 -0.0194  1.1823  1.2513
10182TIP3    H252038   1.497   3.480  14.832  0.9821 -1.9929 -2.7856
10183TIP3   OH252039   5.907   2.777   0.066  0.6230 -0.4595  0.4137
10183TIP3    H152040   5.939   2.697   0.024  0.1648 -0.3565 -0.1453
10183TIP3    H252041   5.873   2.830  -0.007  0.9819  0.2696  0.7664
10184TIP3   OH252042   7.324   5.158   0.112 -0.5344 -0.3756  0.0796
10184TIP3    H152043   7.378   5.083   0.138 -1.7989 -1.3022  0.1140
10184TIP3    H252044   7.253   5.119   0.061 -0.6031  0.9347 -0.8581
10185TIP3   OH252045   6.700   3.829  14.897 -0.0998  0.5269 -0.2027
10185TIP3    H152046   6.651   3.889  14.953  1.9993  2.7907 -0.6901
10185TIP3    H252047   6.784   3.817  14.942 -0.0265 -1.0539 -0.7403
10186TIP3   OH252048   5.452   5.288  14.732 -0.2922  0.9633  0.0341
10186TIP3    H152049   5.448   5.381  14.755  1.5212  1.0395  0.1876
10186TIP3    H252050   5.471   5.287  14.638  0.6136  0.7900  0.2057
10187TIP3   OH252051   5.324   3.012   0.906  0.0449 -0.4472  0.0480
10187TIP3    H152052   5.334   3.055   0.821 -2.6149 -0.6222 -0.3830
10187TIP3    H252053   5.345   3.080   0.970 -0.0560  0.2997 -0.7059
10188TIP3   OH252054   4.975   4.797   0.158 -0.2177 -0.4853 -0.4474
10188TIP3    H152055   4.915   4.745   0.213 -2.5750  0.8109 -1.7191
10188TIP3    H252056   4.982   4.881   0.203 -0.2566 -0.2438 -0.8884
10189TIP3   OH252057   6.234   3.507   0.301 -0.4991  0.2419 -0.3033
10189TIP3    H152058   6.153   3.552   0.326 -1.1240 -1.2325  0.4081
10189TIP3    H252059   6.206   3.439   0.240  0.3859  0.6122 -1.1264
10190TIP3   OH252060   2.207   4.938  13.428  0.5441  0.1749  0.6266
10190TIP3    H152061   2.212   4.850  13.463 -1.3581 -0.8377 -1.5117
10190TIP3    H252062   2.292   4.951  13.385  0.7722 -0.6839  0.8044
10191TIP3   OH252063   1.432   6.073  14.390 -0.0568 -0.4844  0.3148
10191TIP3    H152064   1.408   6.145  14.332 -0.3292 -1.0666 -0.2982
10191TIP3    H252065   1.523   6.092  14.415 -0.1433  0.0952  0.1959
10192TIP3   OH252066   6.558   4.438   1.249 -0.1786  0.1881 -0.1191
10192TIP3    H152067   6.467   4.416   1.228  0.1039 -0.5157 -0.6252
10192TIP3    H252068   6.599   4.354   1.269  0.4747  0.4550 -0.3440
10193TIP3   OH252069   0.062   3.323   1.092  0.2841  0.1771  0.1098
10193TIP3    H152070   0.036   3.399   1.145  0.2537  0.3461 -0.1483
10193TIP3    H252071  -0.015   3.303   1.040  0.6172  0.5809 -0.5441
10194TIP3   OH252072   5.924   2.480  15.966 -0.3032  0.3560 -0.3094
10194TIP3    H152073   5.835   2.497  15.936  0.1148  0.5670 -1.4608
10194TIP3    H252074   5.913   2.436  16.050 -1.5538 -1.6856 -1.4965
10195TIP3   OH252075   0.164   3.908  15.098 -0.6427  0.3721  0.1796
10195TIP3    H152076   0.209   3.974  15.045 -1.3137  2.1338  1.7504
10195TIP3    H252077   0.228   3.838  15.108 -0.4426  0.0573 -2.7851
10196TIP3   OH252078   5.896   4.095   1.494 -0.0013 -0.1087  0.1353
10196TIP3    H152079   5.932   4.032   1.556  0.1978  0.1391  0.2729
10196TIP3    H252080   5.801   4.091   1.507  0.1504  1.2252  1.6996
10197TIP3   OH252081   0.481   4.522  14.114  0.1911 -0.0069 -0.1350
10197TIP3    H152082   0.434   4.512  14.196  0.2844  1.2144  0.0723
10197TIP3    H252083   0.515   4.611  14.116 -0.4648  0.3052 -1.8316
10198TIP3   OH252084   6.667   5.583   0.267  0.0402 -0.6761  0.1303
10198TIP3    H152085   6.600   5.642   0.301 -1.0086 -1.1101 -1.0885
10198TIP3    H252086   6.746   5.636   0.262  0.0403 -0.4180  2.4956
10199TIP3   OH252087   6.530   3.828   0.016 -0.4783 -0.1413 -0.0740
10199TIP3    H152088   6.601   3.820  -0.048 -0.1330 -0.2178  0.3136
10199TIP3    H252089   6.565   3.886   0.083 -0.5901 -0.5944  0.3781
10200TIP3   OH252090   6.908   4.096  13.997  0.1570 -0.2756  0.0655
10200TIP3    H152091   6.899   4.161  13.928  0.8915  1.8583  1.9122
10200TIP3    H252092   6.907   4.012  13.951 -1.6693  0.9676 -2.2965
10201TIP3   OH252093   4.659   5.443   1.358  0.2106  0.3637 -0.5358
10201TIP3    H152094   4.571   5.468   1.333  0.0940  0.9564  0.4323
10201TIP3    H252095   4.710   5.524   1.350  0.2831  0.4325  0.5992
10202TIP3   OH252096   6.499   4.709   0.676 -0.1595  0.3539 -0.2707
10202TIP3    H152097   6.438   4.636   0.685  0.9370 -0.5087  0.3333
10202TIP3    H252098   6.549   4.689   0.597 -0.0923  0.6365 -0.3015
10203TIP3   OH252099   5.887   5.062   1.005 -0.0584  0.2459 -0.0764
10203TIP3    H152100   5.923   4.979   0.972  0.4735 -0.0644  1.2894
10203TIP3    H252101   5.931   5.129   0.953  1.8341 -0.1738  0.9484
10204TIP3   OH252102   6.956   4.494  14.833  0.6224 -0.5710 -0.0879
10204TIP3    H152103   7.013   4.477  14.908  0.4928 -0.1970  0.0941
10204TIP3    H252104   6.917   4.408  14.813  0.2902 -0.5784  0.5675
10205TIP3   OH252105   0.497   2.923  14.267 -0.3640 -0.2117  0.1725
10205TIP3    H152106   0.466   2.882  14.349  0.8141 -0.7263  0.3694
10205TIP3    H252107   0.578   2.877  14.247  0.3665  1.2510 -0.2496
10206TIP3   OH252108   6.591   4.255  14.694  0.0087  0.2277  0.1377
10206TIP3    H152109   6.680   4.237  14.724  0.2423  0.4984 -0.3933
10206TIP3    H252110   6.571   4.186  14.632  0.3105  0.8729 -0.6808
10207TIP3   OH252111   1.346   6.731  14.978  0.7794 -0.1330 -0.0038
10207TIP3    H152112   1.376   6.799  15.038  0.2602  0.7313 -0.7125
10207TIP3    H252113   1.392   6.749  14.896  2.3128 -1.9476  0.4188
10208TIP3   OH252114   5.449   0.317   1.301  0.4779 -0.5887  0.0674
10208TIP3    H152115   5.361   0.285   1.278  0.0234  1.0551 -0.6455
10208TIP3    H252116   5.474   0.372   1.226  1.4416  0.2325  0.9725
10209TIP3   OH252117   7.148   4.241  15.226  0.3866 -0.0421 -0.5086
10209TIP3    H152118   7.215   4.256  15.293 -0.2485  2.6459 -0.4404
10209TIP3    H252119   7.069   4.219  15.275  0.0424  1.4628 -0.3515
10210TIP3   OH252120   1.338   6.625  14.081  0.2127  0.6568  0.3714
10210TIP3    H152121   1.392   6.650  14.156  0.1002  3.1878 -0.3680
10210TIP3    H252122   1.248   6.633  14.112  0.1856 -1.5357  0.9543
10211TIP3   OH252123   1.662   2.011  15.758  0.5649  0.5940  0.0081
10211TIP3    H152124   1.725   1.985  15.691  0.5854 -0.2909  0.3762
10211TIP3    H252125   1.580   1.968  15.732  0.3986  0.8141  0.1669
10212TIP3   OH252126   5.969   2.351   0.231  0.8322  0.5020  0.4391
10212TIP3    H152127   5.911   2.390   0.296  0.8569 -0.4380  1.0231
10212TIP3    H252128   6.001   2.271   0.271  3.4495  1.5594  0.6102
10213TIP3   OH252129   4.563   3.805   0.721 -0.3220  0.1986  0.4115
10213TIP3    H152130   4.503   3.817   0.648  1.2384 -0.1821 -0.9546
10213TIP3    H252131   4.543   3.718   0.755  0.0079 -0.2529 -0.5509
10214TIP3   OH252132   0.825   4.438  14.925  0.4554  0.0266  0.3390
10214TIP3    H152133   0.896   4.501  14.914 -0.7514  1.6157  1.3762
10214TIP3    H252134   0.820   4.423  15.019 -0.5956 -0.0362  0.2788
10215TIP3   OH252135   4.052   4.519  14.600 -0.0077 -0.6084 -0.1865
10215TIP3    H152136   4.072   4.573  14.676  0.0622  0.6529 -1.0629
10215TIP3    H252137   4.136   4.509  14.555 -0.2472 -0.3978 -0.6843
10216TIP3   OH252138   6.789   0.616  15.582  0.0532  0.0197  0.1621
10216TIP3    H152139   6.769   0.543  15.523 -0.3859  0.4001 -0.1673
10216TIP3    H252140   6.756   0.588  15.667 -1.2114  0.3231 -0.2161
10217TIP3   OH252141   1.455   5.235   1.364  0.0440 -0.3627  0.1389
10217TIP3    H152142   1.482   5.183   1.288  0.6462  0.1570 -0.0099
10217TIP3    H252143   1.511   5.204   1.435  2.0155  1.6284 -0.4731
10218TIP3   OH252144   1.777   4.596   0.801  0.1737  0.2849 -0.2299
10218TIP3    H152145   1.746   4.550   0.879  1.7507  0.5646  0.5999
10218TIP3    H252146   1.872   4.601   0.813  0.2873  1.5607 -1.5035
10219TIP3   OH252147   3.364   0.268   0.013 -0.1152  0.0969  0.4404
10219TIP3    H152148   3.419   0.194  -0.011  0.5564  1.3702 -2.1057
10219TIP3    H252149   3.278   0.248  -0.024  0.3022  0.9720 -1.0438
10220TIP3   OH252150   0.260   3.787  13.458  0.1077  0.4723  0.5286
10220TIP3    H152151   0.166   3.782  13.475  0.1764  0.4060  0.8982
10220TIP3    H252152   0.299   3.731  13.525  0.2602 -1.2498 -0.9911
10221TIP3   OH252153   1.367   5.753  13.897 -0.4214 -0.4038  0.2439
10221TIP3    H152154   1.338   5.713  13.815 -0.3644 -0.4544  0.2477
10221TIP3    H252155   1.426   5.688  13.935 -0.9504 -0.6630  0.6360
10222TIP3   OH252156   6.815   0.773   0.216 -0.1178 -0.5714  0.2815
10222TIP3    H152157   6.905   0.805   0.226  0.2899 -1.7886  0.5768
10222TIP3    H252158   6.822   0.678   0.226 -1.3899 -0.7070 -0.0521
10223TIP3   OH252159   4.621   4.464   0.366  0.3612  0.0775 -0.0859
10223TIP3    H152160   4.712   4.465   0.336  0.7424 -1.8347  0.9486
10223TIP3    H252161   4.569   4.470   0.286  1.3846  0.0312 -0.7610
10224TIP3   OH252162   6.919   7.210  15.192 -0.8294  0.5432 -0.4844
10224TIP3    H152163   6.897   7.276  15.126 -2.9295  0.1684 -0.2144
10224TIP3    H252164   6.869   7.133  15.165 -1.7460  0.3970  1.5627
10225TIP3   OH252165   0.093   6.632   0.989 -0.9126  0.2731 -0.2163
10225TIP3    H152166   0.078   6.538   0.984 -1.4658  0.4035 -1.0647
10225TIP3    H252167   0.099   6.651   1.083 -0.8847 -0.5913 -0.0445
10226TIP3   OH252168   6.534   0.803  15.812 -0.4622 -0.0928  0.3167
10226TIP3    H152169   6.567   0.751  15.885 -1.4078 -0.4966  0.4649
10226TIP3    H252170   6.611   0.820  15.757  0.3642  0.7336  1.7235
10227TIP3   OH252171   2.856   4.066  15.174 -0.4494 -0.3967  0.2847
10227TIP3    H152172   2.916   3.991  15.173 -2.6684 -2.2246 -0.5666
10227TIP3    H252173   2.824   4.071  15.084 -2.1918  0.0226  0.9236
10228TIP3   OH252174   6.997   5.189  15.225  0.0500  0.1178  0.0200
10228TIP3    H152175   6.927   5.249  15.250  1.5648  1.2278  1.7339
10228TIP3    H252176   7.061   5.244  15.180  2.1961  0.1798  3.0050
10229TIP3   OH252177   6.718   0.498   0.196 -0.1793 -0.4105  0.0417
10229TIP3    H152178   6.784   0.498   0.127  0.1220  0.1653  0.3261
10229TIP3    H252179   6.678   0.411   0.192  0.8498 -0.8861  0.1188
10230TIP3   OH252180   6.817   0.290   1.174  0.0582  0.0004  0.2719
10230TIP3    H152181   6.826   0.303   1.268  0.1075 -0.3591  0.3154
10230TIP3    H252182   6.780   0.202   1.165 -1.1409  0.5190  0.0067
10231TIP3   OH252183   5.829   7.143   0.822  0.2168  0.5497 -0.6793
10231TIP3    H152184   5.844   7.237   0.835  2.2186  0.0390  0.9125
10231TIP3    H252185   5.916   7.106   0.808 -0.2144 -1.4989  1.7260
10232TIP3   OH252186   2.301   5.771  15.581 -0.4674 -0.1260  0.0677
10232TIP3    H152187   2.279   5.735  15.496 -1.1562  1.5315 -0.4842
10232TIP3    H252188   2.221   5.817  15.609  0.1407  0.3624  1.0430
10233TIP3   OH252189   5.706   0.718  15.823 -0.2081 -0.3917  0.1921
10233TIP3    H152190   5.632   0.777  15.809  0.3451  1.0548  2.8952
10233TIP3    H252191   5.766   0.737  15.751 -1.2422  0.4029 -0.4682
10234TIP3   OH252192   6.979   1.725   0.248  0.3097  0.6444 -0.0447
10234TIP3    H152193   7.044   1.669   0.206 -0.7777  0.4982 -1.5665
10234TIP3    H252194   6.939   1.670   0.315  2.1397  0.9111  1.2830
10235TIP3   OH252195   6.646   0.470  15.742  0.9023  0.3078  0.0364
10235TIP3    H152196   6.707   0.424  15.800  0.4028 -1.7551 -1.0404
10235TIP3    H252197   6.605   0.401  15.690 -1.0334  1.8346 -0.5269
10236TIP3   OH252198   6.373   1.022  14.797  0.4803 -0.2543 -0.4137
10236TIP3    H152199   6.383   0.948  14.857  0.6944  0.6643  0.7070
10236TIP3    H252200   6.426   1.092  14.836 -0.1663  0.6615 -1.1600
10237TIP3   OH252201   0.272   6.168  14.832 -0.2586  0.3747  0.2040
10237TIP3    H152202   0.324   6.244  14.859 -0.8240  0.7521  0.2626
10237TIP3    H252203   0.283   6.164  14.737  0.0383  0.3282  0.2403
10238TIP3   OH252204   2.143   0.004  15.488  0.3233 -0.2150 -0.2755
10238TIP3    H152205   2.116  -0.080  15.450 -0.1233 -1.0831  1.8481
10238TIP3    H252206   2.111  -0.000  15.579  0.8338  2.0075  0.0235
10239TIP3   OH252207   1.233   5.145   1.914 -0.1109  0.0274  0.0031
10239TIP3    H152208   1.172   5.216   1.898  0.7532  0.4116 -1.7364
10239TIP3    H252209   1.220   5.084   1.841 -1.2313 -1.9023  1.7520
10240TIP3   OH252210   4.332   1.477  13.509  0.5208  0.1788 -0.2182
10240TIP3    H152211   4.250   1.491  13.556  0.6335  4.4149 -1.1199
10240TIP3    H252212   4.306   1.432  13.428 -0.8110  0.7472 -0.1188
10241TIP3   OH252213   6.058   6.257   1.114  0.4280 -0.0164 -0.2602
10241TIP3    H152214   6.120   6.193   1.151 -1.2828 -1.4502  0.2088
10241TIP3    H252215   6.004   6.283   1.188  0.6793  1.4796 -0.6008
10242TIP3   OH252216   0.335   7.041  14.492  0.0882  0.0876 -0.7953
10242TIP3    H152217   0.384   7.055  14.411  0.0633 -0.6233 -0.9296
10242TIP3    H252218   0.356   7.118  14.545 -1.4432  1.5473 -2.2352
10243TIP3   OH252219   7.071   5.008   1.719 -0.5104 -0.4917 -0.4027
10243TIP3    H152220   7.120   4.938   1.762 -0.3283 -1.0773 -1.5386
10243TIP3    H252221   6.990   4.965   1.691 -0.1137 -0.4073 -1.6849
10244TIP3   OH252222   0.409   0.039  15.774  0.1311  0.2625 -0.1639
10244TIP3    H152223   0.434  -0.014  15.699  0.3698 -0.2238  0.2549
10244TIP3    H252224   0.385   0.124  15.737  0.2037  0.0095 -0.7894
10245TIP3   OH252225   6.034   1.141  15.988 -0.3493 -0.8135  0.8582
10245TIP3    H152226   5.964   1.117  16.049  0.3735  0.4896  2.2423
10245TIP3    H252227   6.115   1.134  16.039  0.3849 -0.7724 -0.2673
10246TIP3   OH252228   7.060   6.940  15.500 -0.0350  0.1296 -0.7679
10246TIP3    H152229   7.103   7.021  15.525  0.6333 -0.5169  0.2156
10246TIP3    H252230   6.985   6.967  15.447 -0.5652  1.4537  0.6273
10247TIP3   OH252231   7.143   6.306  15.655 -0.1810  0.1038  0.3167
10247TIP3    H152232   7.185   6.271  15.734 -3.3296  0.6606  2.3051
10247TIP3    H252233   7.128   6.399  15.675  0.7223  0.7106 -1.7207
10248TIP3   OH252234   2.298   4.852  14.313 -0.4048  0.4631  0.3625
10248TIP3    H152235   2.273   4.760  14.305 -0.9898  0.4179  2.4465
10248TIP3    H252236   2.236   4.899  14.257  0.2529 -0.4438 -1.1578
10249TIP3   OH252237   0.337   3.465  15.345 -0.2785  0.4046  0.3107
10249TIP3    H152238   0.376   3.400  15.404 -0.5002 -0.6916 -0.7169
10249TIP3    H252239   0.257   3.423  15.314 -0.8349  1.5002  0.2387
10250TIP3   OH252240   4.707   5.774   3.059 -0.0352  0.3422 -0.0920
10250TIP3    H152241   4.766   5.723   3.114 -0.6420 -0.2380  0.0285
10250TIP3    H252242   4.763   5.842   3.020  0.3106  1.0831  1.6350
10251TIP3   OH252243   6.968   3.897   0.069 -0.0367 -0.4774 -0.3193
10251TIP3    H152244   6.995   3.848  -0.008  4.0896  0.3740  0.4415
10251TIP3    H252245   6.983   3.837   0.142  3.7493  1.2985  0.4857
10252TIP3   OH252246   3.366   6.972   0.917 -0.0481 -0.1613 -0.0144
10252TIP3    H152247   3.341   6.894   0.966 -1.7180 -1.2176 -2.4240
10252TIP3    H252248   3.457   6.988   0.942  0.2129 -2.6839  0.7998
10253TIP3   OH252249   3.712   5.007  15.150  0.1515  0.5633 -0.2220
10253TIP3    H152250   3.800   5.019  15.114 -0.9124  0.5654 -2.9850
10253TIP3    H252251   3.701   4.911  15.154  0.8911  0.5337  1.8129
10254TIP3   OH252252   2.606   4.562   0.734 -0.5033  0.7318 -0.1306
10254TIP3    H152253   2.686   4.562   0.787 -1.2186  0.7519  0.9883
10254TIP3    H252254   2.633   4.531   0.648  0.6940  0.6779  0.2622
10255TIP3   OH252255   1.923   5.042  13.194  0.2602  0.3386  0.1606
10255TIP3    H152256   1.875   5.053  13.276  0.5449  2.4851  0.0768
10255TIP3    H252257   2.010   5.077  13.213 -0.2341  2.6503 -1.5851
10256TIP3   OH252258   3.915   6.878   0.004 -0.2316  0.1241  0.5404
10256TIP3    H152259   3.820   6.890  -0.002 -0.0919  1.4861  0.9172
10256TIP3    H252260   3.947   6.959   0.042  0.9960 -0.7263  1.3472
10257TIP3   OH252261   2.320   6.024  15.195  0.3177  0.8853 -0.4937
10257TIP3    H152262   2.408   5.993  15.218 -0.0776  0.2242  0.1614
10257TIP3    H252263   2.280   6.046  15.279 -1.2229 -1.7298 -0.4765
10258TIP3   OH252264   2.014   4.747  13.590 -0.5496  0.1877  0.2948
10258TIP3    H152265   1.975   4.702  13.516 -2.1451  0.1444  1.1306
10258TIP3    H252266   2.108   4.736  13.579 -0.8632 -2.2507 -0.2101
10259TIP3   OH252267   2.672   4.772  15.035 -0.3635 -0.2208  0.0203
10259TIP3    H152268   2.696   4.787  14.944 -2.1556 -2.2203 -0.8441
10259TIP3    H252269   2.633   4.854  15.064 -2.1952 -0.3740 -1.8795
10260TIP3   OH252270   2.741   4.753   0.394  0.2813  0.4726  0.2610
10260TIP3    H152271   2.816   4.759   0.334 -0.1407 -2.5881 -0.6452
10260TIP3    H252272   2.779   4.726   0.477  0.3409  0.4257  0.2182
10261TIP3   OH252273   2.335   5.947   0.255 -0.3675  0.0984 -0.4021
10261TIP3    H152274   2.396   6.020   0.247 -1.0598  0.6041 -1.1156
10261TIP3    H252275   2.355   5.891   0.180  0.9966 -1.0914  0.8113
10262TIP3   OH252276   1.946   6.105   1.331 -0.1169  0.0812  0.1064
10262TIP3    H152277   1.976   6.021   1.366 -0.6544  0.2525  1.0044
10262TIP3    H252278   1.862   6.085   1.288 -0.7416  0.3252  1.1919
10263TIP3   OH252279   5.065   6.943   0.735 -0.7116 -0.7020  0.0688
10263TIP3    H152280   5.024   7.021   0.773 -0.7625 -0.8895  0.4107
10263TIP3    H252281   5.083   6.887   0.811 -0.3223 -0.8563 -0.1363
10264TIP3   OH252282   1.396   4.753  14.814 -0.3285 -0.2994 -0.0355
10264TIP3    H152283   1.341   4.832  14.815  1.1708  0.7751  1.0708
10264TIP3    H252284   1.453   4.763  14.891 -1.8256 -3.7245  1.5995
10265TIP3   OH252285   3.435   0.131  15.686 -0.0186  0.2318 -0.6434
10265TIP3    H152286   3.489   0.148  15.609  0.6011  0.0591 -0.2539
10265TIP3    H252287   3.357   0.088  15.652  0.6484 -0.6543 -1.0705
10266TIP3   OH252288   1.703   2.272  15.236  0.4295  0.5573  0.1440
10266TIP3    H152289   1.702   2.290  15.143  1.7530  2.6219  0.5026
10266TIP3    H252290   1.793   2.247  15.255  0.1364  0.0102  0.8576
10267TIP3   OH252291   1.379   3.350   1.200  0.3081 -0.2068  0.5136
10267TIP3    H152292   1.450   3.380   1.257 -0.6977 -0.4244  1.9075
10267TIP3    H252293   1.382   3.254   1.205 -0.6475 -0.2030  1.2940
10268TIP3   OH252294   1.343   6.492  13.861 -0.2634 -0.1204  0.3177
10268TIP3    H152295   1.253   6.464  13.845 -0.4914  0.5198  0.4615
10268TIP3    H252296   1.336   6.553  13.934  0.2330  0.2710  0.0393
10269TIP3   OH252297   1.273   6.255   2.675 -0.9870 -0.2899 -0.6464
10269TIP3    H152298   1.216   6.177   2.671 -1.2689 -0.0599 -1.2974
10269TIP3    H252299   1.280   6.283   2.583  0.7850 -0.7493 -0.6729
10270TIP3   OH252300   2.999   2.521   0.012  0.1402  0.1966  1.0312
10270TIP3    H152301   2.917   2.564  -0.010  0.3072  0.7991  1.5360
10270TIP3    H252302   3.051   2.524  -0.068  0.6929  2.2428  1.4208
10271TIP3   OH252303   1.248   4.265  14.832 -0.8065 -0.6587 -0.2740
10271TIP3    H152304   1.210   4.231  14.913 -0.7053 -2.1415 -0.8194
10271TIP3    H252305   1.217   4.205  14.764  0.4609 -0.4161 -1.0842
10272TIP3   OH252306   1.197   6.512   0.635 -0.0196 -0.4345 -0.2364
10272TIP3    H152307   1.222   6.509   0.543  2.2512 -0.5664  0.3699
10272TIP3    H252308   1.159   6.599   0.646 -2.1803 -1.1245 -1.7249
10273TIP3   OH252309   1.086   0.272  15.652  0.0222  0.1741 -0.2447
10273TIP3    H152310   1.095   0.177  15.658 -0.5413  0.1974  1.4033
10273TIP3    H252311   1.035   0.287  15.572  1.1092 -0.8310 -1.1343
10274TIP3   OH252312   1.929   6.817  15.691  0.4042  0.4629  0.3723
10274TIP3    H152313   1.984   6.867  15.630  0.0050  1.4876  0.8384
10274TIP3    H252314   1.949   6.726  15.671 -0.3024  0.7603 -1.8263
10275TIP3   OH252315   2.504   5.417  14.741  0.0636 -0.1199  0.7250
10275TIP3    H152316   2.489   5.344  14.681  1.4170 -0.9789  1.4245
10275TIP3    H252317   2.416   5.449  14.762 -0.4314  0.7637 -2.3910
10276TIP3   OH252318   1.281   0.935   0.673 -0.0938 -1.1685  0.1227
10276TIP3    H152319   1.220   0.895   0.735 -2.5523 -2.5291 -3.0418
10276TIP3    H252320   1.333   0.862   0.640  1.1261 -0.4681  0.4674
10277TIP3   OH252321   2.367   6.136  14.477 -0.2571  0.1506 -0.2662
10277TIP3    H152322   2.402   6.050  14.456 -0.1829 -0.1866  1.1772
10277TIP3    H252323   2.418   6.196  14.423  1.7253 -0.4515  0.8727
10278TIP3   OH252324   1.078   4.278  15.655 -0.2774  0.0525  0.5537
10278TIP3    H152325   1.033   4.265  15.572 -0.3709 -1.7893  0.8749
10278TIP3    H252326   1.024   4.341  15.703 -1.7500 -1.0506  0.3559
10279TIP3   OH252327   3.205   6.594   3.033  0.0355 -0.0792 -0.1518
10279TIP3    H152328   3.228   6.523   3.092 -0.6799 -1.3938 -1.4208
10279TIP3    H252329   3.288   6.625   2.998  0.2602 -1.3197 -0.7473
10280TIP3   OH252330   0.302   6.617   0.389 -0.5681  0.4500 -0.1751
10280TIP3    H152331   0.220   6.568   0.387 -0.4515  0.2365  0.2257
10280TIP3    H252332   0.292   6.684   0.322 -0.4680 -0.5341 -1.1844
10281TIP3   OH252333   4.680   0.985   0.141  0.7572 -0.2166 -0.0261
10281TIP3    H152334   4.675   1.014   0.049  0.8840  0.4289  0.1687
10281TIP3    H252335   4.633   1.052   0.190 -1.2294 -1.6959  0.1476
10282TIP3   OH252336   3.280   6.019   0.175 -0.1562  0.3035  0.0773
10282TIP3    H152337   3.188   6.002   0.155  0.0464  0.5904 -1.1291
10282TIP3    H252338   3.292   6.111   0.152  0.2717  0.4528  0.8772
10283TIP3   OH252339   2.689   7.328   0.973 -0.0209 -0.3391 -0.2862
10283TIP3    H152340   2.723   7.239   0.961 -1.0385 -0.7753  0.0676
10283TIP3    H252341   2.680   7.361   0.884 -1.0604 -1.1309 -0.4826
10284TIP3   OH252342   3.956   0.096   1.522  0.5293  0.1063 -0.0613
10284TIP3    H152343   3.927   0.009   1.497  2.6293 -0.8399  0.7516
10284TIP3    H252344   4.035   0.111   1.471  0.0655  1.6514 -0.3752
10285TIP3   OH252345   3.626   0.398   0.916  0.0281 -0.2871 -0.2908
10285TIP3    H152346   3.703   0.407   0.971 -0.8847  1.0141  0.8123
10285TIP3    H252347   3.594   0.310   0.933  0.8439 -0.5774 -0.2232
10286TIP3   OH252348   1.682   0.545   0.124 -0.0781 -0.5005  0.6979
10286TIP3    H152349   1.648   0.479   0.064 -0.7901  0.3516  0.1458
10286TIP3    H252350   1.664   0.629   0.081 -1.6704  0.1835  2.6047
10287TIP3   OH252351   0.278   5.728  13.825 -0.8057 -0.0034  0.0536
10287TIP3    H152352   0.282   5.823  13.827  2.0193 -0.0957  1.2576
10287TIP3    H252353   0.196   5.706  13.869 -1.8195  1.8659 -0.8631
10288TIP3   OH252354   4.253   0.291   1.738 -0.6411 -0.1820  0.3667
10288TIP3    H152355   4.181   0.294   1.801 -0.8725 -0.7709  0.1255
10288TIP3    H252356   4.331   0.275   1.792 -0.7268  0.1742  0.5963
10289TIP3   OH252357   5.700   5.532  15.230  0.3975  0.3660  0.0017
10289TIP3    H152358   5.705   5.506  15.138 -0.4925 -1.5013  0.4558
10289TIP3    H252359   5.617   5.497  15.260  1.6312 -0.9221  2.0731
10290TIP3   OH252360   2.142   4.488   1.601  0.0599 -0.0016  0.0703
10290TIP3    H152361   2.051   4.485   1.629  0.8489 -1.1855  2.5963
10290TIP3    H252362   2.153   4.411   1.545 -0.4028 -0.0124 -0.0071
10291TIP3   OH252363   4.598   0.614   0.233  0.4603  0.2404 -0.4875
10291TIP3    H152364   4.563   0.654   0.312  1.3626 -0.7287  0.4221
10291TIP3    H252365   4.645   0.685   0.188  3.2974 -0.0549  1.8383
10292TIP3   OH252366   5.053   1.573  15.848 -0.2338 -0.5831  0.0610
10292TIP3    H152367   5.085   1.583  15.938 -1.1679 -0.5967  0.3998
10292TIP3    H252368   5.093   1.646  15.800 -0.8147  0.2304  0.7929
10293TIP3   OH252369   3.114   3.335  15.497 -0.2649  0.6046 -0.4257
10293TIP3    H152370   3.102   3.240  15.507 -0.0316  0.3440 -2.4469
10293TIP3    H252371   3.032   3.373  15.529 -0.5115 -0.2907  0.0348
10294TIP3   OH252372   4.694   5.913  15.057 -0.3478  0.6909  0.1823
10294TIP3    H152373   4.606   5.924  15.092 -0.5747 -1.2151  0.2640
10294TIP3    H252374   4.752   5.939  15.128 -0.8321  1.8438  0.1651
10295TIP3   OH252375   2.701   7.111   1.893 -0.1823 -0.0887  0.1149
10295TIP3    H152376   2.790   7.094   1.925 -0.1418 -0.3859 -0.1567
10295TIP3    H252377   2.651   7.129   1.973  0.0193 -0.3779  0.3098
10296TIP3   OH252378   3.281   1.300  15.770 -0.0830  0.2393  0.3396
10296TIP3    H152379   3.327   1.343  15.697  0.5676  0.9388  1.1532
10296TIP3    H252380   3.225   1.235  15.728  0.4311  0.5097 -0.7775
10297TIP3   OH252381   4.200   0.126   2.479 -0.0464  0.5062  0.0794
10297TIP3    H152382   4.194   0.042   2.523 -1.5384  0.0078 -1.0558
10297TIP3    H252383   4.285   0.124   2.435 -0.1259 -0.4461 -0.0297
10298TIP3   OH252384   4.278   0.126  15.059  0.1390 -0.5823  0.2948
10298TIP3    H152385   4.256   0.184  15.132  1.2681 -0.8445  0.8479
10298TIP3    H252386   4.291   0.040  15.100  2.2022 -0.4269 -0.0194
10299TIP3   OH252387   4.956   6.771   2.426  0.4323 -0.4370 -0.0784
10299TIP3    H152388   5.026   6.751   2.488 -0.4510 -0.2870  0.9768
10299TIP3    H252389   4.884   6.713   2.451 -0.1969  0.1655 -0.4854
10300TIP3   OH252390   3.482   6.284  14.710  0.0530 -0.0421 -0.3732
10300TIP3    H152391   3.427   6.236  14.648 -1.0240 -0.5152  0.9220
10300TIP3    H252392   3.421   6.343  14.756  0.4276 -1.2648  1.7599
10301TIP3   OH252393   4.135   4.529   1.203 -0.3323 -0.2349  0.1160
10301TIP3    H152394   4.130   4.615   1.161 -0.0642 -0.1418  0.2700
10301TIP3    H252395   4.224   4.498   1.185  0.0599  0.1700  1.3061
10302TIP3   OH252396   6.063   5.590  13.743  0.6211 -0.1121 -0.0257
10302TIP3    H152397   6.004   5.535  13.691 -2.3052  2.0798  0.8790
10302TIP3    H252398   6.021   5.597  13.828  2.4064  1.2115  0.7900
10303TIP3   OH252399   3.017   5.311  15.392 -0.2713 -0.1431 -0.5465
10303TIP3    H152400   2.995   5.403  15.410 -1.1820 -0.4768  0.0730
10303TIP3    H252401   3.067   5.315  15.310 -1.6410  0.7699 -1.3751
10304TIP3   OH252402   4.771   5.862   0.030  0.1360 -0.2080  0.0962
10304TIP3    H152403   4.833   5.812  -0.023  1.4507  0.7108  0.7283
10304TIP3    H252404   4.736   5.927  -0.030 -0.5128 -0.9784 -0.3640
10305TIP3   OH252405   4.729   6.592   0.989 -0.2077 -0.1761  0.2721
10305TIP3    H152406   4.762   6.614   0.902  0.1695 -1.0588  0.1840
10305TIP3    H252407   4.641   6.630   0.991  0.6393  1.8551  0.3648
10306TIP3   OH252408   4.418   1.263  15.172 -0.2488  0.0650 -0.0386
10306TIP3    H152409   4.444   1.175  15.146 -0.2703  0.2521 -0.6930
10306TIP3    H252410   4.472   1.282  15.249 -1.6210 -1.2743  1.2993
10307TIP3   OH252411   3.867   6.069  13.107 -0.0036  0.6251 -0.4629
10307TIP3    H152412   3.843   6.161  13.100  0.8320  0.9449  0.7175
10307TIP3    H252413   3.802   6.032  13.167 -0.0333  0.5564 -0.5368
10308TIP3   OH252414   2.806   0.064  14.705 -0.3778  0.5032  0.4946
10308TIP3    H152415   2.868  -0.009  14.703  0.5914  1.3455 -0.5780
10308TIP3    H252416   2.731   0.034  14.653 -0.6090 -0.2595  1.2485
10309TIP3   OH252417   5.761   6.859   0.703 -0.1523  0.2150 -0.0249
10309TIP3    H152418   5.793   6.836   0.616 -1.2138 -0.5059 -0.2374
10309TIP3    H252419   5.750   6.775   0.747 -1.3015  0.4781  0.2009
10310TIP3   OH252420   2.582   6.709   0.867 -0.5284  0.1261 -0.0842
10310TIP3    H152421   2.557   6.752   0.949  0.1493  1.1221 -0.3799
10310TIP3    H252422   2.535   6.758   0.800 -1.2947 -0.8617 -0.2617
10311TIP3   OH252423   5.884   5.756  13.245 -0.1523 -0.2151  0.1775
10311TIP3    H152424   5.891   5.809  13.165  1.8528 -2.5769 -1.3032
10311TIP3    H252425   5.918   5.812  13.314  1.7965  0.5446 -1.3391
10312TIP3   OH252426   4.927   5.604   0.140  0.4921  0.2671  0.3415
10312TIP3    H152427   4.983   5.676   0.112  0.0365  0.5970  0.2807
10312TIP3    H252428   4.886   5.634   0.221 -0.9430  0.7246 -0.5334
10313TIP3   OH252429   5.266   5.860   0.529 -0.1761 -0.8283 -0.1801
10313TIP3    H152430   5.186   5.912   0.524  0.0352 -0.5043 -0.1822
10313TIP3    H252431   5.303   5.882   0.615  1.5081  1.3419 -1.4393
10314TIP3   OH252432   4.302   5.974  14.152  0.4237 -1.1605  0.9107
10314TIP3    H152433   4.285   5.926  14.233 -0.7801  0.7624  1.8140
10314TIP3    H252434   4.378   6.028  14.172 -0.1192 -0.3841  0.8868
10315TIP3   OH252435   3.664   4.796  13.239  0.3412  0.3917  0.2015
10315TIP3    H152436   3.661   4.723  13.178 -0.8346  0.3000  0.3746
10315TIP3    H252437   3.670   4.755  13.326  0.5546  0.5100  0.2445
10316TIP3   OH252438   4.963   0.512  15.225  0.3529  0.0171  0.4185
10316TIP3    H152439   4.905   0.569  15.276  0.7015  1.4158 -0.7240
10316TIP3    H252440   4.914   0.430  15.216 -0.4510  0.3772  1.4768
10317TIP3   OH252441   4.844   6.185   0.482 -0.0603 -0.2633 -0.1971
10317TIP3    H152442   4.757   6.153   0.506  0.6878 -1.4691  1.0228
10317TIP3    H252443   4.829   6.244   0.408 -1.5914 -2.7960 -1.9793
10318TIP3   OH252444   5.683   0.431  15.928  0.1323  0.8232  0.0729
10318TIP3    H152445   5.639   0.454  16.009 -0.3680  1.4289 -0.3721
10318TIP3    H252446   5.613   0.401  15.870  0.7354 -1.6783  0.5767
10319TIP3   OH252447   6.059   6.477   0.266 -0.0143 -0.3563  0.0568
10319TIP3    H152448   6.104   6.560   0.278  3.7275 -2.3527  0.6898
10319TIP3    H252449   6.084   6.448   0.178 -2.6051 -0.1103 -0.8147
10320TIP3   OH252450   6.817   4.451  15.727 -0.3659  0.1241 -0.1417
10320TIP3    H152451   6.880   4.393  15.685  0.2957  0.3831  0.4865
10320TIP3    H252452   6.771   4.396  15.790  0.9594  0.4854  1.1826
10321TIP3   OH252453   5.089   5.123   1.994 -0.2155 -0.1233 -0.3949
10321TIP3    H152454   5.018   5.082   1.945 -1.1036  0.4238  0.4085
10321TIP3    H252455   5.156   5.142   1.928 -0.7503 -0.7796 -1.1378
10322TIP3   OH252456   3.207   6.150  14.674  0.0638  0.2854 -0.3534
10322TIP3    H152457   3.134   6.148  14.613  0.5294 -0.3012 -0.8919
10322TIP3    H252458   3.167   6.135  14.760 -0.5942  1.1607 -0.5001
10323TIP3   OH252459   3.395   4.292  14.007  0.0138 -0.3106 -0.0337
10323TIP3    H152460   3.390   4.226  14.076  0.8220 -0.0059  0.3244
10323TIP3    H252461   3.334   4.261  13.940 -3.0660  0.8875  2.0916
10324TIP3   OH252462   5.871   4.777  14.196 -0.0005  0.3668  0.4915
10324TIP3    H152463   5.792   4.731  14.224  0.1696  0.1056  0.5360
10324TIP3    H252464   5.894   4.833  14.271 -0.0929  0.3809  0.5099
10325TIP3   OH252465   0.297   5.136  15.948 -0.2326 -0.2421  0.3016
10325TIP3    H152466   0.254   5.199  15.891  1.7901  1.5440  0.7119
10325TIP3    H252467   0.291   5.174  16.036  0.8134 -0.7144  0.5852
10326TIP3   OH252468   6.026   5.324  14.363 -0.0425  0.4797 -0.4097
10326TIP3    H152469   5.985   5.401  14.324 -0.2368  0.9244  0.6543
10326TIP3    H252470   6.022   5.339  14.457 -2.5009 -2.0333 -0.0258
10327TIP3   OH252471   0.269   5.684  15.917 -0.0232  0.1505  0.1845
10327TIP3    H152472   0.199   5.629  15.882  0.2757 -0.1023 -0.0215
10327TIP3    H252473   0.324   5.624  15.968  1.8589 -0.3113 -2.2933
10328TIP3   OH252474   4.999   4.233   1.179 -0.2227  0.1667 -0.0528
10328TIP3    H152475   4.974   4.312   1.131  1.6991 -0.1788 -1.6839
10328TIP3    H252476   5.018   4.168   1.111 -0.0585 -1.1683  1.2279
10329TIP3   OH252477   0.748   6.099  15.690  0.5734 -0.1332  0.1527
10329TIP3    H152478   0.737   6.075  15.782  2.1718 -0.1318  0.3666
10329TIP3    H252479   0.734   6.193  15.688  0.6830 -0.1099  0.4302
10330TIP3   OH252480   6.591   5.211   0.679 -0.2476 -0.3469  0.4970
10330TIP3    H152481   6.661   5.265   0.640  0.5082  0.1869  2.5310
10330TIP3    H252482   6.616   5.203   0.771 -2.4817 -0.8173  1.0843
10331TIP3   OH252483   5.600   7.057  15.976 -0.1630  0.1262  0.5880
10331TIP3    H152484   5.537   7.030  15.910  1.9114 -0.1424 -1.3478
10331TIP3    H252485   5.574   7.009  16.055 -2.9348  0.8053  0.1397
10332TIP3   OH252486   6.639   4.797  15.763 -0.6835 -0.1888  0.3989
10332TIP3    H152487   6.630   4.724  15.824  1.3068  0.0846  1.0810
10332TIP3    H252488   6.731   4.793  15.736 -0.9401  1.1607 -0.7140
10333TIP3   OH252489   6.717   3.832  13.479  0.7454  0.3624 -0.5543
10333TIP3    H152490   6.801   3.875  13.493  0.9304  0.2951 -1.3918
10333TIP3    H252491   6.700   3.845  13.386  0.6418 -1.0688 -0.7432
10334TIP3   OH252492   4.569   6.131  14.627  0.1875 -0.1050 -0.2765
10334TIP3    H152493   4.589   6.202  14.688  1.1794  0.2500 -1.0044
10334TIP3    H252494   4.518   6.172  14.558 -1.1822 -0.5648  0.4273
10335TIP3   OH252495   5.881   6.646  15.193 -0.1054 -0.2215 -0.1191
10335TIP3    H152496   5.795   6.618  15.162 -0.1456  1.0630 -1.1868
10335TIP3    H252497   5.873   6.648  15.288 -1.2081 -0.2841 -0.2105
10336TIP3   OH252498   5.754   6.034   1.336  0.1656  0.5517 -0.2319
10336TIP3    H152499   5.743   5.958   1.394 -1.9099  0.7440 -0.3370
10336TIP3    H252500   5.725   6.108   1.388  0.3353  1.0162 -0.7936
10337TIP3   OH252501   5.222   0.445   0.416 -0.5121 -0.2369  0.0248
10337TIP3    H152502   5.157   0.374   0.423  0.3567 -0.8839  1.8270
10337TIP3    H252503   5.277   0.419   0.342 -0.3737 -1.2983  0.4927
10338TIP3   OH252504   3.485   0.643   0.845 -0.6840 -0.0723  0.1845
10338TIP3    H152505   3.544   0.671   0.775 -0.1865  2.1640  1.4488
10338TIP3    H252506   3.518   0.557   0.871  2.1465  1.1928  0.9683
10339TIP3   OH252507   5.009   0.053   1.398 -0.0621  0.0640  0.1343
10339TIP3    H152508   4.928   0.104   1.395  0.2285  0.4684 -1.0256
10339TIP3    H252509   4.979  -0.038   1.395 -0.5202  0.1752  0.9755
10340TIP3   OH252510   7.137   2.813  15.304  0.3252 -0.2038 -0.9281
10340TIP3    H152511   7.180   2.893  15.276  2.6934 -0.8083  0.7691
10340TIP3    H252512   7.174   2.745  15.248  1.5635 -0.7050  0.4478
10341TIP3   OH252513   4.681   6.254  14.892 -0.5257  0.4566 -0.4009
10341TIP3    H152514   4.776   6.248  14.883 -0.3947  0.6364  0.8178
10341TIP3    H252515   4.665   6.250  14.986 -1.6754  1.1296 -0.5535
10342TIP3   OH252516   4.474   6.913   1.312  0.9193 -0.2945  0.0394
10342TIP3    H152517   4.478   7.005   1.287  2.9133  0.0085  1.2921
10342TIP3    H252518   4.556   6.898   1.360 -0.0284 -2.3448  1.0894
10343TIP3   OH252519   5.275   6.590   0.070  0.3155  0.2825  0.3650
10343TIP3    H152520   5.184   6.588   0.099 -0.0206 -0.3345 -0.7115
10343TIP3    H252521   5.324   6.554   0.145 -0.1822  1.6638  1.3759
10344TIP3   OH252522   5.871   2.565  14.643 -0.0911 -0.3800 -0.3958
10344TIP3    H152523   5.831   2.652  14.653  1.8352  0.3340  1.4836
10344TIP3    H252524   5.933   2.576  14.572  0.4094 -0.1060  0.0785
10345TIP3   OH252525   6.705   4.018  15.693  0.5540  0.5037 -0.5007
10345TIP3    H152526   6.655   3.991  15.616  0.3513 -1.4903  0.2964
10345TIP3    H252527   6.754   3.939  15.718  2.6965  1.8802 -0.1742
10346TIP3   OH252528   6.501   6.758   0.639  0.1633  0.4782 -0.2447
10346TIP3    H152529   6.507   6.663   0.648 -1.2613  0.4739  0.8518
10346TIP3    H252530   6.508   6.774   0.545  0.6690 -0.6906 -0.4064
10347TIP3   OH252531   5.608   6.725  15.883  0.3210  0.3025 -0.8881
10347TIP3    H152532   5.543   6.676  15.833 -0.8317  0.2886  0.6254
10347TIP3    H252533   5.574   6.814  15.886  1.2184  0.6834 -1.5381
10348TIP3   OH252534   6.207   0.377  15.494 -0.5329 -0.1689 -0.2084
10348TIP3    H152535   6.278   0.437  15.472  0.7358 -1.6501 -0.2565
10348TIP3    H252536   6.246   0.290  15.486 -2.2287 -0.9934  0.2325
10349TIP3   OH252537   5.110   0.282   2.361  0.4897  0.1676  0.5191
10349TIP3    H152538   5.147   0.197   2.385  0.6052  0.1088  0.1401
10349TIP3    H252539   5.016   0.273   2.378  0.2298 -0.6299 -1.1468
10350TIP3   OH252540   0.248   0.176  14.452  0.9208 -0.2284  0.0110
10350TIP3    H152541   0.158   0.145  14.466  0.4822  1.0142  0.0265
10350TIP3    H252542   0.273   0.216  14.535  1.7075 -1.0843  0.1896
10351TIP3   OH252543   4.880   5.125   1.583 -0.3244 -0.5026 -0.0735
10351TIP3    H152544   4.941   5.145   1.655 -0.1058  1.2509 -0.7219
10351TIP3    H252545   4.853   5.035   1.599  2.3425 -1.2715  0.3162
10352TIP3   OH252546   7.209   4.558  15.650  0.1424 -0.7838  0.3486
10352TIP3    H152547   7.230   4.485  15.708  2.6756  1.4128  2.3129
10352TIP3    H252548   7.283   4.564  15.590  0.3412  0.6729  0.7242
10353TIP3   OH252549   4.531   3.447  15.917  0.0602  0.3192  0.1300
10353TIP3    H152550   4.612   3.480  15.878  0.6817  0.3823  1.4316
10353TIP3    H252551   4.538   3.471  16.010 -1.1436 -0.2781  0.3881
10354TIP3   OH252552   3.907   1.514  13.790 -0.1244  0.0555 -0.3699
10354TIP3    H152553   3.941   1.529  13.878  1.4534 -0.3754 -0.8976
10354TIP3    H252554   3.867   1.427  13.794  0.3315 -0.1473 -0.1920
10355TIP3   OH252555   0.460   1.415   0.440 -0.2807  0.7636 -0.3069
10355TIP3    H152556   0.384   1.399   0.384  0.3696 -2.2186 -0.4181
10355TIP3    H252557   0.518   1.469   0.386  0.3625 -2.0891 -2.6069
10356TIP3   OH252558   6.865   1.386   2.445  0.4756  0.1659 -0.6352
10356TIP3    H152559   6.945   1.385   2.392  1.4878 -0.5417  0.8468
10356TIP3    H252560   6.873   1.308   2.501 -1.7648 -0.4989 -1.1978
10357TIP3   OH252561   0.206   2.333   1.478  0.8480 -0.6381  0.4074
10357TIP3    H152562   0.245   2.420   1.472  0.5578 -0.5619 -0.4622
10357TIP3    H252563   0.127   2.344   1.532  0.2863 -0.1787 -0.5082
10358TIP3   OH252564   2.483   0.579   0.575 -0.3470  0.4798  0.3184
10358TIP3    H152565   2.462   0.655   0.520 -1.7553  0.9579  1.5073
10358TIP3    H252566   2.535   0.522   0.517 -2.0219  0.8475 -1.6147
10359TIP3   OH252567   5.899   1.641   2.059 -0.4673 -0.3755  0.3560
10359TIP3    H152568   5.963   1.573   2.078 -0.2628 -0.1955  0.3111
10359TIP3    H252569   5.917   1.709   2.124  0.4192  0.3690 -0.6616
10360TIP3   OH252570   6.419   0.528  15.411  0.0472 -0.2162 -0.0156
10360TIP3    H152571   6.491   0.574  15.368  0.9659 -1.8010 -0.1899
10360TIP3    H252572   6.367   0.491  15.339  1.4427 -2.6529  0.1858
10361TIP3   OH252573   0.541   1.128   0.877 -0.3286  0.4485  0.2164
10361TIP3    H152574   0.513   1.037   0.873  1.5937 -0.1608  0.5047
10361TIP3    H252575   0.535   1.159   0.787 -0.1044 -0.2265 -0.0343
10362TIP3   OH252576   2.217   1.977   0.192 -0.7906 -0.0582  0.2822
10362TIP3    H152577   2.258   1.996   0.108  1.8739 -1.7359  1.1458
10362TIP3    H252578   2.124   1.996   0.178 -0.4358 -0.5126 -3.0736
10363TIP3   OH252579   7.164   3.602  14.876 -0.8017 -0.1366 -0.3315
10363TIP3    H152580   7.240   3.639  14.832 -1.5278  1.6762 -0.1183
10363TIP3    H252581   7.200   3.536  14.935  0.6083  0.7324 -0.1985
10364TIP3   OH252582   1.054   6.919   2.060 -0.0663 -0.5505  0.0774
10364TIP3    H152583   1.130   6.873   2.027 -1.8909 -1.6861 -2.7130
10364TIP3    H252584   1.084   6.961   2.141  3.6068 -0.5626 -1.2030
10365TIP3   OH252585   1.655   0.134   2.021 -0.1716 -0.5235 -0.0357
10365TIP3    H152586   1.713   0.158   2.094 -0.3180  0.7807 -0.3402
10365TIP3    H252587   1.664   0.206   1.958 -1.8012 -0.5044 -0.2760
10366TIP3   OH252588   6.900   0.184   0.568 -0.3418 -0.0773 -0.0533
10366TIP3    H152589   6.872   0.093   0.572  3.4977 -1.3348  0.6806
10366TIP3    H252590   6.926   0.198   0.477  0.6734 -0.2704  0.1970
10367TIP3   OH252591   2.898   1.295   1.998 -0.3403 -0.2840 -0.4420
10367TIP3    H152592   2.922   1.233   1.929 -2.5931 -2.5741  0.7201
10367TIP3    H252593   2.867   1.240   2.070 -1.3008  2.1597  1.0910
10368TIP3   OH252594   0.338   2.193   1.014 -0.5759 -0.4691 -0.7871
10368TIP3    H152595   0.346   2.205   1.109 -0.3888 -3.3633 -0.3827
10368TIP3    H252596   0.427   2.174   0.985 -1.0710 -2.5354 -1.0415
10369TIP3   OH252597   7.334   2.355   0.342  0.3861  0.3607  0.3520
10369TIP3    H152598   7.407   2.378   0.285  2.3158  3.1336  3.7240
10369TIP3    H252599   7.354   2.267   0.373  1.6567  0.6005  0.2430
10370TIP3   OH252600   1.265   6.650   1.974 -0.0947 -0.4185 -0.2545
10370TIP3    H152601   1.226   6.642   1.887 -0.7336  1.6154 -0.2020
10370TIP3    H252602   1.351   6.688   1.958 -1.3225  2.7077  0.1344
10371TIP3   OH252603   6.414   5.208   1.602 -0.4793  0.2456 -0.2048
10371TIP3    H152604   6.329   5.214   1.646 -2.1428 -0.7937 -3.1232
10371TIP3    H252605   6.456   5.132   1.641 -1.8551 -0.5776 -0.2850
10372TIP3   OH252606   0.967   0.172   2.276 -0.5007  0.4221  0.8515
10372TIP3    H152607   1.050   0.166   2.322  0.0818  2.4620  0.1169
10372TIP3    H252608   0.930   0.256   2.302 -1.2347  0.5836 -0.6106
10373TIP3   OH252609   2.299   0.522   1.570 -0.1976  0.1704 -0.7057
10373TIP3    H152610   2.330   0.474   1.647 -1.3211  0.5050 -0.0251
10373TIP3    H252611   2.295   0.613   1.598  1.6518  0.6356 -1.9078
10374TIP3   OH252612   0.616   7.136   0.285 -0.1934 -0.1612  0.5425
10374TIP3    H152613   0.634   7.048   0.252 -2.4937 -0.3848 -0.1598
10374TIP3    H252614   0.651   7.135   0.374 -0.9500 -2.0608  0.8390
10375TIP3   OH252615   3.090   1.194   2.547 -0.9202 -0.4441  0.1385
10375TIP3    H152616   3.052   1.113   2.514 -0.3307 -0.7206  0.1276
10375TIP3    H252617   3.049   1.263   2.495 -0.0164 -0.8726 -1.1617
10376TIP3   OH252618   0.164   2.119  15.303 -0.0009 -0.7538  0.7922
10376TIP3    H152619   0.201   2.205  15.285 -0.5652 -0.5335  0.6743
10376TIP3    H252620   0.075   2.122  15.267  0.1479 -1.5549  0.3265
10377TIP3   OH252621   0.766   1.438  15.697  0.4386 -0.8862  0.3827
10377TIP3    H152622   0.858   1.419  15.677  0.3948 -1.1083  0.3850
10377TIP3    H252623   0.728   1.352  15.717  0.1826 -0.8217  0.1801
10378TIP3   OH252624   2.462   0.526   0.880  0.2752 -0.2149 -0.2457
10378TIP3    H152625   2.473   0.585   0.805  1.3370 -0.0478  0.0253
10378TIP3    H252626   2.543   0.474   0.881  0.8499  0.6806  1.5460
10379TIP3   OH252627   1.462   6.967   0.206  0.1314  0.2697  0.0543
10379TIP3    H152628   1.543   7.010   0.234  1.0676 -2.4705  1.6575
10379TIP3    H252629   1.416   6.946   0.288 -0.6123 -1.2328 -0.7374
10380TIP3   OH252630   6.702   1.578  14.848  0.0533 -0.1938  0.1319
10380TIP3    H152631   6.789   1.611  14.824 -0.7288 -0.4657 -3.3102
10380TIP3    H252632   6.655   1.654  14.882  1.2922  0.1702  1.0614
10381TIP3   OH252633   1.045   0.478  15.289  0.2156 -0.1684 -0.2320
10381TIP3    H152634   1.048   0.544  15.219 -0.1653  1.1080  0.9427
10381TIP3    H252635   0.960   0.492  15.332 -0.3655 -2.1672 -0.6639
10382TIP3   OH252636   7.141   7.216   3.164  0.5537  0.2420 -0.4339
10382TIP3    H152637   7.081   7.151   3.127 -0.0703  0.2490  0.5484
10382TIP3    H252638   7.228   7.186   3.139  0.2947 -1.1989  0.3444
10383TIP3   OH252639   7.333   0.006   2.246 -0.1711 -0.2531  0.1698
10383TIP3    H152640   7.339  -0.022   2.337 -0.8863 -0.6670  0.0917
10383TIP3    H252641   7.358   0.099   2.248  0.3740 -0.4065  0.6964
10384TIP3   OH252642   6.844   1.089   0.083  0.0255 -0.7113  0.0623
10384TIP3    H152643   6.846   1.174   0.127 -0.3635 -0.0677 -1.1340
10384TIP3    H252644   6.775   1.040   0.127  0.3337 -0.4559  0.8389
10385TIP3   OH252645   0.899   7.245  15.731 -0.3537  0.0487  0.5290
10385TIP3    H152646   0.941   7.170  15.774 -0.9404 -0.7907 -0.3433
10385TIP3    H252647   0.972   7.303  15.709  0.2334 -0.8324  0.1308
10386TIP3   OH252648   1.360   6.756   5.157 -0.3154  0.2655 -0.4567
10386TIP3    H152649   1.322   6.691   5.098  0.1527 -1.3613  1.0103
10386TIP3    H252650   1.315   6.743   5.240  1.1105  0.5530  0.3768
10387TIP3   OH252651   1.214   6.811   1.441  0.1853 -0.1237 -0.3522
10387TIP3    H152652   1.295   6.760   1.434 -0.3870 -1.0498 -0.3376
10387TIP3    H252653   1.174   6.782   1.523 -1.0811 -1.0582 -1.2790
10388TIP3   OH252654   6.250   3.815   2.293  0.0114  0.1138  0.3053
10388TIP3    H152655   6.271   3.771   2.211 -1.1616 -0.0588  0.1015
10388TIP3    H252656   6.255   3.747   2.360  2.7247  0.5921  0.6660
10389TIP3   OH252657   5.653   2.097   2.273  0.2642  0.1735 -0.7787
10389TIP3    H152658   5.628   2.010   2.240  1.3978 -0.0342 -1.1214
10389TIP3    H252659   5.748   2.101   2.258  0.5636  0.6347  1.1811
10390TIP3   OH252660   1.021   0.568   0.809 -0.0916 -0.3868 -0.5501
10390TIP3    H152661   1.066   0.595   0.729  1.1098  1.6374  0.7607
10390TIP3    H252662   1.089   0.531   0.864 -0.7850 -1.1084 -0.1662
10391TIP3   OH252663   7.084   0.137   0.146 -0.2464 -0.9645 -0.3403
10391TIP3    H152664   7.025   0.183   0.087  1.1792 -0.7997 -1.6519
10391TIP3    H252665   7.028   0.109   0.219 -1.3741  1.7653 -0.1215
10392TIP3   OH252666   7.243   1.273  13.506  0.0683  0.2262 -0.2278
10392TIP3    H152667   7.319   1.281  13.564 -0.2958  1.1934  0.1313
10392TIP3    H252668   7.273   1.216  13.435  0.2095 -1.7662  1.4023
10393TIP3   OH252669   0.514   1.479   1.267  0.8487  0.1360 -0.1892
10393TIP3    H152670   0.525   1.496   1.174 -2.6278  0.6282 -0.5756
10393TIP3    H252671   0.516   1.384   1.275  0.7929  0.0837 -0.8040
10394TIP3   OH252672   3.727   3.371   1.077  0.2167  0.2457  0.0389
10394TIP3    H152673   3.675   3.387   1.156  2.1957  2.4619  0.9648
10394TIP3    H252674   3.779   3.450   1.067  0.2536 -0.1371 -3.3402
10395TIP3   OH252675   7.220   1.674   1.219  0.7212 -0.3147 -0.1836
10395TIP3    H152676   7.301   1.704   1.179  1.1235 -1.8261 -0.5525
10395TIP3    H252677   7.249   1.619   1.292  0.0498 -0.9196 -0.3650
10396TIP3   OH252678   6.503   3.263   0.218  0.3308 -1.0921  0.4111
10396TIP3    H152679   6.577   3.280   0.161 -1.1134  0.0053 -1.1948
10396TIP3    H252680   6.489   3.345   0.265 -0.6940 -0.8491 -0.2977
10397TIP3   OH252681   0.375   0.387   4.158  0.0618 -0.0013  0.4709
10397TIP3    H152682   0.424   0.309   4.131 -0.0027  0.0909  0.0740
10397TIP3    H252683   0.442   0.453   4.173  0.1230 -0.1604  0.9005
10398TIP3   OH252684   0.566   7.184   2.261  0.3025  0.5719  0.1172
10398TIP3    H152685   0.606   7.268   2.280 -0.9657  1.6315 -1.6686
10398TIP3    H252686   0.563   7.138   2.345  1.3095  2.1637  1.0360
10399TIP3   OH252687   0.872   0.910  15.689 -0.1347  0.4148  0.5165
10399TIP3    H152688   0.901   0.825  15.656 -1.4495  0.3646 -0.5509
10399TIP3    H252689   0.795   0.891  15.743 -3.1519  1.2559 -3.2347
10400TIP3   OH252690   1.414   6.874   1.844 -0.1862 -0.0249  0.0095
10400TIP3    H152691   1.411   6.940   1.775 -1.5842  0.0054  0.1016
10400TIP3    H252692   1.506   6.845   1.845  0.2142  1.2099 -0.6835
10401TIP3   OH252693   0.716   0.547  15.855 -0.0353  0.1581 -0.6931
10401TIP3    H152694   0.650   0.599  15.901  0.2557 -0.5679  0.5579
10401TIP3    H252695   0.799   0.571  15.896  0.3958  0.4386 -1.6985
10402TIP3   OH252696   6.670   1.836   1.655 -0.6488  0.1513  0.2006
10402TIP3    H152697   6.649   1.782   1.579 -1.7279  1.2687 -0.3254
10402TIP3    H252698   6.728   1.904   1.621 -1.3433  0.8119  0.2925
10403TIP3   OH252699   1.435   1.481   2.812 -0.1291 -0.5771 -0.4040
10403TIP3    H152700   1.461   1.413   2.749  0.2498 -0.8682  0.0709
10403TIP3    H252701   1.440   1.562   2.762  0.4289 -0.7791 -0.6855
10404TIP3   OH252702   2.876   2.886   3.547 -0.3242 -0.1707  0.1623
10404TIP3    H152703   2.814   2.814   3.558  0.5493 -0.7439  1.4130
10404TIP3    H252704   2.942   2.852   3.486  0.6624 -0.8179  1.5758
10405TIP3   OH252705   5.582   1.393  15.982 -0.3397  0.6140 -0.0941
10405TIP3    H152706   5.643   1.372  16.053 -0.9084  2.4904  0.9864
10405TIP3    H252707   5.625   1.463  15.933  0.5351 -1.4165 -2.3049
10406TIP3   OH252708   6.335   1.524  15.884 -0.5047  0.3156 -0.0779
10406TIP3    H152709   6.413   1.484  15.845 -0.4955  0.2248  0.0345
10406TIP3    H252710   6.268   1.456  15.878 -0.6948  0.5376 -0.5609
10407TIP3   OH252711   2.948   0.227  14.223 -0.5810 -0.3320 -0.6772
10407TIP3    H152712   3.001   0.154  14.192 -1.0882 -1.1396  0.3127
10407TIP3    H252713   2.895   0.189  14.293  1.4000  1.7082  1.9986
10408TIP3   OH252714   2.073   0.590   1.266  0.0230  0.0870 -0.7438
10408TIP3    H152715   1.991   0.624   1.229 -1.6377 -0.6799  2.0894
10408TIP3    H252716   2.064   0.495   1.261 -0.1765 -0.0328  1.3703
10409TIP3   OH252717   1.631   0.366   1.508  0.1478  0.2850  0.0727
10409TIP3    H152718   1.660   0.288   1.556 -1.8703  0.5699  1.8466
10409TIP3    H252719   1.681   0.364   1.427  1.6246 -1.7525  0.9735
10410TIP3   OH252720   0.001   2.704   1.284  0.5122 -1.0683  0.2720
10410TIP3    H152721   0.042   2.763   1.221 -0.9013 -0.6438 -0.2674
10410TIP3    H252722  -0.059   2.650   1.232 -0.1597 -1.1829  1.1430
10411TIP3   OH252723   5.578   0.751   0.407 -0.1676  0.2216  0.2592
10411TIP3    H152724   5.536   0.716   0.486  0.6407  0.1319  0.6570
10411TIP3    H252725   5.669   0.764   0.433 -0.1131  1.1314 -0.3684
10412TIP3   OH252726   1.461   0.230   1.258 -0.7687 -0.6951  0.1617
10412TIP3    H152727   1.526   0.192   1.199 -2.3134  0.1816 -2.1985
10412TIP3    H252728   1.387   0.252   1.201 -1.7877  1.4431  2.2148
10413TIP3   OH252729   7.238   6.976   1.938  0.2835  0.2826  0.2038
10413TIP3    H152730   7.269   6.941   2.022 -1.3971  0.2920  0.8496
10413TIP3    H252731   7.263   7.068   1.940  0.2487  0.2868  0.7197
10414TIP3   OH252732   0.862   7.071  15.406 -0.0257  0.0272 -0.8040
10414TIP3    H152733   0.941   7.125  15.407  0.6325 -0.9232 -0.9247
10414TIP3    H252734   0.885   6.994  15.355 -1.0645 -0.2197 -0.9291
10415TIP3   OH252735   0.386   6.177   1.844 -0.1127  0.1410 -0.3789
10415TIP3    H152736   0.352   6.176   1.754 -0.2344  0.2340 -0.3345
10415TIP3    H252737   0.448   6.104   1.847 -0.5833 -0.2591 -0.3505
10416TIP3   OH252738   7.272   0.117   0.958  0.2266  0.3065 -0.1913
10416TIP3    H152739   7.179   0.135   0.951 -0.0519 -1.1450 -0.5742
10416TIP3    H252740   7.281   0.027   0.926  1.6906  0.2690  0.2767
10417TIP3   OH252741   1.082   1.161   0.017 -0.4831  0.1707 -0.0360
10417TIP3    H152742   0.996   1.119   0.020 -1.0547  1.3452  0.5100
10417TIP3    H252743   1.103   1.166  -0.076 -0.4177 -1.2926 -0.1007
10418TIP3   OH252744   2.283   1.957   2.274  0.1732  0.5630 -0.8129
10418TIP3    H152745   2.344   1.902   2.226  1.0864  0.4386  0.4528
10418TIP3    H252746   2.197   1.916   2.261  0.8054 -1.0763 -0.0484
10419TIP3   OH252747   7.064   6.660   2.110  0.5241  0.6114 -0.7700
10419TIP3    H152748   6.984   6.632   2.066  0.0982 -3.6207  2.4315
10419TIP3    H252749   7.036   6.731   2.168 -1.2450 -1.6973  1.2785
10420TIP3   OH252750   2.677   0.310   2.776 -0.1705  0.1884  0.2720
10420TIP3    H152751   2.661   0.392   2.823  1.4945  1.2535 -0.9776
10420TIP3    H252752   2.737   0.262   2.833  0.0333  0.4878  0.3115
10421TIP3   OH252753   6.572   0.136   2.196 -0.1187 -0.1509  0.5283
10421TIP3    H152754   6.577   0.053   2.243 -0.7063  0.5975  1.9399
10421TIP3    H252755   6.491   0.130   2.144 -0.5000 -0.2124  1.1243
10422TIP3   OH252756   1.504   1.839   2.115  0.1211  0.7073  0.3841
10422TIP3    H152757   1.555   1.838   2.033  0.8768 -1.6741  0.8289
10422TIP3    H252758   1.469   1.928   2.120  1.7756  1.5264 -1.4701
10423TIP3   OH252759   1.170   1.110   1.588 -0.2193  0.3320 -0.2835
10423TIP3    H152760   1.170   1.054   1.511 -1.2107  0.2240 -0.2134
10423TIP3    H252761   1.166   1.199   1.554 -0.8768  0.2764 -0.3540
10424TIP3   OH252762   5.983   1.895   1.460  0.1031 -0.2146  0.4873
10424TIP3    H152763   5.969   1.918   1.552  0.5443  0.6364  0.3457
10424TIP3    H252764   5.975   1.799   1.458 -1.1727 -0.1376  1.1854
10425TIP3   OH252765   6.680   1.058  15.528  0.0741  0.2024 -0.2739
10425TIP3    H152766   6.725   0.994  15.583  0.4217 -0.1825 -1.0064
10425TIP3    H252767   6.649   1.008  15.453  0.8439  0.9968 -1.1326
10426TIP3   OH252768   0.199   0.205   0.508 -0.4203 -0.2136 -0.1479
10426TIP3    H152769   0.262   0.225   0.577 -1.1712 -0.3246  0.5767
10426TIP3    H252770   0.224   0.118   0.476  1.4438  0.8673 -1.7235
10427TIP3   OH252771   7.003   7.214   1.020  0.0893  0.0063 -0.2234
10427TIP3    H152772   7.021   7.308   1.019  0.4234 -0.0410  0.7535
10427TIP3    H252773   7.088   7.173   1.008 -0.0768 -0.1780 -0.8027
10428TIP3   OH252774   1.749   2.527   1.145 -0.2555  0.3256  0.6039
10428TIP3    H152775   1.750   2.622   1.136  0.7143  0.3464  0.8747
10428TIP3    H252776   1.658   2.502   1.132 -0.1000  1.0422 -2.1495
10429TIP3   OH252777   5.500   7.019   2.149  0.1424 -0.3779  0.1411
10429TIP3    H152778   5.582   7.005   2.102  0.2805 -0.1805  0.3270
10429TIP3    H252779   5.458   6.932   2.149  0.2260 -0.4208 -0.1830
10430TIP3   OH252780   0.346   0.334  15.905  0.4156  0.1837 -0.5873
10430TIP3    H152781   0.435   0.343  15.873  1.2510 -1.6261  1.1628
10430TIP3    H252782   0.315   0.252  15.868 -0.3784  0.5969 -0.8508
10431TIP3   OH252783   2.608   2.728   0.444 -0.7546 -0.3552 -0.3200
10431TIP3    H152784   2.611   2.707   0.537  2.2431 -0.1109 -0.3080
10431TIP3    H252785   2.699   2.746   0.420 -1.3383 -1.1362 -3.4657
10432TIP3   OH252786   0.470   1.872   1.074 -0.1581 -0.0233 -0.8040
10432TIP3    H152787   0.472   1.831   0.987  0.7038 -1.2450 -0.2176
10432TIP3    H252788   0.379   1.899   1.085 -0.5448 -0.9695 -1.5769
10433TIP3   OH252789   7.309   6.659   1.994 -0.6443  0.6159 -0.4544
10433TIP3    H152790   7.221   6.640   2.026 -0.8130 -2.2590 -2.4183
10433TIP3    H252791   7.296   6.688   1.904  0.4920 -1.3399 -1.2821
10434TIP3   OH252792   6.364   7.081   0.941 -0.0770 -0.3870 -0.1651
10434TIP3    H152793   6.402   7.095   1.028 -2.3238  1.6368  0.5500
10434TIP3    H252794   6.352   7.169   0.906 -1.6922 -1.0834 -1.4145
10435TIP3   OH252795   1.365   5.580   0.909  0.6004  0.0408 -0.0041
10435TIP3    H152796   1.442   5.631   0.934  0.2584 -0.0244  1.2144
10435TIP3    H252797   1.397   5.490   0.903  0.7336  0.0889 -0.0263
10436TIP3   OH252798   6.370   0.594   1.391 -0.3522  0.3820 -0.1548
10436TIP3    H152799   6.444   0.539   1.365  0.2387  1.1660 -0.1523
10436TIP3    H252800   6.361   0.579   1.485 -0.5189 -0.0930 -0.2428
10437TIP3   OH252801   2.346   2.333   0.346  0.1833  0.2899  0.4554
10437TIP3    H152802   2.308   2.348   0.433 -0.8708  1.0546 -0.1287
10437TIP3    H252803   2.388   2.247   0.353 -1.0080 -0.2441  1.3448
10438TIP3   OH252804   1.420   0.168   0.595 -0.8307  0.0426 -0.3964
10438TIP3    H152805   1.420   0.085   0.548  0.5391 -0.1032 -0.1559
10438TIP3    H252806   1.335   0.170   0.640 -0.5948 -1.5422  0.1392
10439TIP3   OH252807   0.100   0.764   1.023  0.4620 -0.0098  0.1017
10439TIP3    H152808   0.149   0.828   0.971 -1.7682  0.8512 -0.9635
10439TIP3    H252809   0.054   0.816   1.089  2.6728 -1.0188  2.5771
10440TIP3   OH252810   7.043   7.064   1.416  0.3961  0.4783  0.4740
10440TIP3    H152811   7.000   7.061   1.330  0.3011 -0.3008  0.5389
10440TIP3    H252812   7.108   6.994   1.412  0.0155  0.0731  1.2349
10441TIP3   OH252813   0.271   0.643  15.698  0.0382  0.2690 -0.2386
10441TIP3    H152814   0.179   0.664  15.686 -0.5610 -1.8321  0.5516
10441TIP3    H252815   0.312   0.727  15.721 -1.6848  1.1726 -0.4118
10442TIP3   OH252816   0.325   0.599   0.400 -0.5473  0.2487  0.0363
10442TIP3    H152817   0.271   0.638   0.331 -2.1284  1.2760  1.8005
10442TIP3    H252818   0.404   0.570   0.355 -2.9743 -2.2548 -2.8313
10443TIP3   OH252819   6.520   0.467   2.381 -0.4030  0.5110 -0.1674
10443TIP3    H152820   6.488   0.557   2.385 -0.5430  0.4554 -0.0192
10443TIP3    H252821   6.474   0.429   2.306 -2.4781 -0.2560  1.4261
10444TIP3   OH252822   1.249   0.118   3.244 -0.5145  0.8058 -0.5976
10444TIP3    H152823   1.199   0.199   3.244 -0.3385  0.9229  0.7333
10444TIP3    H252824   1.332   0.141   3.203  0.0931  1.6600  1.0771
10445TIP3   OH252825   0.604   0.053   1.511  0.0412  0.0435 -0.5642
10445TIP3    H152826   0.641  -0.031   1.538  0.2985  0.2327 -0.3325
10445TIP3    H252827   0.647   0.073   1.428  0.3130  0.1692 -0.3917
10446TIP3   OH252828   1.981   2.481   2.063  0.0609 -0.2083  1.0645
10446TIP3    H152829   1.933   2.406   2.098 -0.7203 -0.1173  0.2020
10446TIP3    H252830   1.925   2.516   1.994  1.6658 -0.5017 -0.4359
10447TIP3   OH252831   0.190   6.515   2.756  0.3150  0.5315  0.1626
10447TIP3    H152832   0.159   6.599   2.722  1.4182  0.5496 -0.8553
10447TIP3    H252833   0.124   6.451   2.730  0.3825  0.7981 -0.6550
10448TIP3   OH252834   2.167   1.376   0.905  0.5317  0.1872 -0.0172
10448TIP3    H152835   2.247   1.386   0.853  0.6338  2.7212  0.5679
10448TIP3    H252836   2.136   1.466   0.920 -2.6552 -0.7428 -0.5752
10449TIP3   OH252837   2.664   4.463   0.467 -0.1969  0.3334  0.5461
10449TIP3    H152838   2.738   4.419   0.425  1.1330  2.7697  0.2522
10449TIP3    H252839   2.621   4.511   0.397 -1.0387  0.3131  1.0407
10450TIP3   OH252840   0.898   3.084   1.128  0.3938 -0.0282  0.0870
10450TIP3    H152841   0.896   2.995   1.093 -0.1338  0.0727 -0.1486
10450TIP3    H252842   0.887   3.140   1.052 -0.0628  0.2133  0.3266
10451TIP3   OH252843   6.241   6.581  15.087  0.2552  0.2476 -0.3085
10451TIP3    H152844   6.285   6.626  15.160  0.6134  2.4254 -1.8391
10451TIP3    H252845   6.196   6.650  15.039  1.4195 -0.8861 -3.1626
10452TIP3   OH252846   5.780   1.807   2.345  0.5397 -0.7453 -0.3727
10452TIP3    H152847   5.874   1.814   2.328  0.5882 -1.5793 -0.4338
10452TIP3    H252848   5.739   1.821   2.260  0.6676 -1.7997 -0.6162
10453TIP3   OH252849   0.246   7.175   0.960  0.2655  0.2640 -0.5925
10453TIP3    H152850   0.206   7.221   0.886 -0.0332 -1.4663 -1.5272
10453TIP3    H252851   0.235   7.082   0.940  1.1832 -0.2348  1.0902
10454TIP3   OH252852   0.525   1.556   0.996  0.0732  0.9995  0.4236
10454TIP3    H152853   0.440   1.598   0.991 -0.1524  0.5206  0.0796
10454TIP3    H252854   0.533   1.509   0.913  0.3216  0.3876  0.7860
10455TIP3   OH252855   0.885   5.494   4.214  0.7367  0.0836 -0.1035
10455TIP3    H152856   0.817   5.561   4.223  0.3670 -0.3492  0.3621
10455TIP3    H252857   0.942   5.527   4.144 -0.0154  0.3965 -0.5795
10456TIP3   OH252858   0.539   3.261  15.898 -0.2933 -0.0309  0.4707
10456TIP3    H152859   0.634   3.255  15.898 -0.2036 -0.1491 -3.8480
10456TIP3    H252860   0.521   3.352  15.922  0.9865  0.4634 -0.3989
10457TIP3   OH252861   1.648   2.707   0.535 -0.4034  0.9632 -0.0525
10457TIP3    H152862   1.681   2.722   0.623  0.0282 -0.1218 -0.0233
10457TIP3    H252863   1.726   2.691   0.482 -0.8184 -1.2146 -0.0592
10458TIP3   OH252864   2.803   2.065  14.572  0.6424 -0.8034 -0.0589
10458TIP3    H152865   2.715   2.094  14.546  0.6070 -0.4851  0.4060
10458TIP3    H252866   2.862   2.132  14.538  0.6746 -0.8352 -0.0654
10459TIP3   OH252867   7.170   1.587   0.145  0.1069 -0.1704 -0.0218
10459TIP3    H152868   7.227   1.593   0.068  0.4694  1.4476  0.3592
10459TIP3    H252869   7.222   1.537   0.208  0.3248 -0.3838 -0.3665
10460TIP3   OH252870   0.273   7.100   1.558  0.0126 -0.1298 -0.6464
10460TIP3    H152871   0.299   7.116   1.649 -0.7854 -1.1110 -0.2328
10460TIP3    H252872   0.289   7.183   1.513  1.1193  0.1474  0.2255
10461TIP3   OH252873   4.644   3.914  15.609 -0.0613 -0.2552 -0.0904
10461TIP3    H152874   4.616   3.824  15.630  0.6173 -0.3847  0.2634
10461TIP3    H252875   4.735   3.918  15.638  0.0734  0.3862 -0.5989
10462TIP3   OH252876   6.362   1.449   0.147 -0.6497  0.1924 -0.3168
10462TIP3    H152877   6.369   1.470   0.054  1.7984 -1.4269 -0.5575
10462TIP3    H252878   6.375   1.533   0.192 -0.4989  0.7679 -1.4250
10463TIP3   OH252879   6.442   0.317   1.681 -0.2418 -0.0371  0.3654
10463TIP3    H152880   6.410   0.245   1.626 -0.4614  2.1533 -2.5309
10463TIP3    H252881   6.370   0.380   1.680  1.1126  1.5258  0.3146
10464TIP3   OH252882   7.103   1.146   1.159 -0.2033 -0.1379 -0.5095
10464TIP3    H152883   7.067   1.234   1.157 -1.6682 -0.7500 -1.5219
10464TIP3    H252884   7.070   1.109   1.241  2.5899  1.1135  1.2785
10465TIP3   OH252885   0.177   6.930   0.474 -0.7908  0.0143  0.2995
10465TIP3    H152886   0.215   6.910   0.560  0.6817 -1.1542 -0.5787
10465TIP3    H252887   0.232   7.000   0.440 -0.8007 -0.1561 -0.0670
10466TIP3   OH252888   1.123   0.688  14.300 -0.5600 -0.2798 -0.6958
10466TIP3    H152889   1.124   0.631  14.223  0.1629  1.7890 -2.2707
10466TIP3    H252890   1.034   0.724  14.302 -0.4235  0.0778 -0.9013
10467TIP3   OH252891   0.925   0.957   0.550  0.5035  0.2571 -0.5093
10467TIP3    H152892   0.973   1.024   0.502 -0.2633  1.0897 -0.1125
10467TIP3    H252893   0.905   0.997   0.635  0.5741 -0.6869 -0.0297
10468TIP3   OH252894   7.087   5.837   2.003 -0.1694  0.1421  0.6626
10468TIP3    H152895   7.112   5.895   1.932 -1.1565  0.7356  0.7773
10468TIP3    H252896   7.138   5.868   2.078  0.9991 -0.5947  0.1889
10469TIP3   OH252897   1.977   0.428   1.614 -0.3627  0.6586  0.1218
10469TIP3    H152898   2.047   0.474   1.567 -1.1121  0.3783 -1.2803
10469TIP3    H252899   1.947   0.492   1.679 -0.0914  1.4663 -0.5335
10470TIP3   OH252900   0.590   1.852  15.753  0.2458 -0.0812 -0.2236
10470TIP3    H152901   0.543   1.864  15.670  1.2918 -1.4207 -1.0301
10470TIP3    H252902   0.682   1.870  15.731  0.7748 -2.0765  0.2313
10471TIP3   OH252903   7.221   0.111  15.676 -0.7877 -0.8148  0.2139
10471TIP3    H152904   7.245   0.176  15.742 -0.4877  1.1124 -1.7750
10471TIP3    H252905   7.272   0.033  15.700  1.8674  0.9057  0.3082
10472TIP3   OH252906   0.061   5.828   1.054  0.3795  0.2177  0.0626
10472TIP3    H152907   0.057   5.883   1.132 -0.1192  0.4327 -0.1146
10472TIP3    H252908  -0.027   5.793   1.044 -0.1039  1.7877 -1.5462
10473TIP3   OH252909   1.281   0.734   1.377  0.5228  0.0852 -0.1916
10473TIP3    H152910   1.373   0.759   1.387  0.8073 -0.9207 -0.2176
10473TIP3    H252911   1.283   0.639   1.365 -0.5001  0.0907 -0.4867
10474TIP3   OH252912   1.919   0.255  15.808  0.1382 -0.5051 -0.0126
10474TIP3    H152913   1.885   0.252  15.897  1.6325 -0.7487  0.5514
10474TIP3    H252914   1.971   0.176  15.798 -0.0599 -0.5117 -1.1204
10475TIP3   OH252915   7.218   2.205   1.844  0.8174  0.2484 -0.2968
10475TIP3    H152916   7.261   2.145   1.783  0.3349  0.2120 -0.6041
10475TIP3    H252917   7.247   2.292   1.817 -0.5350  0.3545 -1.5253
10476TIP3   OH252918   1.062   1.537   1.488 -0.0102  0.2162 -0.0519
10476TIP3    H152919   0.982   1.537   1.541 -0.0387 -0.4003 -0.0837
10476TIP3    H252920   1.033   1.510   1.401  0.4238 -1.3729  0.2668
10477TIP3   OH252921   6.499   6.562   1.443  0.4309  0.2395 -0.0474
10477TIP3    H152922   6.526   6.642   1.398  1.6681 -1.6380 -2.7769
10477TIP3    H252923   6.570   6.546   1.506  2.6468 -1.2382 -2.8123
10478TIP3   OH252924   5.818   4.005   2.117 -0.1288 -0.4288 -0.3948
10478TIP3    H152925   5.728   4.031   2.099 -0.2361 -0.0055  0.6937
10478TIP3    H252926   5.871   4.073   2.077 -0.2884 -0.7117 -1.0932
10479TIP3   OH252927   7.255   1.672   0.535  0.4942  0.7675 -0.2718
10479TIP3    H152928   7.253   1.739   0.466  1.2735  0.9361 -0.1359
10479TIP3    H252929   7.176   1.687   0.585 -0.2103  0.4854 -1.2827
10480TIP3   OH252930   0.085   1.470   3.298 -0.6089 -0.1901  0.5338
10480TIP3    H152931   0.104   1.563   3.304 -0.1522 -0.0897 -2.0843
10480TIP3    H252932   0.026   1.461   3.223  0.6151 -2.1525 -0.2474
10481TIP3   OH252933   2.555   2.315  15.421 -0.2601 -0.1889 -0.3832
10481TIP3    H152934   2.607   2.393  15.439  1.5763 -1.6962  0.9571
10481TIP3    H252935   2.479   2.348  15.372  0.3505  2.4496  0.3801
10482TIP3   OH252936   1.546   0.988   2.638 -0.0859  0.0854 -0.0929
10482TIP3    H152937   1.457   1.022   2.624  0.7562  1.8431 -1.3295
10482TIP3    H252938   1.562   1.002   2.732 -0.9575  0.1236  0.0595
10483TIP3   OH252939   3.106   0.200   0.210  0.2585 -0.0533  0.2878
10483TIP3    H152940   3.172   0.132   0.226  0.5543  0.3582  0.8466
10483TIP3    H252941   3.098   0.203   0.115  2.2776  1.0535  0.1263
10484TIP3   OH252942   0.370   7.171   0.618 -0.1520  0.1341 -0.9004
10484TIP3    H152943   0.286   7.198   0.582 -0.7209 -1.2693 -0.6618
10484TIP3    H252944   0.348   7.104   0.683  1.0992  0.1932 -0.3949
10485TIP3   OH252945   1.519   0.541  14.426 -0.0598 -0.2789  0.2249
10485TIP3    H152946   1.593   0.535  14.486  1.1099 -0.9590 -1.2624
10485TIP3    H252947   1.477   0.455  14.433  1.0800 -0.9673 -1.1841
10486TIP3   OH252948   5.959   2.794   2.177  0.0480 -0.5680 -0.1817
10486TIP3    H152949   5.963   2.708   2.219  1.0445 -0.3204  0.2453
10486TIP3    H252950   6.039   2.800   2.125 -0.3907 -0.2091 -0.8236
10487TIP3   OH252951   0.819   5.808   0.836  0.2003  0.0566  0.4032
10487TIP3    H152952   0.822   5.866   0.759  1.4173  0.0001  0.3923
10487TIP3    H252953   0.871   5.732   0.810  0.7440  0.1078  1.3428
10488TIP3   OH252954   5.601   1.720   1.829  0.2958 -0.3212  0.0703
10488TIP3    H152955   5.554   1.665   1.892 -0.9181  1.2187  0.5274
10488TIP3    H252956   5.537   1.737   1.760  0.9965 -0.3517 -0.5833
10489TIP3   OH252957   0.814   1.278   0.475  0.2630  0.1067  0.0305
10489TIP3    H152958   0.829   1.367   0.507  0.1368  0.2851 -0.4045
10489TIP3    H252959   0.900   1.236   0.480  0.4129  0.3866 -0.1757
10490TIP3   OH252960   0.023   1.665   3.593  0.0794  0.4612  0.0624
10490TIP3    H152961   0.042   1.714   3.514  1.3434  0.0823  0.1334
10490TIP3    H252962   0.087   1.595   3.595 -1.9172 -1.4442 -0.2190
10491TIP3   OH252963   6.742   0.666   1.780 -0.0914 -0.5569  0.3697
10491TIP3    H152964   6.769   0.580   1.748 -0.3461 -1.4951  2.6141
10491TIP3    H252965   6.816   0.723   1.758  0.8098 -1.6953  0.3808
10492TIP3   OH252966   5.772   1.489   1.795 -0.2534 -0.6380  0.0544
10492TIP3    H152967   5.710   1.423   1.762 -1.1586  0.4595 -0.4598
10492TIP3    H252968   5.727   1.572   1.782  0.3527 -0.0093  1.9241
10493TIP3   OH252969   2.174   1.134   0.278  0.2198 -0.0501 -0.7240
10493TIP3    H152970   2.153   1.171   0.364  4.5226 -0.7216  0.7772
10493TIP3    H252971   2.232   1.198   0.238 -0.3960 -0.5327 -2.4355
10494TIP3   OH252972   6.543   0.299   3.090 -0.1857  0.1650  0.4530
10494TIP3    H152973   6.621   0.345   3.121  0.0473  0.3238 -0.3568
10494TIP3    H252974   6.510   0.253   3.167  0.9938 -0.3147  0.6889
10495TIP3   OH252975   6.616   7.163   2.306 -0.0428  0.1416  0.3240
10495TIP3    H152976   6.682   7.159   2.376 -0.1493  1.9693  0.5467
10495TIP3    H252977   6.543   7.112   2.341 -0.2673  1.3910  1.7762
10496TIP3   OH252978   1.264   0.299   2.278 -0.5517 -0.5386  0.1975
10496TIP3    H152979   1.200   0.336   2.217 -1.0602 -0.6691  0.6482
10496TIP3    H252980   1.337   0.270   2.222 -0.2541  0.9163 -0.1767
10497TIP3   OH252981   3.316   0.203   1.664  0.4818  0.0099 -0.8014
10497TIP3    H152982   3.399   0.237   1.631  0.9392 -0.0598  0.2664
10497TIP3    H252983   3.330   0.109   1.675  0.3747  0.0557 -0.2756
10498TIP3   OH252984   0.042   7.178   1.419 -0.1949  0.0270 -0.1760
10498TIP3    H152985   0.133   7.157   1.439 -0.3233  1.1059  1.7044
10498TIP3    H252986  -0.004   7.095   1.426  0.4799 -0.3459 -0.1517
10499TIP3   OH252987   6.978   7.099   1.799 -0.4034  0.3226  0.1173
10499TIP3    H152988   7.057   7.044   1.803  0.7484  1.8615 -0.6336
10499TIP3    H252989   6.943   7.097   1.887 -0.4237 -1.6621  0.0870
10500TIP3   OH252990   7.320   6.379   0.984  0.0752 -0.3961 -0.1184
10500TIP3    H152991   7.286   6.425   0.907  1.1542  1.2783  0.3703
10500TIP3    H252992   7.335   6.290   0.953  0.5442  0.2618 -1.8913
10501TIP3   OH252993   6.539   6.785   3.606 -0.2117 -0.3272  0.3537
10501TIP3    H152994   6.599   6.830   3.546 -1.6193  0.1393 -0.7170
10501TIP3    H252995   6.493   6.856   3.650 -0.4740 -0.6960  0.6619
10502TIP3   OH252996   0.676   5.880   4.252  0.2466 -0.4575  0.0539
10502TIP3    H152997   0.736   5.903   4.181  2.9127 -1.7075  1.8166
10502TIP3    H252998   0.684   5.953   4.314 -0.6893 -0.2564 -0.0467
10503TIP3   OH252999   7.037   0.462   4.119 -0.1367 -0.4979  0.4384
10503TIP3    H153000   7.125   0.427   4.103 -0.5470 -1.2532 -0.2162
10503TIP3    H253001   7.034   0.477   4.213  1.5126  1.7754  0.2007
10504TIP3   OH253002   5.694   2.186  15.796  0.1548  0.3409  0.2544
10504TIP3    H153003   5.783   2.193  15.828 -0.8616  2.9670  2.7420
10504TIP3    H253004   5.648   2.136  15.864 -0.6385  0.4971 -0.1579
10505TIP3   OH253005   5.938   7.022   0.285 -0.0296  0.4421  0.1931
10505TIP3    H153006   5.915   7.028   0.192 -0.8574 -1.2435  0.2647
10505TIP3    H253007   5.901   7.102   0.324  0.3002  1.1423 -0.9034
10506TIP3   OH253008   0.728   6.607   1.024 -0.5169 -0.2107 -0.0381
10506TIP3    H153009   0.705   6.565   1.107  0.3464 -1.3744 -0.3817
10506TIP3    H253010   0.653   6.591   0.967 -0.6275 -0.3734  0.1513
10507TIP3   OH253011   1.321   2.410   0.056  0.0232 -0.3974  0.0503
10507TIP3    H153012   1.405   2.454   0.066  0.2114 -0.9198  0.7798
10507TIP3    H253013   1.260   2.461   0.108 -0.2863  0.4419 -1.1130
10508TIP3   OH253014   1.475   1.232   0.995  0.4288 -0.1225 -0.0465
10508TIP3    H153015   1.527   1.263   0.921  1.9643 -1.7739  0.3075
10508TIP3    H253016   1.517   1.151   1.022 -1.1609 -0.4592  1.5374
10509TIP3   OH253017   6.548   2.365  14.687 -0.2258 -0.1416  0.1813
10509TIP3    H153018   6.596   2.332  14.611 -0.3328  1.8906 -0.7814
10509TIP3    H253019   6.603   2.339  14.762  0.6058 -0.8857 -0.6651
10510TIP3   OH253020   6.623   0.261   0.228 -0.2867  0.4547  0.3791
10510TIP3    H153021   6.647   0.205   0.154 -0.9245 -0.9050  1.1711
10510TIP3    H253022   6.631   0.204   0.304  0.0403  1.7456  1.3298
10511TIP3   OH253023   3.852   1.191   0.469 -0.0495 -0.4850 -0.4064
10511TIP3    H153024   3.833   1.271   0.517  0.1613  0.9473 -2.6895
10511TIP3    H253025   3.769   1.167   0.427  0.2680 -0.6251 -0.9585
10512TIP3   OH253026   5.786   0.264   1.922 -0.1640  0.0651 -0.3538
10512TIP3    H153027   5.844   0.189   1.906  0.2810  0.5376 -0.9717
10512TIP3    H253028   5.765   0.259   2.015 -0.6521 -1.2073 -0.5254
10513TIP3   OH253029   3.409   0.729   1.108 -0.5354 -0.2418 -0.6639
10513TIP3    H153030   3.452   0.705   1.026 -0.9467 -0.5751 -0.7818
10513TIP3    H253031   3.427   0.657   1.167  1.7517  1.0685  0.2798
10514TIP3   OH253032   2.081   0.762   2.130  0.6472  0.1992 -0.0135
10514TIP3    H153033   2.138   0.713   2.073  1.8161  0.0091  1.2893
10514TIP3    H253034   2.120   0.850   2.134  0.1642  0.4212 -0.0834
10515TIP3   OH253035   1.307   0.761  15.765  0.4592  0.0227 -0.0095
10515TIP3    H153036   1.238   0.695  15.774  1.3005 -0.7939  0.4717
10515TIP3    H253037   1.279   0.814  15.690 -1.3500  0.5095  0.9652
10516TIP3   OH253038   1.659   1.861   0.967  0.3699 -0.5689 -0.0225
10516TIP3    H153039   1.715   1.907   1.030  0.9911 -0.6097 -0.5450
10516TIP3    H253040   1.649   1.774   1.004  0.9738 -0.6828 -0.1236
10517TIP3   OH253041   0.934   6.006   1.679 -0.3651 -0.2034  0.0589
10517TIP3    H153042   0.944   6.100   1.668 -0.1016 -0.2114  0.2353
10517TIP3    H253043   1.019   5.976   1.711 -0.9394 -0.2840  1.5070
10518TIP3   OH253044   1.832   0.676   3.034  0.2876  0.0718  0.4051
10518TIP3    H153045   1.765   0.613   3.008  0.4039  0.7230 -1.5254
10518TIP3    H253046   1.849   0.655   3.126  0.4978 -2.8367 -0.2500
10519TIP3   OH253047   3.393   0.549   0.018  0.0168  0.1917 -0.5987
10519TIP3    H153048   3.484   0.559  -0.007  0.5083  1.0347  1.4337
10519TIP3    H253049   3.370   0.460  -0.010  1.3088  0.1258 -1.5029
10520TIP3   OH253050   7.287   7.118   0.975 -0.3066 -0.4770 -0.0050
10520TIP3    H153051   7.286   7.023   0.961  1.3635 -0.4204 -0.5608
10520TIP3    H253052   7.355   7.150   0.916  0.9519  0.7654  2.0588
10521TIP3   OH253053   7.260   6.622   0.639 -0.3977  0.0434 -0.1825
10521TIP3    H153054   7.336   6.569   0.665 -0.1056  0.4320 -0.2447
10521TIP3    H253055   7.292   6.676   0.567 -1.2626 -1.2088 -1.5446
10522TIP3   OH253056   1.288   1.082   2.529 -0.4196  0.2517 -0.1491
10522TIP3    H153057   1.222   1.144   2.499 -0.9178 -0.5427 -0.7393
10522TIP3    H253058   1.353   1.079   2.458 -0.3906  0.1145 -0.1181
10523TIP3   OH253059   3.316   1.494  15.535 -0.0156 -0.1977  0.2520
10523TIP3    H153060   3.277   1.581  15.522 -1.6863 -0.8863  0.4714
10523TIP3    H253061   3.284   1.443  15.460  0.1641 -0.8920  0.6473
10524TIP3   OH253062   0.279   0.204  15.604  0.1787  0.3511 -1.0826
10524TIP3    H153063   0.227   0.277  15.572  0.3369  0.4480 -1.1231
10524TIP3    H253064   0.234   0.126  15.572  2.0502  0.4796 -4.2754
10525TIP3   OH253065   6.812   7.065   1.592 -0.2465  0.2035  1.4175
10525TIP3    H153066   6.880   7.043   1.528 -1.4971  1.5100 -0.4013
10525TIP3    H253067   6.860   7.078   1.674  1.5619 -0.0483  0.4355
10526TIP3   OH253068   1.064   2.704   1.510 -0.1967 -0.2709  0.3013
10526TIP3    H153069   1.038   2.699   1.602  1.2188 -2.9860  0.6285
10526TIP3    H253070   1.134   2.769   1.508 -0.4821  0.0628  1.0807
10527TIP3   OH253071   6.213   1.606   1.397 -0.1713 -0.2633  0.7138
10527TIP3    H153072   6.249   1.668   1.461 -0.2034  1.2683 -0.7221
10527TIP3    H253073   6.118   1.621   1.401 -0.2214 -0.5902  0.7374
10528TIP3   OH253074   1.576   7.130   1.331 -0.0044  0.3052  0.1523
10528TIP3    H153075   1.505   7.193   1.339 -0.5283 -0.2166 -0.3389
10528TIP3    H253076   1.599   7.107   1.421 -0.6548  0.2522  0.3044
10529TIP3   OH253077   6.704   1.934   0.223 -0.4341  0.2190 -0.6219
10529TIP3    H153078   6.772   1.911   0.287 -1.4949 -1.1093  0.0538
10529TIP3    H253079   6.632   1.968   0.276 -0.6437  0.7778 -1.2635
10530TIP3   OH253080   7.101   7.087  14.327 -0.1886 -0.4322 -0.2640
10530TIP3    H153081   7.024   7.142  14.310  0.7982  1.8617  2.3915
10530TIP3    H253082   7.165   7.116  14.262 -0.4597 -0.0411 -0.3609
10531TIP3   OH253083   6.539   7.026   2.056 -0.3248  0.7353 -0.2630
10531TIP3    H153084   6.496   7.085   1.995 -1.2139  1.0134  0.6260
10531TIP3    H253085   6.580   7.084   2.120  1.0520  0.4635 -0.8614
10532TIP3   OH253086   2.434   0.243   4.178  0.1424 -0.3265 -0.5894
10532TIP3    H153087   2.494   0.269   4.248  0.9992 -0.7116 -1.1770
10532TIP3    H253088   2.399   0.158   4.205 -1.7394  0.8515  0.7532
10533TIP3   OH253089   1.514   6.766   2.411 -0.4869  0.5650 -0.0011
10533TIP3    H153090   1.481   6.793   2.325 -0.4619 -1.1828 -0.5794
10533TIP3    H253091   1.444   6.791   2.472 -1.0084  0.7693 -0.6700
10534TIP3   OH253092   7.005   2.467   1.269  0.6671 -0.4350 -0.4907
10534TIP3    H153093   6.939   2.531   1.243 -1.8028 -2.0291  1.6500
10534TIP3    H253094   6.997   2.396   1.206  1.7948  0.2941 -1.4686
10535TIP3   OH253095   6.306   0.468   1.948  0.4482 -1.0070 -0.1719
10535TIP3    H153096   6.373   0.535   1.935 -0.0293 -0.6378 -0.6999
10535TIP3    H253097   6.266   0.456   1.863 -1.0632 -0.2789  0.4245
10536TIP3   OH253098   5.827   7.290   1.228 -0.1919 -0.2037 -0.3325
10536TIP3    H153099   5.777   7.371   1.236  2.2185  1.5511 -2.1061
10536TIP3    H253100   5.867   7.277   1.314 -1.4289 -0.1033  0.2679
10537TIP3   OH253101   1.649   6.987   1.559  0.0316  0.3635  0.1590
10537TIP3    H153102   1.599   7.020   1.633 -0.9115 -2.3804  0.7970
10537TIP3    H253103   1.736   6.970   1.594 -0.1609 -0.0648  0.4439
10538TIP3   OH253104   0.161   0.424   0.183 -0.3700 -0.2379  0.2219
10538TIP3    H153105   0.089   0.386   0.233 -0.8073  0.4578  0.1198
10538TIP3    H253106   0.121   0.448   0.099  0.7981 -3.3750 -1.3367
10539TIP3   OH253107   7.048   2.500   1.531 -0.3121  0.0247  0.1640
10539TIP3    H153108   6.969   2.543   1.565 -2.3789 -2.8180 -0.8564
10539TIP3    H253109   7.037   2.503   1.436  0.5139 -0.9238  0.0370
10540TIP3   OH253110   1.688   1.409  15.762 -0.0764  0.2634 -0.1967
10540TIP3    H153111   1.631   1.471  15.716 -0.2640 -0.2965 -0.7325
10540TIP3    H253112   1.633   1.331  15.775 -0.2533  0.6496  1.5942
10541TIP3   OH253113   6.787   0.039   3.919  0.3612  0.3737  0.5890
10541TIP3    H153114   6.825   0.104   3.979 -0.5262  0.2591  1.2798
10541TIP3    H253115   6.730  -0.015   3.975  0.6722 -0.6654 -0.0778
10542TIP3   OH253116   1.606   1.101  15.186  0.1646  0.0042 -0.2419
10542TIP3    H153117   1.548   1.177  15.195 -0.6982 -0.5551 -0.9554
10542TIP3    H253118   1.631   1.101  15.093  3.0527  1.4791  0.4877
10543TIP3   OH253119   1.193   7.051   1.211  0.4452 -0.6094 -0.3294
10543TIP3    H153120   1.280   7.014   1.219  0.0508 -1.3062  0.7984
10543TIP3    H253121   1.141   7.007   1.278  0.0379  2.2131  1.2938
10544TIP3   OH253122   0.722   3.880   0.655 -0.1344  0.0423 -0.7542
10544TIP3    H153123   0.663   3.938   0.703 -0.1826  0.0714 -0.8496
10544TIP3    H253124   0.676   3.860   0.574 -0.0358  0.0246 -0.8062
10545TIP3   OH253125   3.040   1.678   2.110  0.5744  0.0614 -0.4191
10545TIP3    H153126   3.135   1.684   2.119  0.6844 -1.4833 -0.4743
10545TIP3    H253127   3.026   1.622   2.033 -0.3859  1.2999 -1.1713
10546TIP3   OH253128   1.479   2.172   0.238  0.2490  0.8312  0.2515
10546TIP3    H153129   1.506   2.168   0.330  1.7083  0.0103 -0.1872
10546TIP3    H253130   1.529   2.246   0.202  0.0802  0.8252  0.0048
10547TIP3   OH253131   0.572   2.428   0.443  0.2213 -0.3717  0.8235
10547TIP3    H153132   0.539   2.350   0.400 -0.3700 -1.1267  2.5737
10547TIP3    H253133   0.667   2.422   0.434  0.0394  1.0630 -2.9591
10548TIP3   OH253134   7.188   1.682   1.551  0.1135  0.0155 -0.0856
10548TIP3    H153135   7.094   1.671   1.537  0.0967 -0.4274  0.3417
10548TIP3    H253136   7.212   1.606   1.605  0.5937  0.4646  0.3286
10549TIP3   OH253137   6.716   2.058   1.492  0.0145 -0.0958  0.0901
10549TIP3    H153138   6.740   2.058   1.399 -5.3960 -1.8985 -1.5008
10549TIP3    H253139   6.666   2.138   1.504  0.7485  0.1631  1.5163
10550TIP3   OH253140   0.940   6.204   0.784 -0.4911  0.7821 -0.0643
10550TIP3    H153141   0.970   6.113   0.779 -1.2942  0.4127  1.5123
10550TIP3    H253142   0.876   6.212   0.714 -1.3683 -0.2577  0.5996
10551TIP3   OH253143   1.540   6.789   3.730 -0.4041  0.2083 -0.3444
10551TIP3    H153144   1.556   6.849   3.804  1.7791  0.2967 -0.8623
10551TIP3    H253145   1.487   6.840   3.669  0.7772  1.3526 -0.4245
10552TIP3   OH253146   0.167   6.484   1.380  0.3673  0.5039  0.1499
10552TIP3    H153147   0.221   6.514   1.453  2.2589  0.6761 -1.2558
10552TIP3    H253148   0.155   6.391   1.396 -0.6902  0.8675  1.5630
10553TIP3   OH253149   5.817   0.820   0.511  0.5426  0.3886  0.5659
10553TIP3    H153150   5.785   0.878   0.580  0.2485 -0.0590  0.8080
10553TIP3    H253151   5.894   0.777   0.550  0.3659  0.1222  0.6241
10554TIP3   OH253152   6.388   5.802  14.212  0.1028 -0.1507  0.7748
10554TIP3    H153153   6.328   5.796  14.138  0.1039 -0.3242  0.7887
10554TIP3    H253154   6.461   5.855  14.180 -0.0926  0.1265  0.7824
10555TIP3   OH253155   0.795   0.812   1.614 -0.3514 -0.8150  0.0281
10555TIP3    H153156   0.806   0.900   1.649 -0.9807 -1.4028  1.7043
10555TIP3    H253157   0.874   0.797   1.562 -0.7568  1.1522 -1.2082
10556TIP3   OH253158   0.606   5.575   0.946 -0.7711 -0.1099 -0.1139
10556TIP3    H153159   0.698   5.569   0.970 -1.3838 -0.9671  2.0979
10556TIP3    H253160   0.576   5.484   0.942 -1.7388  0.1926  0.0801
10557TIP3   OH253161   7.136   0.920  15.190  0.2393  0.6134 -0.2320
10557TIP3    H153162   7.166   0.996  15.239  1.1629  0.0698  0.0634
10557TIP3    H253163   7.063   0.952  15.136  0.6383  1.6947 -0.1235
10558TIP3   OH253164   6.882   1.568  13.750  0.3107 -0.1124 -0.5077
10558TIP3    H153165   6.825   1.552  13.675  0.6373  1.9190 -1.2407
10558TIP3    H253166   6.852   1.653  13.784  0.9531 -0.4487  0.9242
10559TIP3   OH253167   6.385   0.612  15.672 -0.2003 -0.7287 -0.0598
10559TIP3    H153168   6.450   0.668  15.713 -0.1683 -0.1836 -0.8511
10559TIP3    H253169   6.415   0.602  15.582 -1.4495 -0.1043 -0.5526
10560TIP3   OH253170   1.799   6.840   1.350  0.4976 -0.1524  0.3687
10560TIP3    H153171   1.825   6.832   1.441  2.1123 -1.0946 -0.1437
10560TIP3    H253172   1.802   6.750   1.316  0.5042  0.2585 -0.7576
10561TIP3   OH253173   6.367   2.310  15.142 -0.6028  0.3203 -0.3383
10561TIP3    H153174   6.293   2.367  15.162 -0.7174 -0.1464  0.5875
10561TIP3    H253175   6.349   2.229  15.190  0.3192  0.0676 -0.4063
10562TIP3   OH253176   2.616   3.118   2.259  0.4446  0.3641  0.7363
10562TIP3    H153177   2.619   3.188   2.194 -0.1346  0.2013  0.5304
10562TIP3    H253178   2.636   3.038   2.209  2.2120  0.5180  1.1791
10563TIP3   OH253179   7.167   6.273   0.103 -0.6677  0.3577  0.5260
10563TIP3    H153180   7.181   6.221   0.024  1.0045  0.2751  0.8437
10563TIP3    H253181   7.188   6.362   0.076 -0.6748  0.4178  0.7217
10564TIP3   OH253182   7.227   4.809   3.179  0.0882  0.3432 -0.2332
10564TIP3    H153183   7.145   4.837   3.221 -0.5053  0.2266 -1.2791
10564TIP3    H253184   7.296   4.840   3.237 -0.6406  2.1413 -0.2813
10565TIP3   OH253185   5.408   2.076  15.863 -0.3537 -0.1434  0.1550
10565TIP3    H153186   5.319   2.111  15.860 -0.7618 -1.2368 -0.7119
10565TIP3    H253187   5.422   2.038  15.777  0.2320 -1.7571  0.9467
10566TIP3   OH253188   0.393   6.886   2.544 -0.1426 -0.4239  0.4101
10566TIP3    H153189   0.407   6.888   2.449  0.9906 -0.2769  0.5750
10566TIP3    H253190   0.400   6.977   2.572  1.3223 -0.6622  0.8740
10567TIP3   OH253191   5.868   0.951   3.237  0.2017 -0.2985 -0.3306
10567TIP3    H153192   5.795   1.002   3.202 -0.7897 -1.5592 -0.1132
10567TIP3    H253193   5.828   0.887   3.295  1.3155 -2.1087 -1.4854
10568TIP3   OH253194   3.340   5.654  15.560  0.5951 -0.1028 -0.2529
10568TIP3    H153195   3.251   5.689  15.555 -0.3349 -2.1648  1.3203
10568TIP3    H253196   3.343   5.587  15.493  0.0831 -1.8414  1.4089
10569TIP3   OH253197   2.390   2.795   0.895 -0.0178  0.3552  0.4453
10569TIP3    H153198   2.307   2.772   0.935 -0.3060 -0.7377 -0.7446
10569TIP3    H253199   2.368   2.866   0.834 -0.2219 -0.4344 -0.4125
10570TIP3   OH253200   3.211   0.058   2.608  0.0980  0.0352  0.1952
10570TIP3    H153201   3.242   0.145   2.582 -1.7307  1.5977  2.9653
10570TIP3    H253202   3.116   0.067   2.610 -0.2681 -2.7479 -1.7277
10571TIP3   OH253203   2.761   0.446   1.552  0.4211  0.1869  0.0931
10571TIP3    H153204   2.808   0.528   1.569 -1.5297  1.5028 -0.6700
10571TIP3    H253205   2.676   0.474   1.517  0.5261 -2.1990 -2.2264
10572TIP3   OH253206   1.742   6.947   1.021  0.1340  0.3061 -0.4044
10572TIP3    H153207   1.710   6.871   0.971 -0.2392  0.8411 -0.9932
10572TIP3    H253208   1.720   6.927   1.112 -0.9513  0.1923 -0.6770
10573TIP3   OH253209   6.745   0.597   1.194 -0.3973 -0.0068  0.1553
10573TIP3    H153210   6.777   0.607   1.284 -0.0450 -1.2703  0.1740
10573TIP3    H253211   6.822   0.572   1.144 -0.7672 -0.1261 -0.3505
10574TIP3   OH253212   2.184   1.483   1.668  0.0034 -0.0310 -0.1279
10574TIP3    H153213   2.177   1.434   1.586  2.8859 -1.2580  0.2851
10574TIP3    H253214   2.240   1.557   1.647 -0.2234  0.3087  0.4565
10575TIP3   OH253215   2.951   2.517   2.472  0.1053 -0.1068  0.9075
10575TIP3    H153216   2.871   2.552   2.512  0.5036  1.1990  0.5805
10575TIP3    H253217   2.964   2.433   2.514 -1.6379 -0.4805  0.7261
10576TIP3   OH253218   2.131   2.487   3.411  0.1855 -0.8445 -0.4285
10576TIP3    H153219   2.188   2.410   3.415  0.0997 -0.8161  2.0840
10576TIP3    H253220   2.139   2.528   3.497 -2.4665  0.0293 -0.5414
10577TIP3   OH253221   3.592   5.293  15.699 -0.2337  0.2855  0.3224
10577TIP3    H153222   3.673   5.327  15.736 -0.9807  1.3166  1.0492
10577TIP3    H253223   3.568   5.220  15.756  0.8391 -0.8441 -0.6417
10578TIP3   OH253224   4.105   0.266   0.669 -0.2958  0.2783 -0.2919
10578TIP3    H153225   4.183   0.299   0.625 -0.9599 -0.8596 -2.3565
10578TIP3    H253226   4.112   0.171   0.664 -0.6869  0.1243  1.5579
10579TIP3   OH253227   0.246   7.101  15.871  0.5681 -0.5153 -0.5716
10579TIP3    H153228   0.229   7.025  15.815  1.8374 -1.9494  0.9088
10579TIP3    H253229   0.322   7.144  15.831 -0.3902  0.1936 -1.6277
10580TIP3   OH253230   1.795   6.522  15.329  0.1604 -0.3834 -0.0389
10580TIP3    H153231   1.728   6.534  15.262  0.9708  0.5431 -0.7160
10580TIP3    H253232   1.799   6.428  15.344 -0.2476 -0.5674 -1.0747
10581TIP3   OH253233   0.545   0.247   2.091  0.1345  0.5664  0.3503
10581TIP3    H153234   0.604   0.291   2.030  0.6354 -0.6615 -0.0646
10581TIP3    H253235   0.468   0.225   2.038  0.2104  0.2457  0.3772
10582TIP3   OH253236   0.453   6.436   3.229 -0.4766 -0.2427  0.0871
10582TIP3    H153237   0.450   6.479   3.144 -1.6455  1.1523  0.8120
10582TIP3    H253238   0.386   6.368   3.224  0.6855 -1.3439 -0.7148
10583TIP3   OH253239   5.158   0.796   2.293  0.4727 -0.1144  0.2786
10583TIP3    H153240   5.250   0.786   2.318  0.2694 -2.5148  0.2404
10583TIP3    H253241   5.121   0.854   2.360  1.5680 -0.7366  1.4487
10584TIP3   OH253242   1.816   1.426   1.204 -0.8224 -0.4789 -0.5803
10584TIP3    H153243   1.767   1.343   1.208 -0.8709 -0.4031  0.6271
10584TIP3    H253244   1.894   1.410   1.257 -0.9430  0.3201 -0.1498
10585TIP3   OH253245   0.967   5.264   1.106 -0.3062  0.2280 -0.3612
10585TIP3    H153246   0.954   5.171   1.124 -0.0499  0.0204 -1.2204
10585TIP3    H253247   0.922   5.309   1.178  0.5486 -0.5732  0.6851
10586TIP3   OH253248   1.043   1.438   3.749 -0.4399  0.2455 -0.0832
10586TIP3    H153249   1.027   1.504   3.817 -1.6784  0.0197 -0.1530
10586TIP3    H253250   1.003   1.358   3.783 -0.6188  0.0044 -0.8524
10587TIP3   OH253251   1.266   6.023   0.805  0.0592 -0.0567 -0.3501
10587TIP3    H153252   1.287   6.116   0.799 -1.5199  0.3408  0.2845
10587TIP3    H253253   1.266   6.004   0.898 -1.6809 -0.2080 -0.3686
10588TIP3   OH253254   0.340   7.052   0.248  0.1893 -0.2952 -0.5895
10588TIP3    H153255   0.435   7.047   0.258  0.1653 -0.1524 -0.2835
10588TIP3    H253256   0.319   7.145   0.257  0.2218 -0.0659 -2.5738
10589TIP3   OH253257   3.794   2.647   2.297  0.1915  0.4046  0.2178
10589TIP3    H153258   3.706   2.669   2.327  0.0455 -0.7460  0.6208
10589TIP3    H253259   3.846   2.638   2.377 -0.1516 -2.4535  0.1635
10590TIP3   OH253260   6.215   7.119   2.525 -0.0007 -0.0647  0.4571
10590TIP3    H153261   6.231   7.139   2.618 -0.0912  0.2587  0.4028
10590TIP3    H253262   6.194   7.203   2.486  2.4272  0.2070 -0.3619
10591TIP3   OH253263   3.137   2.863   0.972  0.0999 -0.1159 -0.0190
10591TIP3    H153264   3.159   2.952   1.000 -1.1337 -0.1796  1.2458
10591TIP3    H253265   3.062   2.874   0.914  0.1538 -0.2929 -0.1216
10592TIP3   OH253266   2.541   7.100   1.690  0.2380 -0.8557 -0.1212
10592TIP3    H153267   2.589   7.130   1.768 -0.2567  1.0035 -0.4960
10592TIP3    H253268   2.481   7.172   1.671 -1.6956 -2.5349 -0.5063
10593TIP3   OH253269   3.293   7.045  14.205 -0.2025  0.5224  0.8429
10593TIP3    H153270   3.199   7.039  14.222 -0.6350  0.7175 -1.2844
10593TIP3    H253271   3.333   7.056  14.291 -2.0648 -0.3293  1.8393
10594TIP3   OH253272   3.543   0.900   2.513  0.4115  0.7356 -0.0195
10594TIP3    H153273   3.574   0.908   2.423 -0.1731 -1.5027 -0.4490
10594TIP3    H253274   3.449   0.917   2.508  0.5688  1.7801  0.3755
10595TIP3   OH253275   2.825   2.573  15.682  0.2176 -0.1570  0.5524
10595TIP3    H153276   2.750   2.610  15.636  0.9026  0.9285  0.2739
10595TIP3    H253277   2.851   2.640  15.744 -0.1906 -1.2916  1.9742
10596TIP3   OH253278   4.891   1.662   1.545 -0.3278 -0.1278 -0.0175
10596TIP3    H153279   4.927   1.721   1.610  0.5591 -2.1561  1.4009
10596TIP3    H253280   4.816   1.708   1.508  1.5528  2.6855 -0.4293
10597TIP3   OH253281   3.454   3.950   0.276  0.0960 -0.0362  0.2758
10597TIP3    H153282   3.421   4.021   0.331  1.7010  0.5786  0.4678
10597TIP3    H253283   3.549   3.954   0.286  0.4220  0.0479 -2.4688
10598TIP3   OH253284   3.998   2.599   1.348 -0.0560  0.2625  0.6116
10598TIP3    H153285   4.002   2.503   1.354  0.3849  0.2569  0.1875
10598TIP3    H253286   4.019   2.629   1.436  1.2684  0.0088  0.3965
10599TIP3   OH253287   3.187   1.380   0.030 -0.4230  0.1259 -0.2273
10599TIP3    H153288   3.260   1.327   0.061 -0.6712 -0.0356  0.0817
10599TIP3    H253289   3.192   1.375  -0.066 -0.4000 -0.3873 -0.1975
10600TIP3   OH253290   3.652   0.968  15.870 -0.2971 -0.2186  0.0793
10600TIP3    H153291   3.726   1.027  15.861  0.1126 -0.2848  2.7343
10600TIP3    H253292   3.686   0.883  15.843  0.3983 -0.1070  0.5892
10601TIP3   OH253293   1.659   6.512   1.642  0.4046  0.2421  0.5512
10601TIP3    H153294   1.708   6.430   1.645 -1.5808 -0.9577  0.9833
10601TIP3    H253295   1.619   6.513   1.554 -0.5834  0.1314  0.9921
10602TIP3   OH253296   3.021   6.596   0.759 -0.3496  0.0070  0.1422
10602TIP3    H153297   2.995   6.590   0.851  0.5625  1.2873  0.5005
10602TIP3    H253298   3.054   6.686   0.750 -0.5136 -0.0939 -1.4502
10603TIP3   OH253299   1.055   4.734   2.418  0.8421 -0.8323  0.2206
10603TIP3    H153300   1.048   4.688   2.501  1.0230 -0.3830  0.4849
10603TIP3    H253301   0.964   4.744   2.388  0.5855  1.1048  1.5225
10604TIP3   OH253302   4.271   3.396   0.417  0.5322  0.1972  0.1251
10604TIP3    H153303   4.217   3.462   0.462  1.5182  0.9128  0.2678
10604TIP3    H253304   4.349   3.388   0.472 -1.4114 -4.2083  2.4385
10605TIP3   OH253305   4.121   2.835   0.579 -0.1755 -0.5485 -0.2870
10605TIP3    H153306   4.135   2.776   0.504 -0.6523 -1.8343  0.6091
10605TIP3    H253307   4.100   2.776   0.651 -0.4016  0.7304  0.7000
10606TIP3   OH253308   2.712   1.352   1.243  0.5341 -0.1502  0.0891
10606TIP3    H153309   2.733   1.286   1.309  1.7903 -1.3844 -1.4691
10606TIP3    H253310   2.797   1.390   1.219 -0.3202  3.1936  2.0759
10607TIP3   OH253311   3.026   2.491   1.260 -0.1027  0.0097  0.3874
10607TIP3    H153312   3.070   2.524   1.182  0.5166 -1.7301 -0.0308
10607TIP3    H253313   2.951   2.442   1.227  0.2335 -0.8435  0.8737
10608TIP3   OH253314   1.809   7.209   3.206  0.0561  0.3555 -0.2222
10608TIP3    H153315   1.730   7.246   3.245 -0.9596 -2.8542  0.8711
10608TIP3    H253316   1.878   7.227   3.271 -0.0688  1.6974 -0.4368
10609TIP3   OH253317   2.746   3.026   3.345 -0.2259  0.1835  0.2364
10609TIP3    H153318   2.762   2.956   3.409  0.0418  2.2399  2.5209
10609TIP3    H253319   2.833   3.062   3.327 -0.4321  0.3603 -0.4077
10610TIP3   OH253320   3.206   0.445   1.466  0.6739 -0.3481 -0.1619
10610TIP3    H153321   3.255   0.363   1.463 -1.5916 -1.7059 -0.9296
10610TIP3    H253322   3.186   0.457   1.559  1.0734 -0.6228 -0.0368
10611TIP3   OH253323   5.180   0.384   1.042 -0.1328  0.4327  0.2440
10611TIP3    H153324   5.157   0.291   1.038  0.8680  0.2377 -1.5130
10611TIP3    H253325   5.182   0.404   1.136 -0.9833 -1.1495  0.6177
10612TIP3   OH253326   2.980   1.170   0.224 -0.2354  0.5887 -0.2743
10612TIP3    H153327   3.074   1.191   0.229 -0.1083 -0.1121  0.3147
10612TIP3    H253328   2.973   1.104   0.155 -0.1514 -0.1343  0.3992
10613TIP3   OH253329   5.580   1.006   0.046  0.5368 -0.3969  0.6751
10613TIP3    H153330   5.542   1.085   0.007 -0.6807 -0.0344  2.5510
10613TIP3    H253331   5.603   0.951  -0.029  1.1138  1.5968 -0.6359
10614TIP3   OH253332   2.811   1.517   0.967  0.7039 -0.6344  0.1900
10614TIP3    H153333   2.883   1.504   0.904  1.2340 -0.5183  0.7654
10614TIP3    H253334   2.778   1.604   0.946  2.1002  0.1816  1.2744
10615TIP3   OH253335   0.339   7.031   2.822 -0.5579  0.3499 -0.5802
10615TIP3    H153336   0.269   6.975   2.855  0.1409 -1.6663 -2.4138
10615TIP3    H253337   0.396   6.972   2.772  2.2012  2.0135  0.4501
10616TIP3   OH253338   5.311   0.795   2.855 -0.4926 -0.1435 -0.8493
10616TIP3    H153339   5.294   0.874   2.804  1.1180  0.8451  0.0912
10616TIP3    H253340   5.225   0.761   2.877 -1.2075  1.3771 -1.2504
10617TIP3   OH253341   2.241   1.535   0.077  0.2095 -0.3010  0.3495
10617TIP3    H153342   2.301   1.610   0.069  0.8588 -0.7705  0.7985
10617TIP3    H253343   2.166   1.570   0.125 -0.0972  0.4185 -0.6429
10618TIP3   OH253344   3.827   1.766   1.385 -0.1102  0.0791  0.0276
10618TIP3    H153345   3.821   1.701   1.316  0.3385  0.1802 -0.1069
10618TIP3    H253346   3.737   1.779   1.414 -0.5147  1.2669 -1.6974
10619TIP3   OH253347   3.875   0.674   1.602 -0.3918 -0.2912  0.8733
10619TIP3    H153348   3.931   0.738   1.646  0.4578 -0.4444  0.0127
10619TIP3    H253349   3.811   0.726   1.555  0.3773 -0.0708  0.0713
10620TIP3   OH253350   2.461   2.210   0.635 -0.9904  0.4473  0.1050
10620TIP3    H153351   2.375   2.218   0.675 -1.4443  0.2198 -0.8147
10620TIP3    H253352   2.484   2.117   0.646 -0.5002  0.6837  1.0842
10621TIP3   OH253353   0.728   6.970   1.518 -0.5326  0.1242 -0.3706
10621TIP3    H153354   0.813   7.001   1.485 -0.2303 -0.0783  0.2269
10621TIP3    H253355   0.696   7.042   1.573 -0.3892 -0.1257  0.0377
10622TIP3   OH253356   4.216   7.013   2.508  0.0031  0.0512 -0.4434
10622TIP3    H153357   4.200   6.929   2.550  1.5684 -0.6160 -1.1507
10622TIP3    H253358   4.133   7.035   2.465 -1.2615  0.1952  1.9950
10623TIP3   OH253359   3.296   1.733   2.148 -0.2340  0.1636  0.0324
10623TIP3    H153360   3.328   1.642   2.147  2.4639  1.0857 -1.2346
10623TIP3    H253361   3.375   1.786   2.135 -1.7503  2.7179  1.0037
10624TIP3   OH253362   1.156   5.382   3.022  0.2879 -0.3347 -0.0446
10624TIP3    H153363   1.207   5.435   3.084 -1.0975  2.3409 -1.0820
10624TIP3    H253364   1.066   5.385   3.056  0.2227 -2.2722  0.0016
10625TIP3   OH253365   1.951   6.189   2.506 -0.3940  0.8230  0.7772
10625TIP3    H153366   2.019   6.166   2.443 -0.2102 -0.1799  1.3281
10625TIP3    H253367   1.896   6.111   2.512 -2.3932  2.0712 -0.6461
10626TIP3   OH253368   1.882   4.957   0.660  0.0091 -0.3771 -0.0917
10626TIP3    H153369   1.860   5.049   0.675  0.1127 -0.1405 -1.2877
10626TIP3    H253370   1.905   4.953   0.567 -0.5171 -1.7105 -0.1777
10627TIP3   OH253371   5.714   1.112  15.646  0.1211 -0.0575 -0.0843
10627TIP3    H153372   5.808   1.108  15.663  0.2876 -2.5512 -1.4327
10627TIP3    H253373   5.705   1.179  15.579  1.0326 -0.3677 -0.5264
10628TIP3   OH253374   2.894   1.448   0.372  0.4880 -0.4521 -0.3260
10628TIP3    H153375   2.824   1.462   0.436  0.2139 -1.5092 -0.3750
10628TIP3    H253376   2.848   1.436   0.289  0.8397  0.8450 -0.7245
10629TIP3   OH253377   3.237   1.069   3.181  0.3958 -0.1325 -0.3182
10629TIP3    H153378   3.305   1.114   3.130  0.6302  0.0201  0.1160
10629TIP3    H253379   3.249   1.104   3.270 -0.5149  0.1901 -0.3221
10630TIP3   OH253380   1.601   1.885   1.321  0.2761  1.1796 -0.5829
10630TIP3    H153381   1.521   1.935   1.306 -0.7239 -0.1196  0.3226
10630TIP3    H253382   1.575   1.793   1.310  2.3134  0.8478 -3.2998
10631TIP3   OH253383   2.697   6.762  15.268  0.1093  0.2843 -0.0325
10631TIP3    H153384   2.681   6.835  15.208  2.0996  0.9858  0.2370
10631TIP3    H253385   2.784   6.729  15.243  0.5929  0.0458  1.9041
10632TIP3   OH253386   3.727   5.833   0.952  0.3197  0.8328  0.0092
10632TIP3    H153387   3.680   5.821   0.870 -2.1186 -1.6915  1.7101
10632TIP3    H253388   3.820   5.829   0.928 -0.3504  1.0228 -2.7054
10633TIP3   OH253389   1.037   2.614   1.775 -0.5727 -0.3073  0.9104
10633TIP3    H153390   1.103   2.641   1.839  1.1295 -0.9234 -0.5332
10633TIP3    H253391   1.050   2.520   1.766 -1.1916 -0.3169  0.0987
10634TIP3   OH253392   2.469   0.865   0.788  0.4528  0.5021 -0.1415
10634TIP3    H153393   2.406   0.842   0.857  1.6281  0.0723  0.7875
10634TIP3    H253394   2.417   0.916   0.726 -0.7194  0.5638  0.8593
10635TIP3   OH253395   2.645   1.122  13.648  0.0213  0.0493  0.6471
10635TIP3    H153396   2.660   1.107  13.555 -0.4940  0.0914  0.5614
10635TIP3    H253397   2.601   1.043  13.679  3.1628 -1.4253  1.5557
10636TIP3   OH253398   3.433   4.778   3.053 -0.3449 -0.1431 -0.1780
10636TIP3    H153399   3.424   4.794   3.147 -0.2260  0.9422 -0.3476
10636TIP3    H253400   3.499   4.841   3.024  0.8054 -1.5451 -0.7038
10637TIP3   OH253401   2.243   1.362  15.591  0.0849  0.4395 -0.0055
10637TIP3    H153402   2.330   1.391  15.564  1.7302 -3.0631  1.2301
10637TIP3    H253403   2.184   1.406  15.530  2.5621  3.8711 -0.1116
10638TIP3   OH253404   4.467   6.768   0.589  0.0906  0.3485  0.2969
10638TIP3    H153405   4.457   6.802   0.678 -3.3364 -0.4950  0.3013
10638TIP3    H253406   4.517   6.688   0.600  0.7539  0.8900  1.3172
10639TIP3   OH253407   2.925   6.599   1.039 -0.1688  0.7630 -0.2160
10639TIP3    H153408   2.886   6.683   1.063 -0.2696  1.3626 -2.3744
10639TIP3    H253409   2.852   6.537   1.042 -0.0163  0.6321  1.7739
10640TIP3   OH253410   4.279   1.120  15.470  0.7185  0.0380  0.1686
10640TIP3    H153411   4.227   1.164  15.537  2.8798  0.3122  1.7118
10640TIP3    H253412   4.326   1.051  15.517  0.2869 -1.4850 -1.5525
10641TIP3   OH253413   3.169   0.022   3.565  0.0429  0.4271  0.1029
10641TIP3    H153414   3.101  -0.046   3.556  1.3056 -0.9026  0.4561
10641TIP3    H253415   3.230   0.005   3.493  1.8195 -0.5214  1.7955
10642TIP3   OH253416   1.952   5.740   2.118 -0.0494  0.1862  0.7784
10642TIP3    H153417   1.918   5.670   2.062  1.6387 -0.7726  0.9018
10642TIP3    H253418   1.929   5.712   2.207  1.1438 -0.5403  0.8736
10643TIP3   OH253419   2.188   1.591   3.725 -0.7485 -0.0158  0.1620
10643TIP3    H153420   2.209   1.615   3.635  2.2062 -0.6572  0.6198
10643TIP3    H253421   2.158   1.673   3.765  0.2651  0.8336 -0.7778
10644TIP3   OH253422   0.800   3.269   1.590  0.6314  1.0853  0.4742
10644TIP3    H153423   0.736   3.234   1.652  0.9443 -1.8511 -0.7890
10644TIP3    H253424   0.884   3.232   1.618  0.9178  0.5130 -1.0945
10645TIP3   OH253425   0.467   7.271   3.446 -0.0334  0.5425  0.1489
10645TIP3    H153426   0.430   7.193   3.403 -1.6321  2.4525 -2.0451
10645TIP3    H253427   0.555   7.278   3.410  0.3757 -0.6394  0.8854
10646TIP3   OH253428   5.386   1.349   1.824 -0.1747  0.0562  0.6270
10646TIP3    H153429   5.460   1.310   1.776  0.6940  0.4513  1.6145
10646TIP3    H253430   5.427   1.395   1.897 -1.1876  2.6717 -0.3941
10647TIP3   OH253431   1.456   4.781   1.840  0.2653 -0.0078  0.5157
10647TIP3    H153432   1.406   4.700   1.845  1.7826 -1.0000 -0.0026
10647TIP3    H253433   1.458   4.813   1.931  3.0275 -2.6718  1.4887
10648TIP3   OH253434   2.198   5.336   1.432 -0.1421 -0.0079 -0.5377
10648TIP3    H153435   2.255   5.267   1.464 -2.0714 -1.3789  0.0525
10648TIP3    H253436   2.236   5.417   1.467  2.7992 -0.6050 -2.2048
10649TIP3   OH253437   0.869   0.117   1.847 -0.4037 -0.3834  0.1930
10649TIP3    H153438   0.791   0.169   1.828  0.2499  1.0840  1.4932
10649TIP3    H253439   0.853   0.034   1.802 -2.2530  0.2697 -0.4095
10650TIP3   OH253440   3.127   7.023   1.127 -0.4845 -0.1544  0.1496
10650TIP3    H153441   3.148   6.943   1.079  1.7445 -0.1509  1.0697
10650TIP3    H253442   3.073   6.994   1.200 -0.2116 -0.7371  0.1217
10651TIP3   OH253443   1.135   0.129   0.777 -0.4746  0.1311 -1.2463
10651TIP3    H153444   1.185   0.132   0.858 -1.2583  3.4063 -0.8093
10651TIP3    H253445   1.099   0.041   0.774  0.2427 -0.3039  1.5415
10652TIP3   OH253446   3.231   2.678   0.716  0.2419 -0.4795  0.9040
10652TIP3    H153447   3.187   2.708   0.795  1.1423 -0.7224  1.5109
10652TIP3    H253448   3.189   2.595   0.694 -0.7857  0.1521  0.4675
10653TIP3   OH253449   2.635   0.606   2.793 -0.0235  0.0094  0.3588
10653TIP3    H153450   2.557   0.644   2.834 -0.5889 -0.3921 -0.3435
10653TIP3    H253451   2.605   0.576   2.708  0.9315 -0.0493  0.0416
10654TIP3   OH253452   0.209   0.613   1.721 -0.8890 -0.9561 -0.0155
10654TIP3    H153453   0.219   0.566   1.638 -0.2251 -1.1672  0.1756
10654TIP3    H253454   0.297   0.610   1.760 -0.1611  2.5723 -1.1537
10655TIP3   OH253455   3.024   1.689  15.828  0.4984 -0.4526  0.0884
10655TIP3    H153456   3.117   1.669  15.826  0.3679 -1.0653 -0.0100
10655TIP3    H253457   2.986   1.619  15.881 -0.0502 -0.7999 -0.7570
10656TIP3   OH253458   5.991   2.182   3.774  0.2456  0.3508  0.6432
10656TIP3    H153459   5.948   2.102   3.803 -1.6041  0.2100 -2.3534
10656TIP3    H253460   5.986   2.240   3.850  0.0439 -1.7385  2.2611
10657TIP3   OH253461   2.441   7.340   4.920  0.1604 -0.6600 -0.3320
10657TIP3    H153462   2.416   7.431   4.902 -0.1623 -0.6768  0.0292
10657TIP3    H253463   2.494   7.315   4.845  0.6329 -0.0197 -0.2204
10658TIP3   OH253464   1.646   1.262   1.402  0.7110 -0.0656 -0.4929
10658TIP3    H153465   1.555   1.274   1.375  0.4170  0.5540  0.7310
10658TIP3    H253466   1.661   1.331   1.467  1.4273 -1.4809  0.8606
10659TIP3   OH253467   3.581   1.105   0.653 -0.2209  1.0737  0.3208
10659TIP3    H153468   3.499   1.154   0.652  0.7763  2.8312  1.0019
10659TIP3    H253469   3.621   1.124   0.568 -0.8290 -0.3478 -0.2932
10660TIP3   OH253470   4.767   0.283   2.202 -0.5360  0.4926  0.0801
10660TIP3    H153471   4.767   0.228   2.281 -2.2029  0.1633 -0.1287
10660TIP3    H253472   4.726   0.229   2.135  2.3064  0.1859 -1.4721
10661TIP3   OH253473   3.733   2.385   2.051 -0.0505 -0.6220  0.1090
10661TIP3    H153474   3.665   2.327   2.086 -0.1176 -0.6783 -0.1198
10661TIP3    H253475   3.785   2.410   2.128 -1.0158  0.3173  0.4779
10662TIP3   OH253476   2.111   6.510   2.917 -0.5616  0.4232 -0.1594
10662TIP3    H153477   2.073   6.435   2.962  0.3844  0.0083 -0.0250
10662TIP3    H253478   2.133   6.478   2.829  3.0289 -0.5172  0.9754
10663TIP3   OH253479   1.926   7.035   0.809  0.5895  0.0981 -0.8466
10663TIP3    H153480   1.861   7.104   0.794  1.3365  0.9448 -0.1855
10663TIP3    H253481   1.876   6.954   0.800 -0.2098  0.7130 -2.0207
10664TIP3   OH253482   3.904   2.150   1.921 -0.2118  0.0309  0.2704
10664TIP3    H153483   3.836   2.118   1.862  0.2866  0.2713 -0.4468
10664TIP3    H253484   3.920   2.240   1.893 -0.0841  0.1972  0.8765
10665TIP3   OH253485   3.257   1.243   2.745 -0.1063 -0.1591 -0.0814
10665TIP3    H153486   3.183   1.214   2.693  0.6723 -0.4137 -1.0606
10665TIP3    H253487   3.281   1.328   2.708  0.8471 -0.6279 -0.5707
10666TIP3   OH253488   2.203   2.588   1.240 -0.4143  0.2747 -0.6141
10666TIP3    H153489   2.277   2.609   1.297 -0.7882 -0.1518  0.0290
10666TIP3    H253490   2.129   2.575   1.300 -0.3475 -2.2163 -1.0433
10667TIP3   OH253491   3.360   1.892  15.871  0.1823  0.4381  0.5719
10667TIP3    H153492   3.323   1.958  15.813  1.8581  0.0577 -0.9551
10667TIP3    H253493   3.355   1.932  15.958  0.5288  2.2896 -0.2320
10668TIP3   OH253494   3.340   1.008   1.626  0.0413  0.4365  0.0420
10668TIP3    H153495   3.432   1.011   1.651 -0.2087 -0.5315  1.1074
10668TIP3    H253496   3.293   1.042   1.703 -0.5082  0.7197 -0.4113
10669TIP3   OH253497   0.598   6.477   0.784  0.3401  0.5467  0.1602
10669TIP3    H153498   0.589   6.398   0.837  0.0632  0.5242  0.0780
10669TIP3    H253499   0.553   6.457   0.702 -1.3784  1.4439  0.8475
10670TIP3   OH253500   1.876   1.698   1.882 -0.3168 -0.0272 -0.1883
10670TIP3    H153501   1.834   1.668   1.963 -0.1803 -0.4546 -0.2710
10670TIP3    H253502   1.892   1.617   1.833 -0.3159  0.2235 -0.6004
10671TIP3   OH253503   3.315   1.483  12.903  0.4600 -0.5108  0.3051
10671TIP3    H153504   3.227   1.444  12.897  0.6185 -0.6246 -1.7124
10671TIP3    H253505   3.300   1.576  12.885  0.4892 -0.1400  2.0984
10672TIP3   OH253506   6.631   0.403   1.883 -0.4770  0.4729 -0.2273
10672TIP3    H153507   6.579   0.480   1.905 -0.4470  0.2635  0.6006
10672TIP3    H253508   6.582   0.359   1.813 -1.1019  0.6033  0.1269
10673TIP3   OH253509   3.175   6.873   3.190  0.6285 -0.0216 -0.4536
10673TIP3    H153510   3.188   6.779   3.185 -0.2384 -0.1640 -0.2172
10673TIP3    H253511   3.229   6.910   3.121 -0.8344 -0.8672 -2.0675
10674TIP3   OH253512   6.471   1.201  15.687 -0.2638  0.5630 -0.4849
10674TIP3    H153513   6.403   1.151  15.732 -0.8548 -0.1463 -2.1246
10674TIP3    H253514   6.538   1.135  15.665 -0.0148  0.8861 -0.7030
10675TIP3   OH253515   1.372   1.267  15.643  0.1622  0.2695  0.0316
10675TIP3    H153516   1.297   1.213  15.668 -0.9288  1.4171 -0.7428
10675TIP3    H253517   1.365   1.346  15.696  0.3566  0.7423 -0.6354
10676TIP3   OH253518   0.783   6.593   0.165 -0.5301 -0.6298  0.0642
10676TIP3    H153519   0.868   6.626   0.193  0.0132 -0.7837 -1.4036
10676TIP3    H253520   0.741   6.564   0.247  1.5683 -2.3006  0.5838
10677TIP3   OH253521   2.420   1.785   2.117  0.1621 -0.5408 -0.5516
10677TIP3    H153522   2.411   1.698   2.156  2.2990 -1.1482 -1.3475
10677TIP3    H253523   2.458   1.769   2.030 -0.1544  1.1342 -1.0190
10678TIP3   OH253524   4.800   5.443  15.474 -0.0690 -0.2591 -0.2632
10678TIP3    H153525   4.809   5.516  15.413  1.2065  0.7902  1.1750
10678TIP3    H253526   4.709   5.414  15.463  0.1217 -0.0401 -2.5907
10679TIP3   OH253527   3.022   2.292   1.447  0.3298  0.3579  0.6262
10679TIP3    H153528   2.942   2.315   1.494 -1.5370 -1.9838 -1.2696
10679TIP3    H253529   3.021   2.346   1.369 -0.2659 -0.8303 -0.2009
10680TIP3   OH253530   2.926   6.174   0.046  0.2561 -0.1239 -0.4938
10680TIP3    H153531   2.858   6.230   0.010  1.1628  0.1893 -1.7471
10680TIP3    H253532   3.007   6.204   0.004  0.7527 -2.4183 -1.2442
10681TIP3   OH253533   3.250   6.576   4.691 -0.4981  0.7030  0.0525
10681TIP3    H153534   3.186   6.548   4.625 -0.4804 -2.0332  1.1261
10681TIP3    H253535   3.305   6.639   4.645 -1.7655  0.4134 -1.9412
10682TIP3   OH253536   1.307   6.589   1.685  0.2270 -0.3863 -0.3471
10682TIP3    H153537   1.383   6.635   1.650  0.7702  0.1202  1.4620
10682TIP3    H253538   1.286   6.524   1.618  3.5910 -2.0211  0.0774
10683TIP3   OH253539   2.599   2.236   1.287 -0.7953  0.2172  0.4264
10683TIP3    H153540   2.637   2.225   1.375  0.0850 -2.3221 -0.2382
10683TIP3    H253541   2.505   2.238   1.302 -0.6474 -0.0795  1.4308
10684TIP3   OH253542   3.339   0.866   0.792  0.7200  0.6182 -0.0169
10684TIP3    H153543   3.386   0.784   0.778  1.3658  0.7664  1.2533
10684TIP3    H253544   3.322   0.899   0.704  1.3833 -0.3551 -0.5171
10685TIP3   OH253545   3.534   2.963   0.737  0.1376 -0.1748  0.0635
10685TIP3    H153546   3.508   2.921   0.819 -1.4812 -0.4577 -0.5860
10685TIP3    H253547   3.579   3.042   0.765  0.5004 -0.7715  1.2443
10686TIP3   OH253548   3.142   0.861  15.862  1.0920  0.2427 -0.0971
10686TIP3    H153549   3.209   0.830  15.802  0.9903 -1.1847  0.4964
10686TIP3    H253550   3.162   0.818  15.945  2.0431  3.2506  1.3002
10687TIP3   OH253551   0.098   1.273   0.070  0.2144 -0.6868  0.8184
10687TIP3    H153552   0.096   1.323  -0.011  0.8349 -0.0184  1.2169
10687TIP3    H253553   0.005   1.256   0.090  0.0315 -0.2032  0.3797
10688TIP3   OH253554   2.206   6.635   0.483  0.7629  0.0655  0.0545
10688TIP3    H153555   2.111   6.640   0.469  0.6177 -3.0615 -0.3315
10688TIP3    H253556   2.243   6.693   0.417 -0.7330 -1.5321 -2.2488
10689TIP3   OH253557   2.194   0.512   0.069 -0.8021 -0.1488 -0.2178
10689TIP3    H153558   2.135   0.544   0.137  0.4464 -0.2462  0.9200
10689TIP3    H253559   2.280   0.547   0.093 -0.2250 -0.7663 -1.3547
10690TIP3   OH253560   2.866   2.390   4.548  0.2905 -0.1664 -0.2257
10690TIP3    H153561   2.915   2.343   4.481  0.9412 -1.0501  0.8449
10690TIP3    H253562   2.775   2.363   4.535  0.4409 -0.4866 -0.6190
10691TIP3   OH253563   1.931   1.852   0.719  0.3451 -0.4702  0.0656
10691TIP3    H153564   1.984   1.869   0.642  0.4824  0.4996  0.3742
10691TIP3    H253565   1.849   1.899   0.703  1.0009  1.0968  1.2318
10692TIP3   OH253566   6.623   6.341   1.232 -0.3533  0.0607 -0.0435
10692TIP3    H153567   6.574   6.419   1.258  1.0871  0.7241  0.7604
10692TIP3    H253568   6.691   6.333   1.299  0.0764 -1.3604 -0.6397
10693TIP3   OH253569   1.838   6.730   3.585  0.8394 -0.7888  0.1319
10693TIP3    H153570   1.838   6.825   3.601  2.5735 -0.8756  0.7219
10693TIP3    H253571   1.895   6.718   3.510 -0.9880 -1.1949 -1.2302
10694TIP3   OH253572   3.071   1.298  15.436 -0.3156  0.3573  0.2050
10694TIP3    H153573   3.136   1.332  15.374  1.8340 -0.6243  1.8619
10694TIP3    H253574   3.055   1.371  15.496  0.2332  0.1945  0.5537
10695TIP3   OH253575   2.807   6.764   1.246 -0.3634  0.2140  0.5812
10695TIP3    H153576   2.790   6.715   1.327  0.0776  0.0747  0.5911
10695TIP3    H253577   2.788   6.855   1.269  0.3260  0.2527  1.0125
10696TIP3   OH253578   3.424   0.802   0.143 -0.1768  0.7783 -0.4483
10696TIP3    H153579   3.491   0.866   0.120  0.1985  0.0846 -1.3063
10696TIP3    H253580   3.401   0.760   0.060 -1.2750  0.6146 -0.0778
10697TIP3   OH253581   2.589   2.791   1.302  0.6082  0.2711 -0.1950
10697TIP3    H153582   2.536   2.712   1.306 -0.4389  0.9442 -0.6294
10697TIP3    H253583   2.574   2.826   1.214 -1.7570  2.8428  1.1370
10698TIP3   OH253584   3.666   2.286   1.486  0.2538 -0.3563  0.0660
10698TIP3    H153585   3.673   2.228   1.411  0.8506 -2.4642  1.7064
10698TIP3    H253586   3.582   2.265   1.525 -0.6644  1.6901 -0.7658
10699TIP3   OH253587   3.875   1.327   1.836  0.0064  0.6129 -0.6132
10699TIP3    H153588   3.889   1.279   1.918  0.2858  2.1057  0.2397
10699TIP3    H253589   3.820   1.270   1.784  0.9263 -0.9469  0.0832
10700TIP3   OH253590   5.125   1.572   1.049 -0.4431 -0.2049 -0.2700
10700TIP3    H153591   5.161   1.602   0.966 -1.3864 -2.2257 -1.4347
10700TIP3    H253592   5.195   1.521   1.089 -1.0849 -1.9935 -1.3667
10701TIP3   OH253593   2.971   2.253   2.577 -0.8049 -0.0189  0.0322
10701TIP3    H153594   2.954   2.162   2.552 -0.1833 -0.6434  1.8136
10701TIP3    H253595   2.943   2.258   2.668 -1.5793  1.8035 -0.2826
10702TIP3   OH253596   2.021   3.381   2.259 -0.4425  0.2895  0.5722
10702TIP3    H153597   2.009   3.286   2.256  1.5928  0.0275  0.1854
10702TIP3    H253598   2.006   3.404   2.350 -0.5691 -0.4471  0.7432
10703TIP3   OH253599   1.569   6.903   5.034 -0.0681  0.1275  0.1725
10703TIP3    H153600   1.497   6.865   5.083 -0.7115  0.3645 -0.5842
10703TIP3    H253601   1.602   6.831   4.980  0.6746 -0.1474  0.9857
10704TIP3   OH253602   2.879   0.904   0.922 -0.1355  0.3577 -0.0545
10704TIP3    H153603   2.851   0.818   0.955 -3.8027  0.7171 -1.9141
10704TIP3    H253604   2.964   0.919   0.962  0.0808 -3.6492  1.2181
10705TIP3   OH253605   1.576   6.581   3.544  0.3816 -0.0842 -0.0555
10705TIP3    H153606   1.590   6.567   3.638 -1.3174  1.2955  0.4338
10705TIP3    H253607   1.592   6.674   3.531  0.3067 -0.2077 -1.0856
10706TIP3   OH253608   4.087   1.094   0.510 -0.2852  0.0687 -0.3204
10706TIP3    H153609   4.006   1.129   0.475 -0.5902  1.7559  1.9433
10706TIP3    H253610   4.060   1.030   0.577  0.2473 -0.2904 -0.4414
10707TIP3   OH253611   2.357   0.287   3.251 -0.3176  0.0966  0.0703
10707TIP3    H153612   2.427   0.340   3.212 -0.0884 -0.8359 -0.8171
10707TIP3    H253613   2.293   0.351   3.281 -0.1037  0.8841 -1.0964
10708TIP3   OH253614   3.751   0.439   0.358  0.0659 -0.0424  0.3298
10708TIP3    H153615   3.789   0.474   0.277  0.5377 -0.1316  0.5170
10708TIP3    H253616   3.663   0.410   0.331 -0.3436  1.2892  0.1756
10709TIP3   OH253617   1.444   7.163   2.279  0.1922  0.4221 -0.3285
10709TIP3    H153618   1.483   7.097   2.220  0.0405  1.6163 -1.7967
10709TIP3    H253619   1.519   7.203   2.322  0.3294 -0.2263  0.0418
10710TIP3   OH253620   1.859   0.377   4.308 -0.6484 -0.4117 -0.0411
10710TIP3    H153621   1.933   0.430   4.279 -0.6326 -0.3758  0.0664
10710TIP3    H253622   1.834   0.327   4.230  0.8505 -2.0336  0.4799
10711TIP3   OH253623   2.339   2.389   0.984  0.4991 -0.5781  0.3519
10711TIP3    H153624   2.256   2.343   0.971 -0.1722  0.8378 -0.4859
10711TIP3    H253625   2.374   2.352   1.065 -0.8766 -1.3035  0.6362
10712TIP3   OH253626   1.986   0.183   4.100 -0.3392 -0.5455  0.3153
10712TIP3    H153627   2.062   0.194   4.157 -0.9112  1.2236  0.7892
10712TIP3    H253628   1.963   0.090   4.107  1.8514 -1.1165  0.0391
10713TIP3   OH253629   2.018   5.623   0.436  0.0363  0.1362  0.5157
10713TIP3    H153630   1.981   5.712   0.430 -0.6763 -0.2002 -0.1705
10713TIP3    H253631   2.084   5.630   0.504  0.3911  1.3422  0.0734
10714TIP3   OH253632   7.114   0.986   0.445  1.4503  0.0916  0.1779
10714TIP3    H153633   7.031   1.019   0.478  0.7547 -1.8003  0.4007
10714TIP3    H253634   7.153   0.940   0.519  1.4839 -1.2203 -0.6400
10715TIP3   OH253635   1.641   6.005   0.275 -0.6781  0.4673 -0.2813
10715TIP3    H153636   1.590   6.042   0.347 -1.7772 -0.9245 -0.3267
10715TIP3    H253637   1.661   6.080   0.219 -0.9465  1.3490  0.7902
10716TIP3   OH253638   2.014   6.956   1.087  0.4575 -0.6134 -0.0499
10716TIP3    H153639   1.994   7.014   1.161  0.2362 -0.3877 -0.2835
10716TIP3    H253640   1.932   6.954   1.036  0.8700 -0.0951 -0.7454
10717TIP3   OH253641   0.978   7.106   3.021  0.6406  0.2005 -0.4440
10717TIP3    H153642   0.923   7.033   2.994 -1.0589  1.9851 -1.9017
10717TIP3    H253643   1.067   7.080   2.995  0.3413 -2.1623  0.8174
10718TIP3   OH253644   2.586   0.135   2.163 -0.4367 -0.0397 -0.6882
10718TIP3    H153645   2.608   0.051   2.203 -0.7912 -1.5012 -3.4416
10718TIP3    H253646   2.670   0.172   2.136 -0.3607  0.1097 -0.2592
10719TIP3   OH253647   3.093   2.256   2.287 -0.0241 -0.0394 -0.2335
10719TIP3    H153648   3.162   2.202   2.249 -0.2566 -0.2034 -0.4261
10719TIP3    H253649   3.093   2.336   2.235  0.1479  0.0386 -0.1126
10720TIP3   OH253650   3.060   2.941   0.224 -0.0707  0.0305  0.0125
10720TIP3    H153651   3.151   2.911   0.222  0.2523  0.9249  0.5100
10720TIP3    H253652   3.053   3.003   0.151 -0.4967 -0.6256 -0.5022
10721TIP3   OH253653   1.519   1.613   1.347 -0.1363 -0.0849  0.0225
10721TIP3    H153654   1.594   1.575   1.393 -0.0995  0.0180  0.0471
10721TIP3    H253655   1.485   1.541   1.293 -0.3447 -0.2878  0.4163
10722TIP3   OH253656   3.143   2.097   1.956  0.2178  0.5894 -0.7129
10722TIP3    H153657   3.094   2.044   2.020  1.3122 -2.1528 -2.0500
10722TIP3    H253658   3.076   2.127   1.895 -0.1823 -1.0890 -1.1465
10723TIP3   OH253659   3.129   1.661   0.682  0.1449 -0.4008  0.0611
10723TIP3    H153660   3.211   1.693   0.645  0.5756 -1.1091  0.3896
10723TIP3    H253661   3.153   1.582   0.730 -0.8820 -1.1077 -0.5786
10724TIP3   OH253662   3.128   1.872   0.977  0.6727  0.4556  0.3138
10724TIP3    H153663   3.201   1.905   0.924  0.9055  0.2476  0.4977
10724TIP3    H253664   3.110   1.942   1.040 -1.9525  2.2105 -2.2613
10725TIP3   OH253665   6.220   2.849   1.260 -0.2912  0.1017  0.2224
10725TIP3    H153666   6.307   2.857   1.298 -0.0840 -1.2050  0.0298
10725TIP3    H253667   6.180   2.775   1.305 -0.7020 -0.3131 -0.7979
10726TIP3   OH253668   3.696   6.745   2.170  0.5687 -0.4711  0.1679
10726TIP3    H153669   3.723   6.783   2.087  0.4972 -0.0742  0.3243
10726TIP3    H253670   3.777   6.737   2.220  0.6917 -1.2364 -0.1522
10727TIP3   OH253671   0.775   0.770   0.396  0.5669 -0.4834  0.1530
10727TIP3    H153672   0.808   0.832   0.462 -1.0027 -0.5551  1.0192
10727TIP3    H253673   0.747   0.694   0.447 -1.0892 -0.3560 -0.5378
10728TIP3   OH253674   1.920   6.018   3.122 -0.0839  0.0853  0.4152
10728TIP3    H153675   1.869   5.953   3.075  0.8722 -0.3029 -0.1049
10728TIP3    H253676   1.942   6.084   3.056  0.6160 -0.0718  0.4859
10729TIP3   OH253677   3.530   0.014   1.535 -0.2515  0.2753  0.3541
10729TIP3    H153678   3.555   0.096   1.491 -1.3702  0.9766  1.0061
10729TIP3    H253679   3.612  -0.017   1.575 -0.2619  2.2802  2.0247
10730TIP3   OH253680   4.128   3.396   0.166  0.7119 -0.4179 -0.5734
10730TIP3    H153681   4.152   3.395   0.259  1.0810 -1.2677 -0.6694
10730TIP3    H253682   4.113   3.488   0.146 -0.0701 -0.3017  0.5051
10731TIP3   OH253683   2.683   3.275   1.290 -0.2526 -0.4824  0.0091
10731TIP3    H153684   2.732   3.223   1.353 -1.0618 -0.1883  0.8913
10731TIP3    H253685   2.627   3.212   1.245  0.8747 -0.8129 -0.9700
10732TIP3   OH253686   3.920   0.492   0.673  0.3211  0.6092 -0.2267
10732TIP3    H153687   4.010   0.465   0.656  1.1892  2.0927  1.8322
10732TIP3    H253688   3.907   0.473   0.766 -0.9534  1.9029 -0.1288
10733TIP3   OH253689   3.464   1.989   1.512  0.3201 -0.0080 -0.8469
10733TIP3    H153690   3.389   1.988   1.452  0.0774  1.8756 -0.6147
10733TIP3    H253691   3.426   2.004   1.598  0.9529  1.0110 -0.7356
10734TIP3   OH253692   6.417   0.718   2.437 -0.3892 -0.1394  0.1650
10734TIP3    H153693   6.405   0.682   2.525  0.3101 -0.0221  0.3195
10734TIP3    H253694   6.360   0.795   2.435 -1.5484 -0.9941 -0.0171
10735TIP3   OH253695   5.775   2.998   2.497 -0.0913 -0.2829 -0.5316
10735TIP3    H153696   5.768   3.079   2.446 -0.9633 -0.4303 -0.6500
10735TIP3    H253697   5.730   3.018   2.579  0.5558 -0.3308 -0.1605
10736TIP3   OH253698   3.142   6.156   1.209  0.1807  0.2818 -0.2479
10736TIP3    H153699   3.065   6.112   1.173  0.2965  0.8616 -1.2299
10736TIP3    H253700   3.216   6.104   1.178  0.2667  0.6229 -0.6170
10737TIP3   OH253701   3.820   4.387   0.847  0.2169  0.2034 -0.3171
10737TIP3    H153702   3.737   4.345   0.823  0.6636 -1.1707  0.4842
10737TIP3    H253703   3.797   4.478   0.862 -0.8902  0.1396 -1.4937
10738TIP3   OH253704   3.804   6.824  15.610  0.2625 -0.1690  0.0163
10738TIP3    H153705   3.713   6.853  15.602  0.9891  1.4489 -3.2675
10738TIP3    H253706   3.812   6.751  15.548  1.5423  0.5926 -0.7396
10739TIP3   OH253707   2.139   2.616   0.928  0.6360  0.0098  0.1255
10739TIP3    H153708   2.221   2.573   0.950  0.9340  0.7972  0.6214
10739TIP3    H253709   2.072   2.550   0.943  0.8955  0.2928  2.8761
10740TIP3   OH253710   5.751   6.032   0.919 -0.0489 -0.7663 -0.0525
10740TIP3    H153711   5.683   5.977   0.957 -0.5739 -1.5186 -1.9893
10740TIP3    H253712   5.752   6.008   0.826  1.1443  1.0231 -0.5354
10741TIP3   OH253713   0.507   5.168   1.293 -0.2908 -0.9186  0.5791
10741TIP3    H153714   0.480   5.250   1.334  0.6148  0.2731 -1.1202
10741TIP3    H253715   0.583   5.139   1.343 -0.1055 -0.2701  0.6750
10742TIP3   OH253716   4.218   7.162   1.690 -0.0789 -0.0334  0.0526
10742TIP3    H153717   4.237   7.239   1.637 -1.7790 -0.3092 -0.9987
10742TIP3    H253718   4.285   7.098   1.664  0.3866  0.5600 -0.2138
10743TIP3   OH253719   0.712   0.065   2.256 -0.3654 -0.5343 -0.2383
10743TIP3    H153720   0.694   0.141   2.200  1.0122  0.6294  0.8831
10743TIP3    H253721   0.807   0.067   2.270 -0.5846 -1.2896  1.4661
10744TIP3   OH253722   1.406   6.982   3.601 -0.2937  0.8838  0.0341
10744TIP3    H153723   1.487   7.032   3.599 -0.2006  0.6596 -2.2942
10744TIP3    H253724   1.342   7.038   3.557 -0.8619  0.1032 -0.1463
10745TIP3   OH253725   3.250   6.089   0.752 -0.1286 -0.2916  0.3593
10745TIP3    H153726   3.271   5.998   0.730  0.0272  0.1066 -1.1961
10745TIP3    H253727   3.259   6.093   0.847  3.4199 -1.0483  0.1437
10746TIP3   OH253728   3.739   0.713  14.205  0.5756 -0.3979 -0.0490
10746TIP3    H153729   3.738   0.796  14.254 -1.8300 -0.4248  0.0151
10746TIP3    H253730   3.785   0.734  14.124  1.8679  0.4462  0.8656
10747TIP3   OH253731   0.972   0.693   2.032 -0.2941  0.2723  0.5355
10747TIP3    H153732   0.963   0.682   2.126 -1.3611 -1.4678  0.2652
10747TIP3    H253733   1.062   0.667   2.013 -0.4801 -0.6537  0.9106
10748TIP3   OH253734   3.565   2.177   3.391  0.3261  0.4591  0.1512
10748TIP3    H153735   3.620   2.108   3.429  0.1257  0.6190  0.7361
10748TIP3    H253736   3.569   2.162   3.297 -0.7031 -1.1103  0.3401
10749TIP3   OH253737   6.594   1.122   2.028 -0.0631 -0.2386 -0.3449
10749TIP3    H153738   6.529   1.055   2.007  0.6286 -0.7896 -0.7585
10749TIP3    H253739   6.543   1.198   2.054 -0.8632 -0.8223 -0.2101
10750TIP3   OH253740   1.581   1.131   3.346  0.5555 -0.2179  0.2353
10750TIP3    H153741   1.571   1.217   3.386 -0.3644 -0.6264  0.8927
10750TIP3    H253742   1.666   1.100   3.379  1.4149  0.8819 -0.8807
10751TIP3   OH253743   4.010   2.224   2.445 -0.0883  0.4821 -0.5298
10751TIP3    H153744   4.030   2.265   2.361 -1.9352  1.4836 -0.5054
10751TIP3    H253745   3.922   2.190   2.434  0.2799 -0.8160  0.4809
10752TIP3   OH253746   1.587   0.725   2.094 -0.5315  0.5421 -0.1697
10752TIP3    H153747   1.562   0.789   2.161  0.3592  0.5113  0.1953
10752TIP3    H253748   1.679   0.706   2.111 -0.3620  0.3298 -1.2363
10753TIP3   OH253749   3.397   1.459   2.139  0.3463 -0.6553  0.9068
10753TIP3    H153750   3.478   1.418   2.109 -0.4067 -0.9883 -0.7325
10753TIP3    H253751   3.328   1.413   2.091 -0.6596  1.1437  0.6088
10754TIP3   OH253752   3.719   0.862   1.190 -0.0259 -0.4152  0.0902
10754TIP3    H153753   3.740   0.780   1.234 -1.4295 -0.2340  1.1125
10754TIP3    H253754   3.631   0.884   1.221  0.6770  1.9130  0.5026
10755TIP3   OH253755   0.980   6.699   1.032  0.4486  0.4186 -0.0814
10755TIP3    H153756   0.953   6.774   1.084 -0.5204 -0.0973  0.1637
10755TIP3    H253757   0.905   6.679   0.977  0.1232 -1.2945  0.9220
10756TIP3   OH253758   2.926   3.866   2.772 -0.2086 -0.0872  0.1144
10756TIP3    H153759   2.934   3.935   2.838  3.1704 -0.3438  0.0768
10756TIP3    H253760   2.949   3.785   2.819 -3.2204 -1.1169 -0.0720
10757TIP3   OH253761   3.203   0.510   2.769 -0.4700 -0.0122  0.1414
10757TIP3    H153762   3.227   0.448   2.700  0.0201  0.0911  0.2225
10757TIP3    H253763   3.208   0.459   2.850  2.3327  0.7728  0.4824
10758TIP3   OH253764   3.574   6.657   0.828  0.0159 -0.4139  0.1440
10758TIP3    H153765   3.488   6.650   0.870 -0.5158  1.6927 -0.5110
10758TIP3    H253766   3.596   6.568   0.802 -1.7763 -1.0361  0.7081
10759TIP3   OH253767   3.480   1.471  15.940 -0.3835  0.3778  0.2115
10759TIP3    H153768   3.462   1.387  15.897 -0.1179 -0.0376  0.8998
10759TIP3    H253769   3.411   1.529  15.909 -0.4899 -0.0558 -0.3804
10760TIP3   OH253770   6.434   7.132   3.452 -0.5236  0.0208  0.0386
10760TIP3    H153771   6.355   7.185   3.466  0.4000  1.8942 -1.4899
10760TIP3    H253772   6.404   7.057   3.401 -1.9202 -1.1609  2.5215
10761TIP3   OH253773   1.673   1.892   1.883  0.6342  0.1966 -0.4971
10761TIP3    H153774   1.638   1.871   1.796 -1.9147 -0.6833  0.6967
10761TIP3    H253775   1.761   1.856   1.883  0.6557  0.1676 -2.6987
10762TIP3   OH253776   1.430   6.916   1.227 -0.7053  0.1202 -0.0081
10762TIP3    H153777   1.493   6.987   1.239 -2.2374  1.2388  1.5088
10762TIP3    H253778   1.433   6.867   1.309 -0.9723 -0.5170 -0.3765
10763TIP3   OH253779   2.572   1.484   1.527 -0.2848  0.3812  0.2372
10763TIP3    H153780   2.622   1.541   1.468 -0.3400  0.7814  0.5712
10763TIP3    H253781   2.586   1.396   1.493 -1.2874  0.7126 -1.0829
10764TIP3   OH253782   3.367   0.126   0.724  0.7367 -0.2111  0.5433
10764TIP3    H153783   3.279   0.118   0.760  0.1589  1.0626 -0.5429
10764TIP3    H253784   3.365   0.208   0.674  2.4876 -0.2530  0.3771
10765TIP3   OH253785   2.060   1.218   1.855  0.0918  0.2132  0.2035
10765TIP3    H153786   2.147   1.184   1.835 -0.1187  1.0305 -2.2603
10765TIP3    H253787   2.007   1.140   1.869  0.5852 -0.3853 -1.1503
10766TIP3   OH253788   1.763   5.557   1.379  0.0809 -0.7695  0.3698
10766TIP3    H153789   1.833   5.588   1.322 -0.7146 -0.6431 -0.5568
10766TIP3    H253790   1.807   5.504   1.445  0.9020 -1.9698 -1.1037
10767TIP3   OH253791   6.277   1.259   1.902 -0.5905  0.0395  0.3633
10767TIP3    H153792   6.327   1.304   1.970 -0.5578 -1.9620  1.6983
10767TIP3    H253793   6.301   1.304   1.821  1.2415  0.8775  1.3405
10768TIP3   OH253794   1.755   0.326   1.817  0.1281 -0.2644 -0.1113
10768TIP3    H153795   1.724   0.412   1.788 -0.7600  0.1976  2.0484
10768TIP3    H253796   1.843   0.343   1.851  0.9777 -0.7123 -2.0629
10769TIP3   OH253797   1.295   6.379   2.429  0.0260 -0.1313  0.5741
10769TIP3    H153798   1.275   6.309   2.367  1.5119 -0.3685  0.3388
10769TIP3    H253799   1.378   6.414   2.398 -0.3339  1.2345  1.1411
10770TIP3   OH253800   2.847   0.182   2.104  0.1454 -0.9957  0.5907
10770TIP3    H153801   2.892   0.197   2.021 -0.9980 -2.1763 -0.2751
10770TIP3    H253802   2.912   0.136   2.158  0.9786 -0.0055  0.4528
10771TIP3   OH253803   2.923   4.281   0.242 -0.1319  0.3010 -0.4693
10771TIP3    H153804   2.987   4.249   0.179  0.1601  0.1480 -0.0952
10771TIP3    H253805   2.868   4.205   0.262  0.7989 -0.0655  0.7077
10772TIP3   OH253806   7.148   0.414  14.983  0.5731 -0.2644  0.2991
10772TIP3    H153807   7.138   0.481  15.050  0.8811 -0.7256  0.8033
10772TIP3    H253808   7.061   0.375  14.975  0.7099 -0.7045  0.9472
10773TIP3   OH253809   1.715   6.288  14.092  0.0571 -0.6588  0.0195
10773TIP3    H153810   1.687   6.202  14.061 -1.1011  0.2333 -1.5167
10773TIP3    H253811   1.633   6.338  14.101  0.8275  0.7648 -0.6420
10774TIP3   OH253812   4.995   1.141  14.819  0.0932 -1.0150  0.3981
10774TIP3    H153813   5.071   1.197  14.837  0.6496 -1.5278 -0.3342
10774TIP3    H253814   4.946   1.188  14.751  1.7846 -2.4963 -1.9068
10775TIP3   OH253815   3.072   0.653   1.358 -0.0366 -0.0589 -0.1776
10775TIP3    H153816   3.109   0.566   1.368 -0.7913 -0.5595 -1.5894
10775TIP3    H253817   3.139   0.712   1.394  0.9890 -1.1336 -0.3010
10776TIP3   OH253818   0.276   0.562   0.673  0.3799 -0.0136 -0.3256
10776TIP3    H153819   0.289   0.578   0.580 -0.5566  1.7905 -0.1772
10776TIP3    H253820   0.199   0.615   0.696  1.2393  0.4108  1.6803
10777TIP3   OH253821   0.476   0.263   2.754  0.4510 -0.1306  0.3886
10777TIP3    H153822   0.417   0.331   2.721 -1.2769 -1.6209  0.3039
10777TIP3    H253823   0.531   0.240   2.679  0.3533  0.4423  0.1378
10778TIP3   OH253824   2.350   1.341  15.045 -0.0964 -0.4177  0.4064
10778TIP3    H153825   2.292   1.352  15.120 -0.1589 -0.5616  0.3801
10778TIP3    H253826   2.430   1.388  15.069 -0.5115  0.4595  0.1201
10779TIP3   OH253827   3.752   0.498   2.746 -0.2133  0.1268 -0.3595
10779TIP3    H153828   3.832   0.541   2.779 -0.4649 -0.6785  1.3225
10779TIP3    H253829   3.714   0.456   2.823 -2.7410  1.2271 -0.9724
10780TIP3   OH253830   4.317   3.130   2.303  0.4005 -0.1097  0.1055
10780TIP3    H153831   4.336   3.036   2.311  2.4182  0.1545 -1.3458
10780TIP3    H253832   4.335   3.165   2.391  3.3241 -0.4715 -0.2948
10781TIP3   OH253833   4.913   1.847   1.753  0.2142 -0.6881 -0.5467
10781TIP3    H153834   5.000   1.884   1.769  0.1574 -1.2345  1.1418
10781TIP3    H253835   4.853   1.912   1.789  0.0435 -1.5483  0.7547
10782TIP3   OH253836   5.533   6.830   1.521  0.6117  0.2510 -0.0213
10782TIP3    H153837   5.548   6.737   1.536 -0.3134 -0.1986 -1.7803
10782TIP3    H253838   5.498   6.835   1.432  2.4811  2.4591 -0.6717
10783TIP3   OH253839   3.574   1.768  15.070  0.0118 -0.2547  0.0189
10783TIP3    H153840   3.665   1.777  15.100 -0.3182 -1.0515  1.3132
10783TIP3    H253841   3.577   1.789  14.977  1.5169 -0.2166  0.0604
10784TIP3   OH253842   6.845   2.659   3.095  0.0545  0.2852 -0.5730
10784TIP3    H153843   6.766   2.668   3.148  0.8439 -0.5801  0.7845
10784TIP3    H253844   6.893   2.740   3.111  0.4344 -0.1031  0.3007
10785TIP3   OH253845   3.968   5.200   0.337 -0.4437 -0.0017 -0.2481
10785TIP3    H153846   4.031   5.127   0.337  0.2759  0.5831 -1.8718
10785TIP3    H253847   3.954   5.219   0.244 -1.5796  1.1265  0.1407
10786TIP3   OH253848   3.784   0.892   0.931 -0.0629  0.3146  0.2358
10786TIP3    H153849   3.781   0.869   1.024  0.3041  1.7414  0.6187
10786TIP3    H253850   3.751   0.982   0.928 -0.0463  0.2826 -1.0115
10787TIP3   OH253851   5.507   3.219  14.545  0.0794 -0.6669  0.0008
10787TIP3    H153852   5.493   3.313  14.556  0.9959 -0.2830 -1.8386
10787TIP3    H253853   5.421   3.180  14.557 -0.0401  0.2053  2.4416
10788TIP3   OH253854   5.626   2.028   2.942 -0.2178  0.4843 -0.1204
10788TIP3    H153855   5.598   2.101   2.888 -0.7779 -0.7684 -1.5581
10788TIP3    H253856   5.712   2.055   2.976  0.2194  1.2263 -1.7654
10789TIP3   OH253857   3.201   2.694  15.317  0.5814  0.4229  0.6961
10789TIP3    H153858   3.116   2.738  15.312  0.4955  0.2364  0.5261
10789TIP3    H253859   3.265   2.763  15.297  0.3309  0.0042 -1.6364
10790TIP3   OH253860   0.157   5.801   1.741  0.5185 -0.2653 -0.1105
10790TIP3    H153861   0.195   5.783   1.656 -1.0859 -0.9069 -0.7092
10790TIP3    H253862   0.079   5.746   1.745 -1.0225  1.8813  0.5741
10791TIP3   OH253863   6.392   0.340   2.870  0.2853 -0.0901  0.1601
10791TIP3    H153864   6.424   0.357   2.959  0.4777 -0.2887  0.1322
10791TIP3    H253865   6.468   0.357   2.814 -0.1718  1.1703 -0.0755
10792TIP3   OH253866   5.643   0.159   1.188  0.6626  0.0240  0.3347
10792TIP3    H153867   5.696   0.239   1.190 -0.9308  1.1009  0.0263
10792TIP3    H253868   5.562   0.183   1.232 -0.3281 -1.0553 -0.8806
10793TIP3   OH253869   5.461   0.163   0.308 -0.2257 -0.1565  0.8137
10793TIP3    H153870   5.446   0.071   0.287  0.9812 -0.6283  1.9960
10793TIP3    H253871   5.557   0.173   0.307 -0.3559  1.2282  0.0823
10794TIP3   OH253872   2.748   0.617   1.925  0.3447  0.1428  0.2973
10794TIP3    H153873   2.756   0.641   2.017  1.9792  0.2584  0.1485
10794TIP3    H253874   2.744   0.522   1.924 -1.2167  0.2021  0.5810
10795TIP3   OH253875   4.592   1.015   3.382 -0.3665 -0.1458 -0.5749
10795TIP3    H153876   4.597   0.925   3.416 -0.8511  0.3253  0.7541
10795TIP3    H253877   4.539   1.062   3.445 -0.4387  1.0028 -1.4716
10796TIP3   OH253878   4.232   0.311   1.076  0.5379 -0.5786 -0.3455
10796TIP3    H153879   4.307   0.298   1.019 -0.0638 -1.4361 -0.9418
10796TIP3    H253880   4.200   0.398   1.053  0.1964 -0.9888 -1.4373
10797TIP3   OH253881   3.882   7.292   0.604 -0.0357 -0.2515 -0.9059
10797TIP3    H153882   3.851   7.237   0.533 -1.1451  0.6075 -1.1128
10797TIP3    H253883   3.859   7.381   0.577 -1.3930  0.0051  0.9657
10798TIP3   OH253884   5.194   2.350   0.603  0.3914  0.2433  0.1709
10798TIP3    H153885   5.100   2.342   0.587  0.6229 -1.0715 -0.5891
10798TIP3    H253886   5.200   2.392   0.688 -0.8904  0.0534  0.3659
10799TIP3   OH253887   3.966   1.828   0.342 -0.7832  0.9274 -0.2852
10799TIP3    H153888   3.981   1.734   0.331 -0.1445  1.0126 -0.1476
10799TIP3    H253889   3.897   1.834   0.409  0.2776  0.5939  0.8476
10800TIP3   OH253890   5.527   1.258   1.379 -0.3531  0.1761 -0.6511
10800TIP3    H153891   5.436   1.229   1.378  0.2470 -1.8145 -1.3695
10800TIP3    H253892   5.527   1.340   1.329 -1.5621 -0.3974 -1.6179
10801TIP3   OH253893   5.404   7.319   1.678 -0.0108 -0.2462  0.0822
10801TIP3    H153894   5.421   7.358   1.764 -2.0445 -0.0905  0.4260
10801TIP3    H253895   5.430   7.228   1.687  2.3013  0.3526  0.0436
10802TIP3   OH253896   4.514   0.890   3.921 -0.2629 -0.0209 -0.3371
10802TIP3    H153897   4.582   0.846   3.971  0.5256  2.0469  0.4582
10802TIP3    H253898   4.453   0.924   3.987 -0.5788  0.5242 -0.8995
10803TIP3   OH253899   2.663   0.745  15.642 -0.2410 -0.1859  0.2189
10803TIP3    H153900   2.688   0.672  15.586  1.6222 -0.3028  1.1948
10803TIP3    H253901   2.664   0.821  15.584 -1.1300 -0.7315 -0.5426
10804TIP3   OH253902   4.335   0.563   0.757  1.2858 -0.8208  0.1595
10804TIP3    H153903   4.350   0.657   0.761  1.3423 -0.7867 -0.9049
10804TIP3    H253904   4.339   0.541   0.664  0.5780 -1.7635  0.3413
10805TIP3   OH253905   6.038   6.044   1.596 -0.5864  0.1594 -0.0217
10805TIP3    H153906   6.001   6.086   1.673 -2.5667  0.1183 -0.9165
10805TIP3    H253907   5.978   5.973   1.576  0.5905 -0.6283 -0.8647
10806TIP3   OH253908   5.177   7.088   2.368 -0.2593 -0.6106 -0.2771
10806TIP3    H153909   5.180   7.020   2.302 -1.6899  0.3816 -1.3826
10806TIP3    H253910   5.091   7.079   2.409  0.5485 -1.1246  1.3850
10807TIP3   OH253911   5.626   1.923  15.906  0.1134 -0.1126  0.6946
10807TIP3    H153912   5.541   1.967  15.905  0.6452  0.9026 -0.4712
10807TIP3    H253913   5.668   1.954  15.987  0.9501  2.4727 -0.6693
10808TIP3   OH253914   4.789   1.670  15.632  0.3969 -0.5215 -0.5031
10808TIP3    H153915   4.810   1.619  15.710  3.0711  1.4364  0.1245
10808TIP3    H253916   4.783   1.760  15.664 -0.7271  0.0293 -2.1968
10809TIP3   OH253917   3.880   3.173   2.616  0.4031 -0.5235  0.0477
10809TIP3    H153918   3.844   3.095   2.657  0.0412 -0.1486  0.4541
10809TIP3    H253919   3.891   3.149   2.524 -2.2760 -0.1841 -0.4028
10810TIP3   OH253920   3.917   7.050   1.642  0.1098 -0.0421  0.0738
10810TIP3    H153921   3.946   7.095   1.721 -0.1804 -0.3693  0.3712
10810TIP3    H253922   3.998   7.017   1.603  0.3225  0.7383 -0.1522
10811TIP3   OH253923   3.598   0.474   0.630 -0.4676  0.4221 -0.2151
10811TIP3    H153924   3.526   0.426   0.591  0.1293 -0.5348 -0.1462
10811TIP3    H253925   3.603   0.443   0.720 -1.1836  1.8812  0.3478
10812TIP3   OH253926   6.733   1.375  15.080 -0.2860 -0.0706 -1.0102
10812TIP3    H153927   6.743   1.397  14.987  0.2445  1.1572 -0.6590
10812TIP3    H253928   6.819   1.344  15.106 -0.5456 -0.8167 -1.0278
10813TIP3   OH253929   4.959   1.584   1.907  0.2425 -0.0131  0.7555
10813TIP3    H153930   4.971   1.671   1.869  1.9871 -0.4512  0.2571
10813TIP3    H253931   4.865   1.570   1.905  0.0561  1.2884 -0.4817
10814TIP3   OH253932   3.992   0.545   1.264 -0.6330 -0.1651 -0.0429
10814TIP3    H153933   3.898   0.528   1.265 -0.6082 -0.3966 -1.0526
10814TIP3    H253934   4.024   0.506   1.345 -1.2823 -0.8345 -0.1014
10815TIP3   OH253935   5.203   0.191   1.245 -0.1518 -0.6308  0.1218
10815TIP3    H153936   5.124   0.161   1.291 -0.6311  1.1547  0.4869
10815TIP3    H253937   5.242   0.111   1.210 -1.6921 -1.6174  0.6256
10816TIP3   OH253938   4.940   2.314   1.882  0.4408 -0.0670 -0.0263
10816TIP3    H153939   5.010   2.349   1.826  1.0518  1.3051  1.5272
10816TIP3    H253940   4.864   2.368   1.863  0.5131  0.0839  0.1139
10817TIP3   OH253941   3.666   1.166  15.512 -0.3333  1.0245 -0.1986
10817TIP3    H153942   3.756   1.174  15.479 -0.6525  0.1033 -1.3204
10817TIP3    H253943   3.676   1.161  15.607  0.8280  0.6149 -0.3299
10818TIP3   OH253944   3.703   0.600   2.027 -0.3871 -0.5300 -0.3297
10818TIP3    H153945   3.659   0.649   1.957  0.1452  1.9885  1.0454
10818TIP3    H253946   3.652   0.520   2.036 -1.3886 -0.1632 -2.5310
10819TIP3   OH253947   6.307   1.361   2.527 -0.1711  0.4070  0.1259
10819TIP3    H153948   6.313   1.415   2.606  0.3495 -1.7668  1.6211
10819TIP3    H253949   6.379   1.391   2.472  2.4382 -1.1221  2.5131
10820TIP3   OH253950   5.761   0.205   0.465  0.0116  0.1150 -0.0127
10820TIP3    H153951   5.801   0.276   0.415 -1.6336  0.3736 -0.9948
10820TIP3    H253952   5.738   0.246   0.549 -1.2685  0.8710 -0.7100
10821TIP3   OH253953   2.008   5.823   1.632  0.0613  0.5157  0.1984
10821TIP3    H153954   2.000   5.728   1.618 -0.4638  0.8177 -1.6395
10821TIP3    H253955   2.060   5.831   1.712  0.5707 -1.3331  0.0755
10822TIP3   OH253956   4.373   2.546   0.615  0.2033  0.2604 -0.1022
10822TIP3    H153957   4.352   2.517   0.703  0.8424  0.0998  0.0010
10822TIP3    H253958   4.293   2.530   0.564 -0.5770  1.5100  0.7167
10823TIP3   OH253959   4.525   0.686  15.800  0.2438 -0.2195 -0.4576
10823TIP3    H153960   4.620   0.697  15.802  0.3500 -1.1810  0.5289
10823TIP3    H253961   4.493   0.737  15.874 -0.1315  1.0464 -1.4733
10824TIP3   OH253962   6.157   1.338   0.647  0.3876  0.0554 -0.6759
10824TIP3    H153963   6.090   1.290   0.598  1.0941 -1.2970 -0.3337
10824TIP3    H253964   6.186   1.407   0.587 -2.0184  1.2936 -0.4514
10825TIP3   OH253965   4.413   1.387   0.984  0.0564 -0.5945  0.0986
10825TIP3    H153966   4.363   1.391   0.903  0.4867 -0.5481 -0.1637
10825TIP3    H253967   4.492   1.336   0.962  1.2193  1.2512 -0.0746
10826TIP3   OH253968   0.459   1.698  12.765  0.2277  0.1957 -0.3616
10826TIP3    H153969   0.494   1.751  12.693 -1.9606  0.8007 -1.0486
10826TIP3    H253970   0.526   1.702  12.833  0.8055  2.6168 -0.9988
10827TIP3   OH253971   4.451   0.363   1.413 -0.4758  0.1366  0.1133
10827TIP3    H153972   4.467   0.295   1.347  0.8832  0.1225  0.4357
10827TIP3    H253973   4.536   0.375   1.455 -1.0136  1.1351  0.9245
10828TIP3   OH253974   3.109   2.190  15.302  0.0710 -0.4903  0.2078
10828TIP3    H153975   3.039   2.128  15.281  0.9196 -1.0040 -1.2278
10828TIP3    H253976   3.116   2.187  15.397 -1.2969 -1.0459  0.3052
10829TIP3   OH253977   6.412   3.763   1.359 -0.6789 -0.1649 -0.3771
10829TIP3    H153978   6.445   3.785   1.273 -0.6942 -1.1833 -0.6572
10829TIP3    H253979   6.414   3.845   1.409 -1.0397  0.5067 -1.4612
10830TIP3   OH253980   6.615   2.223   1.851  1.0106 -0.7618 -0.0236
10830TIP3    H153981   6.696   2.221   1.801  0.7859 -1.1373 -0.3734
10830TIP3    H253982   6.609   2.136   1.892  2.1611  0.1741  2.2044
10831TIP3   OH253983   4.063   1.679   1.004  0.1489 -0.0360  0.0718
10831TIP3    H153984   4.086   1.599   0.956  1.9310 -0.2642  1.2316
10831TIP3    H253985   3.979   1.706   0.968 -0.6749 -2.6675 -0.0723
10832TIP3   OH253986   5.101   4.088  14.218  0.3073  0.1639  0.5020
10832TIP3    H153987   5.051   4.086  14.299  0.0413 -0.9526  0.3278
10832TIP3    H253988   5.047   4.039  14.156  1.0696 -0.0339 -0.0102
10833TIP3   OH253989   3.817   2.390  15.768 -0.2536  0.2442 -0.0608
10833TIP3    H153990   3.892   2.332  15.771  0.4213  0.8903 -2.6026
10833TIP3    H253991   3.851   2.472  15.732 -2.0278  0.7596 -0.6536
10834TIP3   OH253992   5.338   0.874   0.929 -0.5116  0.6466  0.4634
10834TIP3    H153993   5.335   0.792   0.978 -0.6845 -0.1166 -0.8099
10834TIP3    H253994   5.280   0.859   0.854  0.3262  1.5422 -0.3684
10835TIP3   OH253995   6.500   2.415   1.125  0.1463  0.2780  0.5261
10835TIP3    H153996   6.449   2.494   1.109  0.8211  0.4520 -0.8321
10835TIP3    H253997   6.454   2.347   1.076  1.4605  0.5348 -1.1147
10836TIP3   OH253998   5.811   6.890   1.469 -0.3160 -0.1363  0.0689
10836TIP3    H153999   5.729   6.893   1.518 -0.2450  0.6459  0.1512
10836TIP3    H254000   5.784   6.866   1.380 -0.3996 -1.9230  0.5604
10837TIP3   OH254001   0.467   0.573   1.817 -0.6846 -0.0338 -0.3051
10837TIP3    H154002   0.546   0.540   1.774 -0.6373 -1.3319  0.7164
10837TIP3    H254003   0.499   0.632   1.885 -0.4964 -1.4741  0.8929
10838TIP3   OH254004   4.848   0.394   1.711  0.2333 -0.2311 -0.1038
10838TIP3    H154005   4.841   0.301   1.735 -0.7702 -0.4642 -1.2313
10838TIP3    H254006   4.900   0.433   1.781  0.9583 -1.7156  0.2035
10839TIP3   OH254007   3.332   1.504   0.826  0.1254  0.6619 -0.0431
10839TIP3    H154008   3.323   1.414   0.856 -1.9966  1.4540  1.9431
10839TIP3    H254009   3.297   1.556   0.899 -0.4303  2.9714 -1.9033
10840TIP3   OH254010   4.476   7.308  15.961 -0.2214 -0.1952 -0.1740
10840TIP3    H154011   4.477   7.334  16.053 -1.1187  2.4842 -0.8724
10840TIP3    H254012   4.395   7.258  15.951 -0.6838  0.4599  0.2593
10841TIP3   OH254013   4.355   1.761   3.632  0.8676 -0.0330  0.1998
10841TIP3    H154014   4.377   1.747   3.724  0.8493 -1.3708  0.0106
10841TIP3    H254015   4.419   1.708   3.584  2.2004  2.2816 -0.6412
10842TIP3   OH254016   5.422   6.718   0.388  0.1463 -0.3056  0.7479
10842TIP3    H154017   5.337   6.674   0.398  0.2661 -0.9669 -0.9627
10842TIP3    H254018   5.479   6.673   0.450  0.1137 -2.2008 -0.5445
10843TIP3   OH254019   2.970   6.980  15.912 -0.0668  0.1687 -0.7692
10843TIP3    H154020   2.918   6.974  15.993  1.5041  1.5419  0.3715
10843TIP3    H254021   3.034   6.910  15.919  0.0953  0.3127 -0.7939
10844TIP3   OH254022   4.643   6.690   3.067 -0.1247 -0.4027  0.3380
10844TIP3    H154023   4.624   6.783   3.075 -0.5686 -0.5563  1.1884
10844TIP3    H254024   4.631   6.656   3.156 -1.5491 -1.5651 -0.2842
10845TIP3   OH254025   3.950   0.908   0.661  0.7227  0.1795  0.0050
10845TIP3    H154026   3.880   0.965   0.691  0.4585  0.2794 -0.7941
10845TIP3    H254027   4.001   0.888   0.740  0.4846  1.0536  0.3761
10846TIP3   OH254028   5.929   6.507   3.983 -0.0323  0.0394 -0.1744
10846TIP3    H154029   5.933   6.482   3.890  2.2549  0.2895 -0.1733
10846TIP3    H254030   6.020   6.523   4.007 -0.6231  0.1134  2.0938
10847TIP3   OH254031   2.587   0.358   2.353 -0.1196 -0.3395  0.3884
10847TIP3    H154032   2.492   0.369   2.349 -0.1229 -0.8307 -1.2509
10847TIP3    H254033   2.602   0.270   2.319  0.8791 -0.5049  1.2467
10848TIP3   OH254034   3.711   1.737  15.470  0.1040  0.0041  0.1283
10848TIP3    H154035   3.753   1.741  15.384 -0.4662 -1.7449 -0.2508
10848TIP3    H254036   3.678   1.648  15.477 -1.5540  0.6819  1.3730
10849TIP3   OH254037   3.630   0.789  15.504 -0.1282 -0.7352  0.7057
10849TIP3    H154038   3.638   0.706  15.456 -0.3077 -0.7389  0.6828
10849TIP3    H254039   3.615   0.854  15.435 -0.0511 -0.6933  0.7284
10850TIP3   OH254040   3.491   6.525   0.474  0.5340  0.2060 -0.2552
10850TIP3    H154041   3.444   6.578   0.410  1.0832  1.6902  0.5511
10850TIP3    H254042   3.439   6.530   0.554  0.7598 -0.2077 -0.0769
10851TIP3   OH254043   3.973   6.992   1.110  0.0436 -0.2184 -0.4536
10851TIP3    H154044   3.957   6.991   1.016  0.3888  0.6770 -0.5291
10851TIP3    H254045   4.039   7.060   1.122 -0.9798  0.6134  0.5883
10852TIP3   OH254046   2.950   6.980  15.130 -0.0137  0.0929 -0.1376
10852TIP3    H154047   2.979   6.897  15.091  0.4555  0.2494 -0.1286
10852TIP3    H254048   2.904   7.025  15.060  0.3395  0.1274 -0.3482
10853TIP3   OH254049   3.928   3.076   0.527  0.8958  0.3028 -0.0501
10853TIP3    H154050   3.934   2.994   0.478  2.0627 -0.1788  0.8544
10853TIP3    H254051   4.005   3.075   0.584  0.1086  1.3287  1.0537
10854TIP3   OH254052   2.068   7.007   2.044  0.0495  0.6907  0.4075
10854TIP3    H154053   1.985   7.054   2.032 -0.9175 -0.8196  0.9298
10854TIP3    H254054   2.045   6.932   2.100  1.5082 -0.4379 -0.4592
10855TIP3   OH254055   5.524   0.114   0.955 -0.1663  0.2418  0.3812
10855TIP3    H154056   5.450   0.059   0.981  0.6384 -0.7187  0.6221
10855TIP3    H254057   5.572   0.131   1.036  0.0782  0.5860  0.1690
10856TIP3   OH254058   3.936   0.179  15.818  0.0039 -0.5432  0.3052
10856TIP3    H154059   3.870   0.118  15.784  1.9243 -1.5330 -1.7666
10856TIP3    H254060   3.993   0.197  15.743  0.9595  1.8352  1.5507
10857TIP3   OH254061   6.958   0.947   2.725  0.4314 -0.1536 -0.6020
10857TIP3    H154062   7.045   0.958   2.686  0.6281  2.4857  0.4463
10857TIP3    H254063   6.960   1.004   2.802 -1.9853 -0.6504 -0.1606
10858TIP3   OH254064   3.667   7.237   2.217 -0.2232 -0.1484 -0.8142
10858TIP3    H154065   3.575   7.255   2.238 -0.4280 -1.2675 -0.6793
10858TIP3    H254066   3.681   7.148   2.249  0.7601 -0.1765 -1.3111
10859TIP3   OH254067   2.683   6.913   1.542 -0.3761 -0.3324  0.6261
10859TIP3    H154068   2.643   6.969   1.609  1.8615 -0.8790  2.4608
10859TIP3    H254069   2.752   6.966   1.504  0.5950 -1.2184  1.1369
10860TIP3   OH254070   2.481   0.214   1.689  0.0856  0.0573 -0.0868
10860TIP3    H154071   2.513   0.228   1.600  0.0195 -1.5601 -0.3767
10860TIP3    H254072   2.533   0.142   1.722  0.4116  0.9423  1.3601
10861TIP3   OH254073   5.601   7.004  14.617  0.5415 -0.3211 -0.5187
10861TIP3    H154074   5.512   7.029  14.642  0.7644  0.3101 -0.3558
10861TIP3    H254075   5.595   6.910  14.600 -0.5433  0.0332 -2.1906
10862TIP3   OH254076   5.167   3.364  15.212 -0.0652  0.2365  0.3303
10862TIP3    H154077   5.081   3.325  15.229  0.5013 -0.8694  0.7525
10862TIP3    H254078   5.229   3.301  15.248  1.0720 -0.5054 -2.7630
10863TIP3   OH254079   5.161   2.077   1.229 -0.1958  0.2049  1.0121
10863TIP3    H154080   5.156   2.101   1.321 -0.7060  0.2205  0.9825
10863TIP3    H254081   5.170   2.160   1.182  0.5474  0.1663  1.0770
10864TIP3   OH254082   2.622   6.537   1.207  0.3364 -0.3489 -0.1317
10864TIP3    H154083   2.689   6.601   1.230 -1.1088  0.9101  0.6236
10864TIP3    H254084   2.565   6.532   1.284 -1.8091  0.3929 -1.6174
10865TIP3   OH254085   5.135   3.054   0.062  0.2222 -0.0737 -0.0765
10865TIP3    H154086   5.044   3.048   0.033 -0.2723  1.5808  1.0588
10865TIP3    H254087   5.156   3.147   0.056  0.6167  0.1029  3.1956
10866TIP3   OH254088   5.291   2.043   2.833  0.1243  0.1403 -0.5430
10866TIP3    H154089   5.310   1.983   2.761  0.0341  0.4952 -0.8684
10866TIP3    H254090   5.247   2.117   2.791 -3.1785 -1.2251  0.3529
10867TIP3   OH254091   4.093   5.569  15.035 -0.2400  0.7275  0.4963
10867TIP3    H154092   4.087   5.634  14.965 -1.9875 -0.7383 -0.7697
10867TIP3    H254093   4.002   5.541  15.049  0.5357 -1.7144  0.7620
10868TIP3   OH254094   5.106   0.869  14.869  0.1634 -0.4204  0.2144
10868TIP3    H154095   5.059   0.898  14.791  0.4255  1.8851  0.8538
10868TIP3    H254096   5.147   0.949  14.903  2.0284 -1.8239  1.3685
10869TIP3   OH254097   3.636   7.114  15.793 -0.2189 -0.7714  0.4204
10869TIP3    H154098   3.671   7.092  15.706 -2.2265 -1.3588 -0.2528
10869TIP3    H254099   3.653   7.036  15.846  0.6745 -0.5485  0.4839
10870TIP3   OH254100   5.931   1.338   2.025  0.3134 -0.2910  0.1092
10870TIP3    H154101   5.880   1.407   1.981  0.4302  1.2550  2.3695
10870TIP3    H254102   6.004   1.322   1.966 -0.1370  0.9531 -0.8258
10871TIP3   OH254103   4.702   1.369   0.977  0.0191  0.5689  0.1021
10871TIP3    H154104   4.797   1.363   0.980  0.0355  0.5517 -0.5066
10871TIP3    H254105   4.675   1.354   1.068  0.5693  0.1138  0.1966
10872TIP3   OH254106   4.771   6.383  14.542 -0.2776 -0.1264 -0.0120
10872TIP3    H154107   4.736   6.460  14.587 -1.8402 -0.2390 -1.0003
10872TIP3    H254108   4.862   6.377  14.571 -0.1426  2.1010  0.0742
10873TIP3   OH254109   0.517   1.149   0.237 -0.9537 -0.3554  0.7171
10873TIP3    H154110   0.507   1.229   0.185 -1.9246 -0.1279  1.2268
10873TIP3    H254111   0.427   1.125   0.260 -0.7565 -2.3713 -0.5783
10874TIP3   OH254112   4.698   2.516   2.657  0.1873 -0.1301  0.1077
10874TIP3    H154113   4.717   2.425   2.634  0.8690  0.0516 -0.0618
10874TIP3    H254114   4.674   2.558   2.574  1.7357  0.2999 -0.1350
10875TIP3   OH254115   3.228   2.316  15.940  0.7569  0.4317 -0.1522
10875TIP3    H154116   3.161   2.322  16.008 -1.2965 -0.1049 -2.0919
10875TIP3    H254117   3.241   2.406  15.911  1.2381  0.5941  0.5542
10876TIP3   OH254118   3.329   0.881  15.423 -0.2723  0.2795  0.0545
10876TIP3    H154119   3.290   0.796  15.399 -0.3779  0.4856 -0.5189
10876TIP3    H254120   3.370   0.865  15.508  2.2866 -1.1547 -1.3704
10877TIP3   OH254121   3.939   1.427   0.018 -0.4103  0.1324  0.0016
10877TIP3    H154122   4.019   1.479   0.008 -0.3421  0.3471  1.5061
10877TIP3    H254123   3.873   1.474  -0.032  0.3255  0.1209 -1.0046
10878TIP3   OH254124   4.927   2.835   1.021 -0.1453  0.5155  0.0527
10878TIP3    H154125   4.975   2.754   1.039 -1.4999 -0.3559 -0.1827
10878TIP3    H254126   4.960   2.897   1.087  1.4436  0.0061 -0.2468
10879TIP3   OH254127   3.386   1.812   2.409  0.4578 -0.0418 -0.1831
10879TIP3    H154128   3.296   1.842   2.423  0.2117 -1.2018  0.8006
10879TIP3    H254129   3.437   1.858   2.477  0.2905 -0.8339  0.4869
10880TIP3   OH254130   4.875   3.452  15.022 -0.1874  0.0344  0.4442
10880TIP3    H154131   4.917   3.482  15.103 -2.0473 -0.0798  1.4943
10880TIP3    H254132   4.782   3.472  15.035 -0.8182 -1.9818 -0.7445
10881TIP3   OH254133   3.733   1.701   3.087  0.2624  0.7062  0.3285
10881TIP3    H154134   3.706   1.767   3.023 -0.5079 -0.3778 -0.4849
10881TIP3    H254135   3.651   1.668   3.123  0.6829  1.0092  1.5880
10882TIP3   OH254136   3.901   0.276   0.988 -0.2078  0.0545  0.7010
10882TIP3    H154137   3.979   0.222   0.977  0.1249  0.0239  3.0207
10882TIP3    H254138   3.849   0.230   1.054 -0.9841  1.3797  1.0236
10883TIP3   OH254139   4.729   0.885   0.430 -0.4080 -0.0410 -0.4547
10883TIP3    H154140   4.746   0.898   0.337  1.1476 -2.2918 -0.5287
10883TIP3    H254141   4.790   0.944   0.474  2.6927 -2.8122 -0.8465
10884TIP3   OH254142   1.455   3.063   0.585  0.1041  0.2261  0.0733
10884TIP3    H154143   1.420   3.005   0.517 -1.0591  1.5734 -0.5031
10884TIP3    H254144   1.549   3.069   0.566 -0.1425  0.2563 -1.1598
10885TIP3   OH254145   4.207   1.485   0.779  0.4565  0.3643 -0.2549
10885TIP3    H154146   4.222   1.404   0.731  0.0994  0.0459  0.1637
10885TIP3    H254147   4.205   1.553   0.712 -0.8405 -0.1781 -0.7838
10886TIP3   OH254148   3.363   2.969   0.137  0.0782 -0.0157  0.2290
10886TIP3    H154149   3.359   2.890   0.190 -1.3697  0.5733  1.0150
10886TIP3    H254150   3.430   3.023   0.179  0.2978 -0.3572  0.3221
10887TIP3   OH254151   4.055   3.160   3.067  0.1930 -0.6631 -0.0013
10887TIP3    H154152   4.007   3.087   3.029 -1.0666  0.6717 -1.0319
10887TIP3    H254153   4.132   3.170   3.011  0.7065 -1.6065  0.5326
10888TIP3   OH254154   4.610   2.119   3.019 -0.0259  0.7515  0.4764
10888TIP3    H154155   4.616   2.076   2.933 -0.2851  2.3424 -0.3492
10888TIP3    H254156   4.642   2.053   3.081  0.5389 -0.2721 -0.8805
10889TIP3   OH254157   4.892   2.422  15.396 -0.6538  0.1110 -0.2913
10889TIP3    H154158   4.830   2.494  15.408 -2.8029 -1.5851 -0.8588
10889TIP3    H254159   4.868   2.358  15.464  0.8848 -0.2947 -0.1169
10890TIP3   OH254160   5.077   0.692   0.416  0.4881  0.1742 -0.4591
10890TIP3    H154161   5.005   0.692   0.479  0.3178 -0.6088 -0.6469
10890TIP3    H254162   5.123   0.610   0.433 -0.7231 -0.9994 -2.6849
10891TIP3   OH254163   4.436   6.900   1.985  0.0803  0.1324  0.4733
10891TIP3    H154164   4.485   6.884   2.066 -0.1227 -0.8808  0.4063
10891TIP3    H254165   4.468   6.985   1.954 -0.3921  0.8816  2.0038
10892TIP3   OH254166   4.003   4.121   1.914  0.1128 -0.1948 -0.2180
10892TIP3    H154167   3.996   4.110   1.819 -3.2385 -0.5359  0.0206
10892TIP3    H254168   3.927   4.076   1.949  1.9831 -1.1629  2.7522
10893TIP3   OH254169   6.021   5.721   1.356  0.2277 -0.1071 -0.8209
10893TIP3    H154170   6.109   5.737   1.390  0.2992  1.2570 -1.6021
10893TIP3    H254171   6.032   5.653   1.289  0.3030 -1.7372  0.8275
10894TIP3   OH254172   4.912   4.899   2.491  0.0842  0.1691 -0.2013
10894TIP3    H154173   4.899   4.969   2.556  0.0414 -1.9375  2.1548
10894TIP3    H254174   4.868   4.823   2.530  0.2897 -1.2117 -2.6243
10895TIP3   OH254175   5.908   7.330   0.399  1.0441 -0.5082  0.3448
10895TIP3    H154176   5.844   7.394   0.429  0.8794 -0.5480  0.0904
10895TIP3    H254177   5.990   7.378   0.392  1.0653 -0.4820  0.7758
10896TIP3   OH254178   5.601   2.435   3.352 -0.1387 -0.0569 -0.3453
10896TIP3    H154179   5.534   2.429   3.420 -0.4636  0.0995 -0.6523
10896TIP3    H254180   5.679   2.396   3.392 -0.3327  0.0226  0.1131
10897TIP3   OH254181   5.726   0.864  15.212  0.6938 -0.4390  0.1132
10897TIP3    H154182   5.728   0.926  15.284 -1.8279 -1.2249  0.9519
10897TIP3    H254183   5.784   0.793  15.239 -0.4762 -0.8736  1.5608
10898TIP3   OH254184   4.640   0.885   2.218  0.4181 -0.5033  0.5381
10898TIP3    H154185   4.663   0.817   2.155  1.5563 -1.1105  1.6068
10898TIP3    H254186   4.664   0.967   2.174  0.6037 -0.8812 -0.0747
10899TIP3   OH254187   7.170   1.265  15.597  0.3038  0.0256  0.2044
10899TIP3    H154188   7.115   1.196  15.633 -0.7758  0.0395 -1.3482
10899TIP3    H254189   7.259   1.244  15.627 -0.1024 -1.7194  0.2277
10900TIP3   OH254190   4.616   1.302   1.254 -0.4508 -0.5411 -0.8918
10900TIP3    H154191   4.572   1.331   1.333  0.3545  0.0103 -0.6455
10900TIP3    H254192   4.560   1.231   1.220  0.0531 -1.8955  1.0432
10901TIP3   OH254193   4.145   0.003   0.610 -0.5460 -0.3579  0.0342
10901TIP3    H154194   4.054  -0.019   0.592 -0.8649  1.3468 -0.5392
10901TIP3    H254195   4.187   0.004   0.524 -0.3343  0.3578  0.1482
10902TIP3   OH254196   6.570   1.772   0.047 -0.4259  0.2381 -0.6961
10902TIP3    H154197   6.556   1.797  -0.044 -1.7126 -0.8765 -0.8173
10902TIP3    H254198   6.619   1.845   0.085 -0.1880  0.8648 -2.1797
10903TIP3   OH254199   3.573   1.500   0.450  0.4861 -0.1213 -0.1119
10903TIP3    H154200   3.590   1.579   0.399  0.5368  0.5622  0.9562
10903TIP3    H254201   3.600   1.428   0.393  2.8491  0.7360 -0.1201
10904TIP3   OH254202   4.705   6.552  15.530  0.6140 -0.1323  0.1717
10904TIP3    H154203   4.746   6.567  15.615  0.7210 -0.5051  0.1866
10904TIP3    H254204   4.618   6.592  15.538  0.0868 -1.3917  0.9344
10905TIP3   OH254205   5.307   2.025   2.169 -0.2424 -0.5293 -0.1270
10905TIP3    H154206   5.261   2.091   2.222  1.1842  0.5262 -0.1777
10905TIP3    H254207   5.372   2.075   2.120  1.9551 -2.1997  1.0268
10906TIP3   OH254208   4.470   1.107   2.610 -0.6795  0.0764  0.1438
10906TIP3    H154209   4.501   1.056   2.536 -2.3034  0.5075 -0.8665
10906TIP3    H254210   4.531   1.180   2.616 -0.9117  0.4030 -1.2107
10907TIP3   OH254211   4.630   3.968  15.178  0.4009 -0.2118 -0.1754
10907TIP3    H154212   4.725   3.981  15.181  0.4731 -0.9192  0.9156
10907TIP3    H254213   4.615   3.889  15.229 -0.5869 -1.2708 -2.0634
10908TIP3   OH254214   6.258   1.163   0.821  0.4493 -0.2326 -0.0258
10908TIP3    H154215   6.237   1.235   0.761  0.3251 -0.6362 -0.4658
10908TIP3    H254216   6.175   1.140   0.861  0.1808 -1.3036 -1.1850
10909TIP3   OH254217   5.431   1.404  15.005  0.1912 -0.5121  0.7492
10909TIP3    H154218   5.488   1.340  15.047 -0.9223 -1.6311  0.5875
10909TIP3    H254219   5.342   1.373  15.024 -0.3812  1.3421  1.2281
10910TIP3   OH254220   3.763   1.459   1.584 -0.1230  0.0286  0.4414
10910TIP3    H154221   3.805   1.374   1.569 -1.2918 -0.6115  0.6569
10910TIP3    H254222   3.810   1.497   1.658  0.6540 -0.2635  0.1033
10911TIP3   OH254223   3.942   1.836   0.664  0.1885  0.4009  0.4450
10911TIP3    H154224   4.023   1.812   0.709  1.0103 -0.8161 -1.6341
10911TIP3    H254225   3.945   1.932   0.660  2.2490  0.3362 -0.8177
10912TIP3   OH254226   5.206   0.350   3.316  0.5085  0.4065 -0.0291
10912TIP3    H154227   5.135   0.334   3.254  0.6630 -1.6392  0.3094
10912TIP3    H254228   5.185   0.294   3.391  0.9551  1.9574  1.2870
10913TIP3   OH254229   4.691   1.062  15.405  0.0040  0.3419  0.1598
10913TIP3    H154230   4.762   1.020  15.357  1.9563  1.7404  1.7796
10913TIP3    H254231   4.705   1.156  15.394 -2.2196  0.6566 -0.3847
10914TIP3   OH254232   3.171   0.159   3.181 -0.1705 -0.1773 -0.3843
10914TIP3    H154233   3.208   0.118   3.103 -0.2574 -0.4077 -0.3026
10914TIP3    H254234   3.121   0.090   3.224 -0.3656  0.0272 -0.2802
10915TIP3   OH254235   2.819   0.893   2.083 -0.1048 -0.4804 -0.3477
10915TIP3    H154236   2.880   0.830   2.121 -0.2584 -0.1019  0.5149
10915TIP3    H254237   2.825   0.877   1.988  0.7962 -0.9234 -0.2194
10916TIP3   OH254238   2.793   0.833   1.774  0.0530  0.0326 -0.3239
10916TIP3    H154239   2.820   0.806   1.686  2.3606 -0.5461  0.5236
10916TIP3    H254240   2.787   0.751   1.823 -1.7124  0.3132 -0.0569
10917TIP3   OH254241   4.186   0.178  13.650 -0.1688 -0.5794  0.0832
10917TIP3    H154242   4.100   0.209  13.678 -0.2719 -1.6578  0.9784
10917TIP3    H254243   4.202   0.224  13.568 -1.2485  0.2321  0.3145
10918TIP3   OH254244   3.686   4.349   1.709  0.0233  0.3278  0.1786
10918TIP3    H154245   3.663   4.414   1.643 -1.7222 -0.8692 -0.4180
10918TIP3    H254246   3.684   4.265   1.663 -1.6760 -0.5852  1.8462
10919TIP3   OH254247   5.232   7.236  15.235  0.7042  0.1684 -0.3115
10919TIP3    H154248   5.186   7.281  15.165  0.0062  0.4560  0.3246
10919TIP3    H254249   5.295   7.179  15.190  0.6689  0.7871 -1.1426
10920TIP3   OH254250   3.836   0.379   3.752  0.1485  0.5675 -0.8929
10920TIP3    H154251   3.772   0.333   3.697 -1.5715 -0.1789  1.6686
10920TIP3    H254252   3.879   0.440   3.691 -0.6984 -1.2029 -3.3607
10921TIP3   OH254253   3.068   0.861   3.092  0.2433  0.5249 -0.3175
10921TIP3    H154254   3.132   0.931   3.108  0.8706  0.4306 -2.2883
10921TIP3    H254255   3.097   0.790   3.149  0.5695  1.2719  0.4719
10922TIP3   OH254256   2.347   6.357   3.999 -0.8686 -0.3248  0.2180
10922TIP3    H154257   2.268   6.351   4.054 -1.2472 -0.7640 -0.3665
10922TIP3    H254258   2.314   6.343   3.910 -0.1496 -0.3224 -0.0442
10923TIP3   OH254259   3.479   1.734   1.817  0.1132 -0.3397  0.3552
10923TIP3    H154260   3.415   1.681   1.770  0.0732 -0.5675  0.6614
10923TIP3    H254261   3.558   1.680   1.819  0.0450 -0.4257  0.7466
10924TIP3   OH254262   5.584   2.789  15.965  0.5813 -0.0847 -0.0861
10924TIP3    H154263   5.660   2.834  15.926  0.8437 -0.2449  0.2396
10924TIP3    H254264   5.518   2.790  15.896  0.7408  0.4090 -0.2378
10925TIP3   OH254265   6.304   1.593   4.511  0.2239 -0.0115 -0.6228
10925TIP3    H154266   6.292   1.599   4.606 -1.1769 -1.2669 -0.7139
10925TIP3    H254267   6.286   1.502   4.490 -0.6362  0.5313 -2.2723
10926TIP3   OH254268   4.930   5.098  14.433  0.5731  0.3743  0.4706
10926TIP3    H154269   4.841   5.116  14.462  0.2140  0.4435 -0.6590
10926TIP3    H254270   4.963   5.032  14.495 -0.7239 -0.6467  0.0936
10927TIP3   OH254271   2.147   1.937   0.891  0.0919 -0.4329  1.0370
10927TIP3    H154272   2.055   1.909   0.885  0.0488 -0.3497  1.3116
10927TIP3    H254273   2.142   2.029   0.916  0.2383 -0.2091  0.2631
10928TIP3   OH254274   4.352   6.252   2.097  0.2651 -1.1438  0.4433
10928TIP3    H154275   4.423   6.194   2.068 -0.3618 -1.3946 -0.6103
10928TIP3    H254276   4.275   6.196   2.101 -0.2316 -0.5074 -0.0561
10929TIP3   OH254277   2.164   6.192   1.546  0.1805  0.1355  0.2971
10929TIP3    H154278   2.175   6.255   1.475  0.1432  1.0277  1.0750
10929TIP3    H254279   2.179   6.107   1.505  0.0707  0.6373 -0.7955
10930TIP3   OH254280   4.448   1.011   3.124  0.1439 -0.2129  0.1076
10930TIP3    H154281   4.461   1.100   3.091 -1.8794 -0.1498 -0.5886
10930TIP3    H254282   4.535   0.983   3.153  0.7783  2.0180  0.4292
10931TIP3   OH254283   1.707   0.112   1.608 -0.0206  0.1374 -0.1045
10931TIP3    H154284   1.733   0.140   1.696  1.5258 -3.0335  0.5372
10931TIP3    H254285   1.789   0.111   1.558 -0.3581 -1.1139 -0.6646
10932TIP3   OH254286   5.501   1.835   2.776  0.6685 -0.4591  0.4492
10932TIP3    H154287   5.433   1.802   2.834  1.0717  1.2055  1.9080
10932TIP3    H254288   5.543   1.906   2.825  1.0979  0.9269 -1.8217
10933TIP3   OH254289   4.101   1.440  14.976 -0.3698  0.0238 -0.2684
10933TIP3    H154290   4.050   1.520  14.983 -0.0595  0.1612  0.4384
10933TIP3    H254291   4.088   1.411  14.885 -1.6092  0.1182 -0.1388
10934TIP3   OH254292   5.664   1.016   1.615 -0.1921 -0.0318  0.2286
10934TIP3    H154293   5.644   0.931   1.654  0.1830  0.5609  1.7439
10934TIP3    H254294   5.628   1.011   1.527 -2.9349 -0.6558  1.3276
10935TIP3   OH254295   3.297   0.576  15.651 -0.3932  0.2909  0.9799
10935TIP3    H154296   3.224   0.515  15.638  0.8710 -0.9649 -0.4806
10935TIP3    H254297   3.361   0.525  15.700  1.6074 -0.3725 -2.1900
10936TIP3   OH254298   5.318   6.693  15.549 -0.2619 -0.1484 -0.0225
10936TIP3    H154299   5.363   6.635  15.610  1.3252  1.3212  0.2705
10936TIP3    H254300   5.313   6.644  15.468 -0.3154 -1.2691  0.6589
10937TIP3   OH254301   4.868   2.910   1.559  0.1577 -0.7597  0.6166
10937TIP3    H154302   4.782   2.932   1.593  0.4586 -0.0747  0.9354
10937TIP3    H254303   4.901   2.992   1.522  0.2616 -1.2479 -0.4107
10938TIP3   OH254304   5.010   4.525  15.954 -0.3947  0.1490 -0.4359
10938TIP3    H154305   5.027   4.436  15.987 -0.5944 -0.5525 -2.1756
10938TIP3    H254306   5.096   4.567  15.952  0.0177 -0.7432 -1.6910
10939TIP3   OH254307   6.416   3.103   2.420 -0.4619 -0.1237 -0.6228
10939TIP3    H154308   6.459   3.166   2.361 -1.0090  1.6544  0.8089
10939TIP3    H254309   6.325   3.131   2.421 -0.0387  1.3098  2.7986
10940TIP3   OH254310   7.069   1.645  15.604  0.6244 -0.0692 -0.1447
10940TIP3    H154311   7.023   1.592  15.539  0.0137  0.7773 -0.4161
10940TIP3    H254312   7.037   1.612  15.688  0.8895 -0.7009 -0.2942
10941TIP3   OH254313   6.309   1.426  15.317  0.4969 -0.4922 -0.0450
10941TIP3    H154314   6.301   1.496  15.382 -0.9220  1.0178 -1.8008
10941TIP3    H254315   6.221   1.391  15.309  0.5602 -0.3274 -1.5246
10942TIP3   OH254316   6.729   1.693   1.388 -0.6752 -0.0684 -0.0045
10942TIP3    H154317   6.743   1.599   1.381 -1.7345 -0.2682  0.5270
10942TIP3    H254318   6.814   1.728   1.416  0.0327 -0.7228 -1.2861
10943TIP3   OH254319   5.916   1.012  15.425 -0.2995 -0.1915 -0.1756
10943TIP3    H154320   5.903   1.075  15.354 -0.6785 -0.1329 -0.0580
10943TIP3    H254321   5.968   1.058  15.490  0.1576 -0.2877 -0.4732
10944TIP3   OH254322   4.322   0.602  13.860 -0.1550 -0.4849 -0.2495
10944TIP3    H154323   4.375   0.680  13.842 -0.8985 -0.3494 -1.9794
10944TIP3    H254324   4.382   0.543  13.906  0.5195  0.9619  0.7518
10945TIP3   OH254325   4.053   0.804   0.987 -0.3931 -0.3657  0.5656
10945TIP3    H154326   4.064   0.709   0.996 -0.6621 -0.4709 -0.1732
10945TIP3    H254327   3.959   0.816   0.974 -0.2060 -0.0974 -0.5268
10946TIP3   OH254328   4.480   0.545   1.767 -0.0232  0.3354 -0.7810
10946TIP3    H154329   4.465   0.629   1.724  0.5700  0.1611 -1.3414
10946TIP3    H254330   4.534   0.496   1.705 -1.1124 -0.7990 -0.8579
10947TIP3   OH254331   4.239   1.430   1.187 -0.2378 -0.7540  0.1286
10947TIP3    H154332   4.317   1.427   1.131 -1.3653  2.3491 -1.7274
10947TIP3    H254333   4.234   1.521   1.217 -2.4387 -1.2103  1.2267
10948TIP3   OH254334   6.077   6.720   1.874 -0.3254  0.4147 -0.3917
10948TIP3    H154335   6.019   6.681   1.940 -1.8058  2.6702 -0.2941
10948TIP3    H254336   6.164   6.719   1.914 -1.2879  2.1973  1.8408
10949TIP3   OH254337   4.467   2.389   2.319  0.3790  0.1279 -0.2136
10949TIP3    H154338   4.492   2.305   2.358  1.1208  0.1028 -0.7493
10949TIP3    H254339   4.547   2.440   2.319 -0.4628  1.5332  1.8554
10950TIP3   OH254340   5.716   1.811   1.065  0.7342  0.3167  0.4808
10950TIP3    H154341   5.799   1.781   1.029 -0.1535 -2.2148  0.4064
10950TIP3    H254342   5.730   1.815   1.159  0.8759 -0.4161  0.4954
10951TIP3   OH254343   4.617   1.324   2.664  0.6070 -0.1997  0.1931
10951TIP3    H154344   4.547   1.388   2.670 -1.1809 -2.2232  1.5190
10951TIP3    H254345   4.685   1.357   2.724  0.5621  1.4358 -0.6282
10952TIP3   OH254346   4.202   2.398   2.538  0.5542 -0.1252 -0.0639
10952TIP3    H154347   4.123   2.349   2.514 -0.2142  1.7099 -1.3570
10952TIP3    H254348   4.193   2.482   2.493  2.6782  0.5630  0.7447
10953TIP3   OH254349   5.535   5.818   1.658 -0.0740 -0.1834 -0.2897
10953TIP3    H154350   5.580   5.870   1.724  1.3639 -0.9294 -0.6717
10953TIP3    H254351   5.443   5.822   1.684  0.2379  1.0816  0.6781
10954TIP3   OH254352   4.027   7.026   3.470 -0.3790  1.2178 -0.1501
10954TIP3    H154353   4.001   7.052   3.558 -0.2284  0.1968  0.2047
10954TIP3    H254354   4.010   6.932   3.466  1.0520  0.9624 -0.6887
10955TIP3   OH254355   2.528   1.572   0.328 -0.4786 -0.1755  0.4629
10955TIP3    H154356   2.477   1.621   0.264  1.5552 -0.5878 -1.5321
10955TIP3    H254357   2.573   1.640   0.379  0.5032  0.1049 -0.7558
10956TIP3   OH254358   2.644   6.187   3.968  0.9171  0.7436 -0.7882
10956TIP3    H154359   2.587   6.263   3.972 -1.6775 -1.0642 -1.5441
10956TIP3    H254360   2.624   6.137   4.047 -0.6955 -1.2960 -2.4087
10957TIP3   OH254361   3.791   1.376   0.666  0.5367 -0.1465 -0.0124
10957TIP3    H154362   3.840   1.458   0.671  0.3090  0.0212 -0.5167
10957TIP3    H254363   3.711   1.393   0.715  1.3184 -0.6681  1.4750
10958TIP3   OH254364   0.191   7.257   0.461  0.2210  0.1835  0.1719
10958TIP3    H154365   0.098   7.276   0.466 -0.2115 -0.6791 -3.0504
10958TIP3    H254366   0.221   7.307   0.384  2.2400 -0.1911  0.6824
10959TIP3   OH254367   4.820   6.185   0.931 -0.4901 -0.1782  0.5013
10959TIP3    H154368   4.733   6.201   0.969 -0.3434  0.0773  0.7232
10959TIP3    H254369   4.813   6.219   0.842 -0.7524 -0.5523  0.3737
10960TIP3   OH254370   4.442   0.320   0.254 -0.0614  0.2494  0.2535
10960TIP3    H154371   4.526   0.361   0.230  1.3697 -1.8142  1.5464
10960TIP3    H254372   4.383   0.342   0.182  1.9151  0.8068 -1.2490
10961TIP3   OH254373   4.756   1.145   2.134  0.6074  0.5205 -0.2804
10961TIP3    H154374   4.739   1.238   2.148  1.5355  0.9621 -1.9169
10961TIP3    H254375   4.722   1.128   2.046  3.9778  0.2771 -1.6133
10962TIP3   OH254376   2.196   7.085   1.251 -0.3134  0.2512  0.4242
10962TIP3    H154377   2.151   7.164   1.281 -0.1084  0.1095  1.1037
10962TIP3    H254378   2.208   7.033   1.330  0.0555 -0.2084  0.0644
10963TIP3   OH254379   3.338   1.026   1.911 -0.4969 -0.0590 -0.7017
10963TIP3    H154380   3.282   0.993   1.982  1.0747  0.6249  0.9071
10963TIP3    H254381   3.410   0.963   1.906  0.6022  1.1176 -0.1070
10964TIP3   OH254382   4.469   2.344   1.733 -0.4061  0.3214  0.1935
10964TIP3    H154383   4.527   2.379   1.800 -0.5953  0.6934  0.1666
10964TIP3    H254384   4.381   2.358   1.768 -0.5019  0.4643 -0.1002
10965TIP3   OH254385   4.856   3.826   1.383  0.6125 -0.2310 -0.1165
10965TIP3    H154386   4.846   3.895   1.449 -0.9809 -1.5128  1.0473
10965TIP3    H254387   4.783   3.766   1.401  0.7991 -1.1693 -2.3746
10966TIP3   OH254388   5.122   2.214   1.472 -0.2120  0.1183 -0.9922
10966TIP3    H154389   5.186   2.178   1.533  1.2416  0.5305 -2.2253
10966TIP3    H254390   5.114   2.306   1.498 -1.6547 -0.3601  0.2758
10967TIP3   OH254391   6.375   7.313   1.826 -0.7791  0.2080  0.2996
10967TIP3    H154392   6.379   7.268   1.742 -1.3669  2.4770 -0.9887
10967TIP3    H254393   6.449   7.374   1.824  0.3741 -1.0592  2.2713
10968TIP3   OH254394   5.190   0.639   0.959 -0.5796  0.0805  0.0192
10968TIP3    H154395   5.194   0.543   0.958 -3.5529 -0.0871 -0.2798
10968TIP3    H254396   5.097   0.659   0.966  0.1467  2.9589  2.3021
10969TIP3   OH254397   4.706   3.060   2.242 -0.7373 -0.1345 -0.0875
10969TIP3    H154398   4.742   2.975   2.215 -1.0369  1.0829 -4.6013
10969TIP3    H254399   4.781   3.119   2.245 -1.1874  0.5183 -1.5399
10970TIP3   OH254400   3.278   5.437  15.898 -0.2079  0.3034 -0.4565
10970TIP3    H154401   3.367   5.472  15.887  0.0014 -0.3741 -0.9671
10970TIP3    H254402   3.269   5.424  15.992 -0.0021  0.9926 -0.3374
10971TIP3   OH254403   3.476   7.320   1.195 -0.0413 -0.1405 -0.2231
10971TIP3    H154404   3.526   7.375   1.135 -3.0264  1.3091 -1.5074
10971TIP3    H254405   3.505   7.230   1.176  1.4818  0.5905 -1.4345
10972TIP3   OH254406   4.523   2.465  15.542 -0.3245  0.2815  0.0069
10972TIP3    H154407   4.553   2.424  15.623  0.9039 -0.8599 -1.0197
10972TIP3    H254408   4.427   2.467  15.551 -0.0790  3.3873  3.0228
10973TIP3   OH254409   2.923   7.042   3.306 -0.3461  0.2766  0.0642
10973TIP3    H154410   2.999   7.002   3.263  0.2397  2.0904 -0.5991
10973TIP3    H254411   2.957   7.076   3.389 -0.8436 -0.5538  0.6211
10974TIP3   OH254412   4.380   4.355   2.174 -0.0817  0.1919  0.6376
10974TIP3    H154413   4.391   4.350   2.269  0.8898 -0.8897  0.4796
10974TIP3    H254414   4.342   4.270   2.150 -0.2211  0.4198  0.0422
10975TIP3   OH254415   2.807   0.691   0.119 -0.5281 -0.2318  0.5515
10975TIP3    H154416   2.792   0.600   0.090  1.4643 -0.2994 -0.4135
10975TIP3    H254417   2.803   0.687   0.214 -0.6138 -1.3197  0.5122
10976TIP3   OH254418   5.684   2.380   0.955 -0.2341  0.2200  0.6251
10976TIP3    H154419   5.625   2.306   0.971 -1.4984  1.4462  1.9304
10976TIP3    H254420   5.703   2.414   1.043 -1.9062  3.1070 -0.0627
10977TIP3   OH254421   0.035   0.897   2.938  0.4931  0.0244  0.1404
10977TIP3    H154422  -0.027   0.825   2.926  0.6437 -0.0797 -0.0068
10977TIP3    H254423   0.055   0.896   3.032 -0.3021  0.5286  0.3195
10978TIP3   OH254424   4.953   0.653   3.423  0.2971  0.1454  0.2326
10978TIP3    H154425   5.030   0.616   3.380  0.4479  0.2334  0.4264
10978TIP3    H254426   4.985   0.731   3.468  0.2468 -0.2440  0.9569
10979TIP3   OH254427   1.984   6.683   0.844  0.0944  0.5279  0.3581
10979TIP3    H154428   2.048   6.738   0.889  0.0310  1.9164 -1.1701
10979TIP3    H254429   1.961   6.734   0.766 -2.3214 -0.2714  0.5238
10980TIP3   OH254430   3.549   0.514  14.247  0.2354 -0.2780  0.5544
10980TIP3    H154431   3.514   0.505  14.159 -0.0246 -0.4593  0.6771
10980TIP3    H254432   3.617   0.581  14.239 -0.4658  0.4369  0.4041
10981TIP3   OH254433   5.408   6.725   1.285 -0.5610 -0.1315 -0.4556
10981TIP3    H154434   5.324   6.769   1.268 -0.2651  0.2519 -0.9329
10981TIP3    H254435   5.455   6.732   1.202  0.0332 -0.1584 -0.1152
10982TIP3   OH254436   4.821   0.297  15.213 -0.3032  0.0483 -0.4375
10982TIP3    H154437   4.730   0.310  15.188 -0.7665  0.7437  1.5120
10982TIP3    H254438   4.818   0.237  15.287  0.7509  0.6052  0.0779
10983TIP3   OH254439   6.991   3.598   0.984 -0.8609 -0.3066  0.1695
10983TIP3    H154440   7.085   3.611   1.001 -0.3908 -2.2636 -0.7912
10983TIP3    H254441   6.969   3.668   0.922 -0.4200  1.1359  1.6133
10984TIP3   OH254442   4.795   1.503  14.497 -0.6038  0.2402  0.0881
10984TIP3    H154443   4.811   1.425  14.550  0.9990  1.0415  0.8129
10984TIP3    H254444   4.878   1.521  14.454 -0.5812  2.2380  0.8749
10985TIP3   OH254445   4.391   1.415   1.452 -0.1025 -0.1562 -0.1490
10985TIP3    H154446   4.339   1.420   1.532  1.0241 -0.0889  0.5820
10985TIP3    H254447   4.396   1.505   1.421 -0.5384 -0.1819 -0.3059
10986TIP3   OH254448   1.710   7.083   0.290  0.2367 -0.3202 -0.1276
10986TIP3    H154449   1.750   7.094   0.204  2.4951  0.0562  0.9431
10986TIP3    H254450   1.693   7.172   0.320  0.0786 -0.4305  0.1165
10987TIP3   OH254451   4.335   2.232   1.425  0.5311  0.2771 -0.9183
10987TIP3    H154452   4.341   2.328   1.428 -1.4425  0.4098 -0.4636
10987TIP3    H254453   4.407   2.202   1.481  1.5414  1.4657 -1.5561
10988TIP3   OH254454   5.085   1.533   1.375  0.4708  0.0973 -0.2203
10988TIP3    H154455   5.032   1.564   1.449  1.3017 -1.1396  0.9044
10988TIP3    H254456   5.021   1.513   1.307 -0.4922 -0.9080  0.9442
10989TIP3   OH254457   0.815   0.017   0.697  0.0158 -0.4202  0.1844
10989TIP3    H154458   0.821   0.031   0.792  0.8644 -1.1670  0.2514
10989TIP3    H254459   0.725   0.039   0.675 -0.1692 -0.1710  1.1542
10990TIP3   OH254460   1.427   5.526   3.097 -0.4766 -0.3826  0.5920
10990TIP3    H154461   1.415   5.552   3.188  2.0648  0.8162  0.6193
10990TIP3    H254462   1.460   5.605   3.054 -2.1507 -0.7712 -1.5084
10991TIP3   OH254463   2.434   0.252   0.737  0.0772  0.5538 -0.1220
10991TIP3    H154464   2.413   0.332   0.784  0.5919 -0.7251  2.4197
10991TIP3    H254465   2.418   0.182   0.801  3.0856 -1.0957 -1.0832
10992TIP3   OH254466   3.268   1.715   1.228 -0.4330 -0.5054 -0.3243
10992TIP3    H154467   3.190   1.688   1.277 -0.5017  0.0807 -0.1033
10992TIP3    H254468   3.267   1.661   1.149 -1.8453  0.4932 -0.9987
10993TIP3   OH254469   3.623   2.178   1.792  0.2903 -0.2442  1.1268
10993TIP3    H154470   3.551   2.132   1.834 -0.6979  1.8463  1.8030
10993TIP3    H254471   3.580   2.236   1.729  1.6531 -2.1879 -1.6921
10994TIP3   OH254472   5.923   0.482   1.807 -0.4099  0.4867  0.6380
10994TIP3    H154473   5.896   0.391   1.819  1.5023 -0.0640  1.0241
10994TIP3    H254474   5.855   0.520   1.752 -1.5126 -1.0297  0.9049
10995TIP3   OH254475   4.873   2.963   0.786 -0.0967  0.0232 -0.0855
10995TIP3    H154476   4.888   2.912   0.866 -1.1857  0.7731  0.6318
10995TIP3    H254477   4.803   2.916   0.740 -1.2384  0.9310  0.6727
10996TIP3   OH254478   0.527   1.412   3.544  0.1844 -0.8764 -0.1949
10996TIP3    H154479   0.433   1.428   3.553  0.2753 -0.2984 -0.2808
10996TIP3    H254480   0.538   1.320   3.568 -0.4666 -1.0638 -0.5978
10997TIP3   OH254481   5.268   1.094   1.686  0.2388 -0.1750  0.9029
10997TIP3    H154482   5.207   1.024   1.660  1.2277 -0.6823 -0.0850
10997TIP3    H254483   5.328   1.102   1.612  1.2331  0.4947  1.7730
10998TIP3   OH254484   4.090   2.454   0.575 -0.3631 -0.0986 -0.0599
10998TIP3    H154485   4.012   2.397   0.578  1.6133 -2.8386  3.3220
10998TIP3    H254486   4.085   2.506   0.654  0.5322  0.7319 -0.5380
10999TIP3   OH254487   6.200   6.727  15.751  0.4544  0.1251  0.1111
10999TIP3    H154488   6.143   6.801  15.727  0.5655 -0.1604 -1.0427
10999TIP3    H254489   6.187   6.717  15.846  0.5587  1.7253  0.3119
11000TIP3   OH254490   5.639   3.406   1.546  0.0016  0.4517 -0.1316
11000TIP3    H154491   5.623   3.475   1.482  0.5437  1.6216  0.9653
11000TIP3    H254492   5.727   3.374   1.524 -0.3580 -0.0931 -0.8097
11001TIP3   OH254493   5.619   1.638  15.355  0.1584  0.4831 -0.0919
11001TIP3    H154494   5.616   1.614  15.262  1.9682 -0.6845  0.1184
11001TIP3    H254495   5.618   1.733  15.356  0.7665  0.5064 -1.3425
11002TIP3   OH254496   4.702   1.841   1.233 -0.0026  0.0913  0.0764
11002TIP3    H154497   4.754   1.767   1.203  1.0445  0.8849 -0.1202
11002TIP3    H254498   4.626   1.843   1.175 -0.0546 -0.8517  0.1121
11003TIP3   OH254499   5.293   0.560   3.440  0.0116 -0.4687  0.2383
11003TIP3    H154500   5.377   0.521   3.464 -0.4921 -2.5192 -1.2039
11003TIP3    H254501   5.241   0.487   3.407 -1.8702  1.0076 -0.1678
11004TIP3   OH254502   2.846   7.112   1.452 -0.4172 -0.1821  0.0888
11004TIP3    H154503   2.916   7.109   1.387  0.0309 -0.4499  0.5678
11004TIP3    H254504   2.830   7.205   1.467 -0.5124 -0.1232 -0.3960
11005TIP3   OH254505   6.374   5.820  14.483  0.1486  0.2800  0.1934
11005TIP3    H154506   6.368   5.796  14.391  0.2814 -1.1157  0.5398
11005TIP3    H254507   6.466   5.808  14.506 -0.0955 -0.5120  0.7958
11006TIP3   OH254508   4.502   0.784  14.976  0.4149 -0.3228  0.0336
11006TIP3    H154509   4.560   0.742  15.038 -0.1817 -0.3956  0.5453
11006TIP3    H254510   4.487   0.718  14.908 -0.7577 -1.0728  0.9821
11007TIP3   OH254511   4.741   0.914  14.240  0.7508  0.2066  0.6257
11007TIP3    H154512   4.670   0.861  14.205  0.5787  0.4292  0.6318
11007TIP3    H254513   4.775   0.962  14.164 -0.7822  2.0300  1.0350
11008TIP3   OH254514   6.275   0.389   0.639 -1.4686 -0.1376  0.5812
11008TIP3    H154515   6.265   0.434   0.555 -0.0370 -0.6305  0.1255
11008TIP3    H254516   6.186   0.373   0.668 -1.9870  0.3144 -0.7032
11009TIP3   OH254517   4.850   0.613   1.305  0.0407  0.3643  0.6206
11009TIP3    H154518   4.940   0.634   1.281  1.3647 -1.3112  3.9233
11009TIP3    H254519   4.814   0.572   1.227  2.3141  0.4640 -0.5288
11010TIP3   OH254520   5.427   1.021   1.148  0.3247  0.1618 -0.2223
11010TIP3    H154521   5.407   0.972   1.068  2.3684 -0.4262 -0.4044
11010TIP3    H254522   5.354   1.083   1.157 -1.7156 -2.0894 -0.6172
11011TIP3   OH254523   6.533   6.059   1.252  0.1761  0.0397  0.9158
11011TIP3    H154524   6.473   6.130   1.229 -0.6530 -0.9643 -0.0542
11011TIP3    H254525   6.590   6.051   1.176 -0.4883 -1.1219  0.5404
11012TIP3   OH254526   3.256   3.598  15.301 -0.1593  0.2776  0.2373
11012TIP3    H154527   3.258   3.576  15.394  1.0988 -1.2921 -0.1225
11012TIP3    H254528   3.247   3.513  15.257 -1.1117  1.0345 -1.0658
11013TIP3   OH254529   5.394   1.920   0.618  0.4054  0.4984 -0.3572
11013TIP3    H154530   5.366   1.852   0.556 -1.5249  0.8386  0.0955
11013TIP3    H254531   5.409   1.873   0.699 -1.6833  0.6770  0.1659
11014TIP3   OH254532   6.060   3.106  15.769  0.7898  0.3097  0.0100
11014TIP3    H154533   6.056   3.133  15.677  1.0349  0.4990  0.0534
11014TIP3    H254534   6.153   3.088  15.784  0.6677 -0.2743  0.0613
11015TIP3   OH254535   0.209   1.127   1.261  0.1189 -0.3294  0.7968
11015TIP3    H154536   0.239   1.151   1.348 -0.7086  2.0704  0.4625
11015TIP3    H254537   0.249   1.192   1.203 -0.0149 -1.3924 -0.5183
11016TIP3   OH254538   3.982   1.509   2.550 -0.2770 -1.0518  0.4122
11016TIP3    H154539   3.934   1.437   2.591 -0.7938 -0.1761  1.3766
11016TIP3    H254540   4.042   1.540   2.617 -0.9474  0.2310  0.4450
11017TIP3   OH254541   5.840   0.820   0.944 -0.1710  0.1718  0.1549
11017TIP3    H154542   5.782   0.780   0.880 -1.8095  2.4641  0.1398
11017TIP3    H254543   5.791   0.816   1.027 -0.0690  1.4654  0.2914
11018TIP3   OH254544   6.206   1.708  15.718 -0.1695 -0.2670  0.6083
11018TIP3    H154545   6.266   1.634  15.728 -1.4303 -1.3264  0.5262
11018TIP3    H254546   6.232   1.769  15.787 -0.2823 -1.6157  1.8676
11019TIP3   OH254547   6.616   1.368  14.188  0.0901 -0.3250  0.1711
11019TIP3    H154548   6.547   1.423  14.226  0.7178  0.3723  0.3048
11019TIP3    H254549   6.636   1.409  14.104  2.9637  1.6794  1.7547
11020TIP3   OH254550   6.636   3.277  15.918 -0.1183 -0.2715  0.7264
11020TIP3    H154551   6.702   3.226  15.965  0.6600  0.8222  0.8595
11020TIP3    H254552   6.682   3.308  15.840 -0.5286  0.3372  0.7238
11021TIP3   OH254553   6.060   0.733  15.004  0.1446 -0.2927  0.0021
11021TIP3    H154554   6.008   0.808  14.974 -1.2714 -1.1153  0.3304
11021TIP3    H254555   6.001   0.658  14.994  1.8042 -1.4783 -1.0571
11022TIP3   OH254556   5.245   1.491  13.186  0.1146 -0.3328 -0.2520
11022TIP3    H154557   5.289   1.414  13.149 -1.6084 -0.2805 -2.5267
11022TIP3    H254558   5.280   1.565  13.135  2.5644  0.6221  2.6145
11023TIP3   OH254559   6.702   7.235   1.388  0.3106  0.3877  0.2782
11023TIP3    H154560   6.738   7.176   1.455 -0.7463 -0.2320  0.3169
11023TIP3    H254561   6.698   7.320   1.431  1.3929  0.3849  0.3861
11024TIP3   OH254562   1.919   1.494   1.728  0.3838 -0.0053  0.3778
11024TIP3    H154563   2.009   1.481   1.698  0.1259 -0.5808 -0.1526
11024TIP3    H254564   1.909   1.430   1.799 -0.8877 -2.8280 -2.2352
11025TIP3   OH254565   5.412   1.184  15.872  0.1733 -0.2018 -0.3358
11025TIP3    H154566   5.461   1.256  15.911  2.1682 -0.8444 -1.5400
11025TIP3    H254567   5.326   1.221  15.852  0.1322  0.9727  1.8046
11026TIP3   OH254568   5.985   0.761   3.029  0.2784  0.1391  0.0267
11026TIP3    H154569   5.934   0.803   3.099 -0.3552  0.4135 -0.5911
11026TIP3    H254570   6.075   0.764   3.060 -0.1547 -0.9175  1.4115
11027TIP3   OH254571   4.686   0.759   0.901 -0.2859 -0.0790  0.2120
11027TIP3    H154572   4.665   0.666   0.902  0.9817 -0.3540  1.2652
11027TIP3    H254573   4.614   0.798   0.850 -0.9474 -1.5806 -0.0515
11028TIP3   OH254574   6.237   2.419   0.134 -0.2736  0.0958  0.5627
11028TIP3    H154575   6.171   2.372   0.184  0.2248 -2.0967 -0.7531
11028TIP3    H254576   6.290   2.349   0.094  1.5981  1.7961 -0.0019
11029TIP3   OH254577   6.313   1.365   1.639 -0.3808 -0.2576 -0.4615
11029TIP3    H154578   6.230   1.405   1.664 -0.5637 -1.4827  0.9378
11029TIP3    H254579   6.287   1.282   1.597  0.1648 -1.3103  1.2392
11030TIP3   OH254580   6.670   3.717  13.964  0.3178 -0.3891  0.1183
11030TIP3    H154581   6.709   3.641  14.007  1.5028  1.0218  1.5842
11030TIP3    H254582   6.745   3.765  13.928 -0.4358  0.0374 -0.9046
11031TIP3   OH254583   4.805   3.518   1.901 -0.0733 -0.0449 -0.0733
11031TIP3    H154584   4.827   3.444   1.957 -0.1651  0.2516  0.3566
11031TIP3    H254585   4.830   3.595   1.952 -0.9614  0.2583 -0.0749
11032TIP3   OH254586   6.860   2.639   1.679 -0.1825  0.3496 -0.1974
11032TIP3    H154587   6.888   2.681   1.760  0.1204  0.4080 -0.3342
11032TIP3    H254588   6.776   2.681   1.659 -0.2601  0.3325  0.0860
11033TIP3   OH254589   5.294   4.742   0.498 -0.1188 -0.2075 -0.2586
11033TIP3    H154590   5.353   4.757   0.424 -0.4417 -1.9798 -0.8976
11033TIP3    H254591   5.218   4.700   0.459 -1.1625  0.6810  0.7986
11034TIP3   OH254592   0.347   6.594  15.372 -0.2680 -0.1151 -0.0140
11034TIP3    H154593   0.365   6.533  15.444 -0.2239  0.6351  0.6196
11034TIP3    H254594   0.251   6.595  15.365 -0.2335 -0.9879 -0.6673
11035TIP3   OH254595   5.913   1.657   0.927  0.4493  0.0406 -0.7677
11035TIP3    H154596   5.970   1.734   0.931  0.6886 -0.1690 -0.1253
11035TIP3    H254597   5.974   1.583   0.927  0.2959 -0.1188 -3.1815
11036TIP3   OH254598   5.130   3.328   1.596 -0.1343  0.4563  0.0550
11036TIP3    H154599   5.206   3.357   1.646 -1.3118  0.0664  2.1098
11036TIP3    H254600   5.055   3.366   1.641 -1.2572 -0.2381 -1.1857
11037TIP3   OH254601   3.813   3.201   0.309 -0.7513 -0.0873  0.0105
11037TIP3    H154602   3.850   3.162   0.388 -0.8154 -0.1772 -0.0046
11037TIP3    H254603   3.828   3.136   0.241 -2.7334 -0.9797  0.4055
11038TIP3   OH254604   6.045   3.363   2.520  0.0538 -0.0849 -0.1128
11038TIP3    H154605   6.104   3.292   2.496 -0.9221 -0.5030 -1.3072
11038TIP3    H254606   5.980   3.322   2.578  0.2575  0.1202  0.2610
11039TIP3   OH254607   6.651   6.325  15.034 -0.3961  0.9516 -0.2068
11039TIP3    H154608   6.736   6.285  15.055 -0.0396  1.9829  0.3270
11039TIP3    H254609   6.624   6.368  15.115 -0.9914  1.4356 -0.6535
11040TIP3   OH254610   6.490   3.542   1.498  0.2152 -0.0452  0.2379
11040TIP3    H154611   6.555   3.596   1.542 -0.9591  1.4518  0.1818
11040TIP3    H254612   6.439   3.603   1.445 -0.5021 -1.3562 -0.6250
11041TIP3   OH254613   7.014   1.092  14.969  0.0247  0.0474  0.1651
11041TIP3    H154614   6.954   1.055  14.904 -0.2306  0.5411  0.1221
11041TIP3    H254615   7.022   1.184  14.945  1.8037 -0.2774 -0.6034
11042TIP3   OH254616   7.010   1.450  15.421  0.1499 -0.2773  0.2027
11042TIP3    H154617   7.013   1.418  15.331  2.3691  1.5397 -0.4293
11042TIP3    H254618   7.064   1.389  15.471 -0.8302 -1.1069  0.2661
11043TIP3   OH254619   2.062   1.108   2.591 -0.4858 -0.2271 -0.8664
11043TIP3    H154620   2.054   1.055   2.670 -2.6000  0.4403 -0.6019
11043TIP3    H254621   2.100   1.191   2.621 -3.0949  0.7537 -0.1944
11044TIP3   OH254622   3.543   3.378   1.571  0.0904 -0.2472 -0.0168
11044TIP3    H154623   3.572   3.431   1.645 -0.6820 -0.7560  0.6624
11044TIP3    H254624   3.525   3.292   1.608 -0.1762 -0.5495 -0.8220
11045TIP3   OH254625   3.679   0.783   0.696  0.1073 -0.1927 -0.5137
11045TIP3    H154626   3.722   0.799   0.780 -0.4110 -1.7075  0.0545
11045TIP3    H254627   3.625   0.860   0.681  0.3070  0.1394  0.4753
11046TIP3   OH254628   4.960   6.978   1.417 -0.1942  0.0118  0.1707
11046TIP3    H154629   4.919   7.011   1.336  0.5658 -1.0969 -0.6720
11046TIP3    H254630   5.051   6.964   1.394 -0.2143 -1.4066  0.9029
11047TIP3   OH254631   0.247   1.084   0.282  0.0574 -0.0824 -0.4209
11047TIP3    H154632   0.245   0.989   0.273  0.3973 -0.3024  1.6865
11047TIP3    H254633   0.215   1.116   0.197 -1.0378 -2.0730 -0.8001
11048TIP3   OH254634   6.134   3.532  14.171  0.1248  0.4746 -0.4693
11048TIP3    H154635   6.099   3.510  14.085  0.3076 -0.2653 -0.3582
11048TIP3    H254636   6.215   3.482  14.177 -0.6243 -0.6375  0.7151
11049TIP3   OH254637   6.381   1.670   0.893 -0.0481 -0.1313 -0.3311
11049TIP3    H154638   6.440   1.656   0.967  1.1538 -2.5362 -1.7070
11049TIP3    H254639   6.302   1.621   0.916  0.9777 -2.2946 -1.4016
11050TIP3   OH254640   0.224   1.706   2.848  0.1979 -0.0291 -0.2879
11050TIP3    H154641   0.130   1.727   2.851  0.5658  1.8563 -0.8236
11050TIP3    H254642   0.228   1.616   2.817 -1.4096  0.3753 -1.7473
11051TIP3   OH254643   3.789   1.164   0.989 -0.3710  0.1422  0.4614
11051TIP3    H154644   3.725   1.194   1.054 -0.1136  0.9372  0.3495
11051TIP3    H254645   3.779   1.225   0.916  0.5684  0.3004  0.4714
11052TIP3   OH254646   5.572   6.588   0.593  0.0668 -0.2597 -0.1925
11052TIP3    H154647   5.625   6.510   0.575  1.5521  0.5319  0.6498
11052TIP3    H254648   5.574   6.596   0.688  0.0865  0.9209 -0.2924
11053TIP3   OH254649   4.706   1.697   2.635  0.0250  0.0232  0.3026
11053TIP3    H154650   4.709   1.701   2.539  3.9168  0.3367  0.3589
11053TIP3    H254651   4.751   1.616   2.657  0.1841  0.5225  1.8937
11054TIP3   OH254652   1.101   2.486   0.636  0.2123  0.4407  0.2364
11054TIP3    H154653   1.072   2.577   0.642 -0.1647  0.1929  2.7364
11054TIP3    H254654   1.078   2.460   0.547 -2.6957  1.8130  0.5040
11055TIP3   OH254655   2.840   1.739   2.293 -0.2788  0.6669 -0.0184
11055TIP3    H154656   2.767   1.776   2.243 -0.5021 -0.8000 -0.8011
11055TIP3    H254657   2.908   1.724   2.228 -0.1345 -0.1339  0.3081
11056TIP3   OH254658   7.233   5.003  14.257  0.4625  0.0636 -0.1135
11056TIP3    H154659   7.249   4.910  14.271 -0.9695  0.0720  1.7897
11056TIP3    H254660   7.189   5.008  14.172  0.3300 -1.0109 -0.1034
11057TIP3   OH254661   3.646   6.918   0.926  0.5836 -0.0800 -0.5032
11057TIP3    H154662   3.708   6.948   0.859 -0.6017  1.0994 -1.0797
11057TIP3    H254663   3.622   6.830   0.898 -0.6918  0.7866 -2.2258
11058TIP3   OH254664   6.496   1.055   2.692  0.1533 -1.0585  0.5590
11058TIP3    H154665   6.499   1.087   2.602  0.9919 -0.1064  0.9257
11058TIP3    H254666   6.403   1.060   2.716  0.1075 -0.1190  0.1842
11059TIP3   OH254667   0.572   3.274   0.880 -0.0256 -0.1498 -0.0901
11059TIP3    H154668   0.665   3.293   0.869 -0.0979  0.0959 -0.3006
11059TIP3    H254669   0.543   3.249   0.792  0.4650 -3.0432  0.5168
11060TIP3   OH254670   5.758   1.550  15.093 -0.4933 -0.1271  0.0193
11060TIP3    H154671   5.849   1.578  15.104 -1.1188  1.8492  0.2349
11060TIP3    H254672   5.764   1.465  15.049  1.4843 -0.4564  0.8776
11061TIP3   OH254673   4.335   0.446  14.561 -0.1531 -0.4767  0.3301
11061TIP3    H154674   4.286   0.416  14.484  0.1828  0.2844 -0.1847
11061TIP3    H254675   4.393   0.373  14.582 -0.9788 -1.0939  0.4977
11062TIP3   OH254676   6.590   7.021   0.625 -0.7922 -0.3499  0.1138
11062TIP3    H154677   6.574   6.927   0.640 -0.1328 -0.7991 -1.9481
11062TIP3    H254678   6.504   7.056   0.604 -1.5679  0.0967  3.5935
11063TIP3   OH254679   5.826   0.435   0.979  0.1287  0.0922 -0.8559
11063TIP3    H154680   5.851   0.527   0.967  1.1468 -0.1207 -0.3647
11063TIP3    H254681   5.769   0.435   1.056  1.5405  0.0668  0.1939
11064TIP3   OH254682   5.254   1.312   1.366  0.0346  0.1131 -0.2702
11064TIP3    H154683   5.183   1.305   1.430  0.8386 -2.6653  0.3930
11064TIP3    H254684   5.277   1.405   1.366 -1.6331  0.5651  1.6827
11065TIP3   OH254685   6.157   3.279   2.209  0.9058  0.2954  0.2398
11065TIP3    H154686   6.126   3.351   2.265  0.7137 -0.9565  1.7641
11065TIP3    H254687   6.249   3.301   2.192  0.6928  1.2079  0.2179
11066TIP3   OH254688   4.924   0.651   0.957  0.2510 -0.2056  0.3376
11066TIP3    H154689   4.849   0.706   0.936  1.5207  0.3483 -3.2471
11066TIP3    H254690   4.887   0.570   0.991 -1.8379  1.0738  1.1458
11067TIP3   OH254691   4.328   0.801  15.332  0.2829 -0.5390  0.4405
11067TIP3    H154692   4.342   0.818  15.426 -2.0500 -1.3843  0.9773
11067TIP3    H254693   4.344   0.886  15.290 -1.4301  0.5940  1.9592
11068TIP3   OH254694   6.952   6.844   2.299  0.1213 -0.3472  0.2225
11068TIP3    H154695   6.940   6.887   2.384  0.8885  0.6131 -0.1491
11068TIP3    H254696   6.864   6.836   2.264  0.0712  2.1264 -0.2764
11069TIP3   OH254697   7.131   0.421   0.887 -0.3206  0.1245  0.1869
11069TIP3    H154698   7.081   0.394   0.964 -0.9589 -0.6544 -0.4926
11069TIP3    H254699   7.223   0.418   0.915 -0.5428 -0.3270  0.8571
11070TIP3   OH254700   5.888   1.493  14.478 -0.1530  0.5004 -0.1650
11070TIP3    H154701   5.883   1.481  14.383  1.3659  1.2513 -0.3486
11070TIP3    H254702   5.872   1.406  14.514 -0.2037  0.1012 -1.1234
11071TIP3   OH254703   3.710   4.538   1.147 -0.6644 -0.0083  0.4995
11071TIP3    H154704   3.745   4.450   1.162 -1.0836 -0.5403 -1.5112
11071TIP3    H254705   3.621   4.523   1.114 -0.5095  1.1530 -0.4588
11072TIP3   OH254706   5.466   1.995  13.651 -0.0111 -0.4198 -0.7661
11072TIP3    H154707   5.398   2.058  13.673 -0.0333 -0.3213 -1.1186
11072TIP3    H254708   5.495   1.961  13.735  0.5129  0.6007 -0.5303
11073TIP3   OH254709   5.682   3.562   2.104  0.0775  0.5147  0.5807
11073TIP3    H154710   5.737   3.637   2.129 -2.6189  2.4136  1.0409
11073TIP3    H254711   5.658   3.580   2.013 -2.2462  1.3036  1.3222
11074TIP3   OH254712   5.877   0.823  13.675  0.0769 -0.7143  0.2941
11074TIP3    H154713   5.972   0.820  13.683  0.1290 -2.1874 -0.6916
11074TIP3    H254714   5.850   0.892  13.735  1.8601  0.5462 -0.3243
11075TIP3   OH254715   4.813   0.995   1.564 -0.2274 -0.0964  0.3225
11075TIP3    H154716   4.782   0.923   1.508 -0.7626 -0.5000  1.1219
11075TIP3    H254717   4.855   0.951   1.638  0.5911  0.4341  0.1761
11076TIP3   OH254718   5.732   1.355   0.197  0.1992 -0.3479  0.1993
11076TIP3    H154719   5.690   1.373   0.282  0.2938  0.3597  0.1002
11076TIP3    H254720   5.818   1.397   0.203  0.1281 -0.1208 -0.3167
11077TIP3   OH254721   3.957   6.753   2.264  0.5509  0.0798  0.4973
11077TIP3    H154722   3.949   6.736   2.358 -0.8963  1.1735  0.5989
11077TIP3    H254723   3.986   6.845   2.259 -0.8463  0.4976 -0.1329
11078TIP3   OH254724   6.681   0.140   1.556 -0.0823 -0.1977 -0.2044
11078TIP3    H154725   6.588   0.158   1.544  0.1293  1.1770  0.1764
11078TIP3    H254726   6.693   0.132   1.650 -0.0515 -1.7875 -0.3198
11079TIP3   OH254727   5.137   3.696   1.367  0.2438  0.3957  0.4268
11079TIP3    H154728   5.073   3.767   1.358 -0.3133  0.0534  1.5621
11079TIP3    H254729   5.149   3.687   1.461  2.7280  1.1126  0.2150
11080TIP3   OH254730   7.012   1.775   0.612 -0.2238 -0.2810 -0.4453
11080TIP3    H154731   6.934   1.777   0.669 -1.5622  2.8685 -2.2287
11080TIP3    H254732   6.981   1.812   0.529  2.7586 -0.6839 -1.7794
11081TIP3   OH254733   5.392   0.726  15.147  0.3472  0.3821 -0.5039
11081TIP3    H154734   5.453   0.753  15.216  0.4523  0.4683 -0.6291
11081TIP3    H254735   5.377   0.806  15.096  1.3808  0.0119 -1.4230
11082TIP3   OH254736   2.614   0.978  15.476 -0.1210  0.5181  0.3605
11082TIP3    H154737   2.691   1.017  15.516 -0.3339  0.8999  0.4060
11082TIP3    H254738   2.597   1.034  15.399 -1.4596  1.5726  1.4041
11083TIP3   OH254739   6.403   1.958   1.574 -0.3898 -0.0547 -0.1115
11083TIP3    H154740   6.359   1.932   1.655 -2.3825  0.7339 -0.8904
11083TIP3    H254741   6.481   1.903   1.570 -1.0193 -1.1200  1.6211
11084TIP3   OH254742   4.699   0.657  15.104 -0.3999 -0.0148 -0.2313
11084TIP3    H154743   4.772   0.633  15.048 -0.2755  0.8273 -0.4301
11084TIP3    H254744   4.739   0.674  15.190 -0.4908 -0.5238 -0.0860
11085TIP3   OH254745   6.076   3.061   2.062  0.1876 -0.6006  0.0007
11085TIP3    H154746   6.163   3.048   2.022  0.8425  1.8111  0.5664
11085TIP3    H254747   6.089   3.131   2.126 -2.0534 -0.6605  0.5632
11086TIP3   OH254748   4.750   2.580  15.983 -0.7445 -0.0329  0.0859
11086TIP3    H154749   4.720   2.490  15.972 -0.6366 -0.2810  1.6549
11086TIP3    H254750   4.673   2.634  15.964 -1.7972 -0.6032  2.5368
11087TIP3   OH254751   7.076   1.316   0.723 -0.2154 -0.2878  0.4382
11087TIP3    H154752   7.014   1.349   0.658 -0.1370 -1.1312 -0.0701
11087TIP3    H254753   7.113   1.395   0.764  1.3142  0.3222 -2.0181
11088TIP3   OH254754   0.033   3.881   1.573 -0.1895 -0.4504  0.0004
11088TIP3    H154755  -0.045   3.923   1.608 -1.4045 -0.8931 -2.1042
11088TIP3    H254756   0.098   3.951   1.568  0.0626 -0.3879  3.1329
11089TIP3   OH254757   5.324   0.646  14.680  0.0356  0.6399  0.6020
11089TIP3    H154758   5.366   0.611  14.601  1.1042  1.0932  0.9530
11089TIP3    H254759   5.233   0.617  14.674  0.1603  0.4937 -0.6873
11090TIP3   OH254760   7.242   3.034   1.237 -0.3146 -0.2307 -0.2885
11090TIP3    H154761   7.299   2.989   1.176  0.4809  1.9364 -1.1850
11090TIP3    H254762   7.301   3.070   1.303 -0.7332  1.0894 -0.6212
11091TIP3   OH254763   6.099   7.001   2.018  0.3088 -0.3733 -0.2652
11091TIP3    H154764   6.080   6.907   2.018  0.4549 -0.4040 -0.6896
11091TIP3    H254765   6.130   7.019   1.929  1.5220 -0.1795  0.1906
11092TIP3   OH254766   5.404   2.872  15.748  0.4423 -0.2486  0.2891
11092TIP3    H154767   5.321   2.856  15.703  0.0268 -1.4450  1.4594
11092TIP3    H254768   5.399   2.963  15.777 -0.4748 -0.3323  0.3948
11093TIP3   OH254769   6.048   0.998   0.644  0.0347 -0.3183  0.0723
11093TIP3    H154770   6.121   1.053   0.614 -0.3060  0.9983  1.6043
11093TIP3    H254771   6.059   0.916   0.596  2.1083  0.1212 -0.2557
11094TIP3   OH254772   5.821   2.792   0.479  0.3386 -0.2182  0.3396
11094TIP3    H154773   5.826   2.876   0.524 -0.2258  0.2090 -0.3825
11094TIP3    H254774   5.770   2.810   0.400 -0.4518 -1.4100  0.5628
11095TIP3   OH254775   5.409   1.374  13.854 -0.0445 -0.5449  0.4171
11095TIP3    H154776   5.462   1.318  13.797  0.8953  0.4875  0.2715
11095TIP3    H254777   5.455   1.458  13.855 -0.5588 -0.2660  1.9507
11096TIP3   OH254778   5.180   0.258  14.943 -0.3413  0.2789  0.1730
11096TIP3    H154779   5.095   0.214  14.952 -0.0062 -0.3749  0.1553
11096TIP3    H254780   5.193   0.266  14.849 -0.4971  0.6205  0.1766
11097TIP3   OH254781   5.198   0.959   1.985  0.2576  0.4582 -0.2839
11097TIP3    H154782   5.252   0.889   2.021  0.0348  0.1541 -0.5331
11097TIP3    H254783   5.158   1.000   2.061  0.1354  0.1059 -0.1578
11098TIP3   OH254784   4.942   5.843   3.319 -0.1978 -0.1086  0.4263
11098TIP3    H154785   4.930   5.924   3.269  0.4400  0.6821  1.5387
11098TIP3    H254786   4.946   5.774   3.253 -1.6866  0.6549 -0.4889
11099TIP3   OH254787   6.257   0.058   2.442 -0.1369  0.3360 -1.1229
11099TIP3    H154788   6.226   0.091   2.527 -0.1986  1.2475 -1.4952
11099TIP3    H254789   6.250   0.133   2.383  2.3698  0.4586 -1.3193
11100TIP3   OH254790   5.588   0.038   1.485  0.2657  0.7466 -0.0028
11100TIP3    H154791   5.514   0.024   1.544  1.4779  0.3128  1.4523
11100TIP3    H254792   5.584  -0.035   1.423 -1.3697  1.5357 -0.8717
11101TIP3   OH254793   0.270   1.356   0.760  0.2237 -1.0002  0.5262
11101TIP3    H154794   0.201   1.290   0.757 -0.8736  0.1467 -0.4038
11101TIP3    H254795   0.306   1.356   0.671  1.1699 -1.3317  0.9116
11102TIP3   OH254796   7.011   2.053  15.393 -0.1525 -0.3235  0.1886
11102TIP3    H154797   6.928   2.072  15.350  0.2732  1.6410  0.1912
11102TIP3    H254798   7.071   2.031  15.322 -0.0438  0.6739 -0.0329
11103TIP3   OH254799   0.876   0.985   2.906  0.4479 -0.3298  0.0937
11103TIP3    H154800   0.819   1.060   2.888  1.6146  0.2507 -1.3687
11103TIP3    H254801   0.944   1.020   2.962  0.5907 -0.4661  0.0052
11104TIP3   OH254802   6.107   0.405   0.915  0.4601 -0.4697  0.7486
11104TIP3    H154803   6.110   0.498   0.893  0.1256 -0.6051  0.1389
11104TIP3    H254804   6.022   0.394   0.959  0.3471 -0.5602  0.5044
11105TIP3   OH254805   6.849   0.436  15.335  0.3342 -0.5296 -0.1922
11105TIP3    H154806   6.918   0.497  15.360  0.4920 -0.7096 -0.1783
11105TIP3    H254807   6.822   0.464  15.247  0.4575 -0.4853 -0.2164
11106TIP3   OH254808   5.647   1.989   2.525 -0.2088  0.1628  0.6407
11106TIP3    H154809   5.693   2.035   2.595 -0.4415  0.4129  0.6314
11106TIP3    H254810   5.648   2.050   2.451  0.1205 -0.1398  0.3957
11107TIP3   OH254811   7.195   0.867   1.826 -0.9753  0.6497  0.2691
11107TIP3    H154812   7.170   0.890   1.916 -2.2445 -0.0022  0.0955
11107TIP3    H254813   7.277   0.914   1.811 -0.1444 -0.1558  2.1734
11108TIP3   OH254814   6.449   1.166   1.410  0.3816 -0.1004  0.2475
11108TIP3    H154815   6.411   1.112   1.480  1.2791 -0.2105  0.6576
11108TIP3    H254816   6.495   1.103   1.354  0.7549  0.1371  0.2828
11109TIP3   OH254817   6.810   2.026  14.371 -0.3536 -0.0347  0.1776
11109TIP3    H154818   6.796   1.932  14.375 -0.8515 -0.0047 -0.7466
11109TIP3    H254819   6.906   2.035  14.373 -0.3035 -0.5568  0.3062
11110TIP3   OH254820   4.195   4.100   0.030  0.2736 -0.2723 -0.0912
11110TIP3    H154821   4.181   4.177  -0.025 -1.2758 -2.0142 -2.2131
11110TIP3    H254822   4.202   4.027  -0.031  3.6472 -1.6483  1.7532
11111TIP3   OH254823   5.642   0.742   1.980  0.4165  0.2138  0.0610
11111TIP3    H154824   5.626   0.685   1.906  0.2929 -0.6285  0.7277
11111TIP3    H254825   5.700   0.810   1.947 -1.1423  0.9127 -1.2962
11112TIP3   OH254826   0.053   5.897  15.718 -0.3002 -0.2699 -0.1459
11112TIP3    H154827   0.098   5.980  15.735 -0.7235 -0.2460  0.8729
11112TIP3    H254828   0.013   5.874  15.802  2.4403 -3.1233  0.4821
11113TIP3   OH254829   6.453   2.147   2.341  0.0779 -0.4397  0.3761
11113TIP3    H154830   6.389   2.122   2.274  0.1678 -0.3156  0.2420
11113TIP3    H254831   6.522   2.192   2.292 -0.0319 -0.0316  0.6001
11114TIP3   OH254832   1.263   1.978  14.721 -0.3546 -0.3265 -0.5176
11114TIP3    H154833   1.259   2.056  14.666 -0.3770 -0.6415 -0.9714
11114TIP3    H254834   1.306   1.912  14.666  1.1813 -0.1440  0.4606
11115TIP3   OH254835   5.068   1.620   0.416  0.2967 -0.0907  0.2893
11115TIP3    H154836   5.115   1.704   0.416 -1.6382  1.0262  0.1357
11115TIP3    H254837   5.113   1.568   0.483  1.5333  1.0635  0.3840
11116TIP3   OH254838   4.524   0.742   0.516 -0.0317  0.3930 -0.1091
11116TIP3    H154839   4.581   0.792   0.457 -0.6035 -0.1526 -1.1331
11116TIP3    H254840   4.497   0.805   0.583  2.1727  0.5375  0.6910
11117TIP3   OH254841   6.478   2.051   0.357 -0.0960 -0.3323 -0.1950
11117TIP3    H154842   6.405   2.047   0.295  0.4051  1.6526 -0.9482
11117TIP3    H254843   6.436   2.060   0.443 -0.7458  0.6893 -0.6162
11118TIP3   OH254844   4.963   0.207   1.023 -0.4660 -0.8930  0.3152
11118TIP3    H154845   4.938   0.166   0.940 -0.0396  1.1723 -0.8766
11118TIP3    H254846   4.901   0.280   1.033  0.5865 -0.0684  0.9163
11119TIP3   OH254847   6.187   0.322   4.709  0.4603 -0.0280 -0.0596
11119TIP3    H154848   6.201   0.382   4.781  0.6520  0.1753 -0.2651
11119TIP3    H254849   6.158   0.378   4.636  2.3957  0.0571 -0.7896
11120TIP3   OH254850   0.050   6.720  14.284  0.1916 -0.0582 -0.0680
11120TIP3    H154851  -0.018   6.778  14.319  1.1972  1.2298 -0.1983
11120TIP3    H254852   0.046   6.642  14.340 -1.4170 -0.0320 -0.1099
11121TIP3   OH254853   7.141   1.241   5.070  0.3008 -0.0044 -0.0637
11121TIP3    H154854   7.171   1.194   5.147 -0.6301 -2.7466 -1.3144
11121TIP3    H254855   7.082   1.308   5.104  2.0369  0.6450  1.7830
11122TIP3   OH254856   5.874   1.875  13.890 -0.0346 -0.1151  0.9857
11122TIP3    H154857   5.909   1.899  13.976 -1.4966 -0.3570  1.6534
11122TIP3    H254858   5.925   1.799  13.863  0.6250  0.1415  1.4935
11123TIP3   OH254859   7.222   1.163  15.335 -0.1213 -0.2515 -0.3353
11123TIP3    H154860   7.195   1.146  15.425 -1.5664 -1.7830 -1.0244
11123TIP3    H254861   7.234   1.257  15.330 -2.0646  0.0797  0.9206
11124TIP3   OH254862   0.325   1.666   0.059  0.0403  0.6159 -0.6572
11124TIP3    H154863   0.275   1.701  -0.015  0.7185  1.7674 -0.5776
11124TIP3    H254864   0.414   1.654   0.025  0.8586  3.0825  0.5132
11125TIP3   OH254865   6.309   0.134  15.454 -0.3809 -0.4589  0.0376
11125TIP3    H154866   6.392   0.097  15.423 -0.2897  0.2849 -0.6459
11125TIP3    H254867   6.289   0.086  15.534  3.2343  2.6865  3.0233
11126TIP3   OH254868   6.596   2.754   1.572  0.1621  0.5565  0.4169
11126TIP3    H154869   6.593   2.693   1.499  0.2035 -1.0364  1.7318
11126TIP3    H254870   6.535   2.718   1.637 -0.5881  2.4474  0.8015
11127TIP3   OH254871   4.787   2.891   2.603  0.0377  0.2442  0.0972
11127TIP3    H154872   4.834   2.974   2.615 -1.9117  1.3057  0.6235
11127TIP3    H254873   4.711   2.898   2.661  0.4042 -2.3739  0.9491
11128TIP3   OH254874   0.444   7.263   2.633 -0.8977  0.1144  0.5203
11128TIP3    H154875   0.426   7.280   2.726  0.8916 -0.6432  1.0220
11128TIP3    H254876   0.538   7.274   2.624 -0.8249 -1.4626 -0.8635
11129TIP3   OH254877   6.619   1.629  15.203  0.3997 -0.7605  0.0921
11129TIP3    H154878   6.710   1.642  15.227  0.3210 -0.6932  0.3531
11129TIP3    H254879   6.616   1.646  15.109  0.3596  0.8452  0.3667
11130TIP3   OH254880   5.537   6.226   1.360 -0.1108 -0.4728  0.3452
11130TIP3    H154881   5.474   6.160   1.330 -0.5176  0.7452 -1.5345
11130TIP3    H254882   5.488   6.308   1.358  1.4872  0.4703 -0.9850
11131TIP3   OH254883   5.496   2.196   2.004 -0.1793  0.4120  0.0745
11131TIP3    H154884   5.578   2.226   1.966 -0.1067  1.1926  0.8411
11131TIP3    H254885   5.457   2.275   2.043 -0.6524 -0.2151  0.8836
11132TIP3   OH254886   5.654   1.862   2.100 -0.0126 -0.1058 -0.0749
11132TIP3    H154887   5.748   1.871   2.083  0.1525 -1.7505 -0.1658
11132TIP3    H254888   5.618   1.835   2.015 -0.4401 -0.3107  0.1751
11133TIP3   OH254889   1.191   0.842   2.613 -0.2138 -0.0189 -0.3743
11133TIP3    H154890   1.255   0.793   2.562 -0.3907  1.0374 -1.6468
11133TIP3    H254891   1.216   0.933   2.602 -1.1464  0.3150  0.2222
11134TIP3   OH254892   6.235   2.584   0.356 -0.0938  0.2610  0.0373
11134TIP3    H154893   6.238   2.557   0.264 -2.0905 -2.4527  0.7043
11134TIP3    H254894   6.160   2.643   0.362 -0.8546 -0.7056  0.1788
11135TIP3   OH254895   5.660   6.854   1.858  0.1836 -0.0013 -0.1529
11135TIP3    H154896   5.666   6.788   1.928  0.5674  0.5486  0.3398
11135TIP3    H254897   5.732   6.832   1.799  0.5929  0.2296  0.2453
11136TIP3   OH254898   4.439   7.173   0.624 -0.5909  0.9150 -0.8065
11136TIP3    H154899   4.493   7.246   0.653  2.0028 -0.5431 -1.7812
11136TIP3    H254900   4.491   7.130   0.555 -2.3632 -1.3747 -0.7898
11137TIP3   OH254901   6.476   1.203  15.307  0.1867  0.1500  0.5923
11137TIP3    H154902   6.420   1.264  15.355 -2.8663 -0.4304 -2.0056
11137TIP3    H254903   6.457   1.117  15.346 -1.5409 -0.1773 -0.8674
11138TIP3   OH254904   6.682   3.015   1.705  0.0311 -0.0347 -0.4871
11138TIP3    H154905   6.609   3.025   1.766 -0.9264 -0.7194 -1.4911
11138TIP3    H254906   6.664   2.932   1.659  1.8883 -0.6484 -0.1547
11139TIP3   OH254907   5.146   2.297  15.273 -0.3941 -0.3884  0.1037
11139TIP3    H154908   5.066   2.348  15.265 -0.3236 -0.3408 -0.3137
11139TIP3    H254909   5.121   2.221  15.326 -0.8158 -0.5749 -0.3544
11140TIP3   OH254910   4.561   2.390  15.842  0.0164 -0.7047 -0.2024
11140TIP3    H154911   4.606   2.318  15.797 -0.7515 -0.4292 -1.4132
11140TIP3    H254912   4.481   2.350  15.876 -1.3070 -0.0130 -2.4498
11141TIP3   OH254913   0.327   1.251   1.064 -0.1121 -0.1534  0.5659
11141TIP3    H154914   0.399   1.202   1.025 -0.0001 -0.0803  0.6779
11141TIP3    H254915   0.282   1.292   0.991 -0.9848 -1.4652  0.3510
11142TIP3   OH254916   6.728   2.097  15.369 -0.5453  0.3192  0.2574
11142TIP3    H154917   6.719   2.079  15.463 -1.0935 -0.8705 -0.0181
11142TIP3    H254918   6.643   2.072  15.332 -0.3312  0.7882 -0.5655
11143TIP3   OH254919   1.455   6.452   3.766 -0.5884  0.1934 -0.1212
11143TIP3    H154920   1.402   6.458   3.687  2.1254 -0.5372 -2.0781
11143TIP3    H254921   1.476   6.359   3.774 -1.3502  0.1605  1.8447
11144TIP3   OH254922   7.002   0.165   0.974  1.0001 -0.0529 -0.1776
11144TIP3    H154923   6.978   0.219   1.049  0.2198  0.7685 -1.0094
11144TIP3    H254924   6.939   0.189   0.906  0.4383 -2.2420 -0.4555
11145TIP3   OH254925   6.906   1.776   2.316  0.3007 -0.8880  0.0579
11145TIP3    H154926   6.860   1.729   2.247  1.5212 -1.7710 -0.1603
11145TIP3    H254927   6.862   1.748   2.397  0.4883 -1.7772 -0.1440
11146TIP3   OH254928   0.047   6.969   2.477  0.2473 -0.7419 -0.2517
11146TIP3    H154929  -0.017   6.996   2.542 -1.4532 -0.2080 -2.0962
11146TIP3    H254930   0.085   6.888   2.512  0.8541  0.6020  2.3244
11147TIP3   OH254931   0.017   6.269  14.730 -0.0699 -0.1448  0.5632
11147TIP3    H154932   0.036   6.213  14.655 -1.4744 -0.9578  0.8018
11147TIP3    H254933   0.087   6.250  14.792  1.1028  0.5294 -0.5161
11148TIP3   OH254934   5.499   6.957   0.875  0.8790  0.5038  0.3368
11148TIP3    H154935   5.533   6.872   0.900  0.7445  0.7292  1.3068
11148TIP3    H254936   5.552   7.020   0.924  0.1306  0.9172  0.6273
11149TIP3   OH254937   7.009   1.363  15.161 -0.5601  0.1102  0.1197
11149TIP3    H154938   7.097   1.332  15.139 -0.4156  0.6047  0.0034
11149TIP3    H254939   7.013   1.458  15.150 -1.3313  0.0539 -0.6526
11150TIP3   OH254940   3.775   6.866   1.270  0.2570 -0.7727  0.1301
11150TIP3    H154941   3.793   6.780   1.233 -0.3245 -0.8264 -0.0221
11150TIP3    H254942   3.843   6.922   1.233  0.1530 -0.9947 -0.4063
11151TIP3   OH254943   0.423   0.527   0.129 -0.1375  0.0283  0.2216
11151TIP3    H154944   0.458   0.437   0.131  0.2018  0.1192 -1.1669
11151TIP3    H254945   0.334   0.517   0.095 -0.2855  0.1606  0.5737
11152TIP3   OH254946   5.198   2.138   0.861  0.6672  0.5099 -0.2739
11152TIP3    H154947   5.246   2.079   0.918  2.6410  1.1777 -1.2171
11152TIP3    H254948   5.172   2.211   0.918  0.1665 -0.1730  0.3792
11153TIP3   OH254949   4.411   6.455   1.250  0.0353  0.4407  0.3178
11153TIP3    H154950   4.472   6.506   1.303 -0.6108  0.3462  1.1546
11153TIP3    H254951   4.448   6.459   1.161  0.6217  1.3676  0.5960
11154TIP3   OH254952   5.809   0.714   1.249  0.2099  0.3575  0.0355
11154TIP3    H154953   5.772   0.803   1.250  0.1044  0.3115  1.3356
11154TIP3    H254954   5.904   0.727   1.248  0.2282  0.5181  1.6241
11155TIP3   OH254955   5.520   1.660  15.024 -0.0514  0.5945  0.0189
11155TIP3    H154956   5.607   1.627  15.048 -1.6547 -1.2354  3.5921
11155TIP3    H254957   5.465   1.582  15.017 -1.8659  1.8726 -0.4303
11156TIP3   OH254958   5.854   0.256   3.798 -0.3117 -0.7157  0.2684
11156TIP3    H154959   5.879   0.323   3.735  0.7295  0.6637  2.1300
11156TIP3    H254960   5.765   0.280   3.824  0.7748  1.1415  2.4231
11157TIP3   OH254961   5.135   2.815   0.835  0.4395  0.3184 -0.6680
11157TIP3    H154962   5.057   2.863   0.862 -1.3629 -1.1214 -3.1261
11157TIP3    H254963   5.208   2.875   0.852 -1.2119  1.7937  1.3801
11158TIP3   OH254964   5.647   3.869  15.958 -0.1622  0.0175 -0.4665
11158TIP3    H154965   5.639   3.789  15.905  0.3675 -0.5897  0.3729
11158TIP3    H254966   5.558   3.902  15.965 -0.4169 -0.6496 -0.5758
11159TIP3   OH254967   0.529   5.965   3.031 -0.0335 -0.5335  0.1570
11159TIP3    H154968   0.565   6.053   3.042 -1.2737  0.2073 -1.4592
11159TIP3    H254969   0.454   5.977   2.973  0.1498 -2.7613 -0.5883
11160TIP3   OH254970   0.507   1.255   1.993 -0.0198 -0.0009  0.1119
11160TIP3    H154971   0.589   1.220   2.028 -0.5673 -1.3820  0.0528
11160TIP3    H254972   0.501   1.218   1.904 -0.5251  0.3770 -0.0155
11161TIP3   OH254973   6.801   3.768  15.731 -0.0002 -0.1130  0.2014
11161TIP3    H154974   6.829   3.692  15.680  1.4655  1.0605 -0.7832
11161TIP3    H254975   6.840   3.754  15.817  2.2238  0.5969 -0.6278
11162TIP3   OH254976   3.144   2.303   0.234 -0.3243  0.1061  0.0010
11162TIP3    H154977   3.141   2.398   0.248  0.8057  0.3713 -1.4704
11162TIP3    H254978   3.070   2.269   0.286  0.5405  1.5415  2.2388
11163TIP3   OH254979   6.705   1.357   1.927  0.7101  0.1644 -0.6945
11163TIP3    H154980   6.644   1.390   1.992  1.6140  0.4917 -0.0047
11163TIP3    H254981   6.710   1.263   1.944  0.6759  0.1957 -0.5154
11164TIP3   OH254982   7.172   0.654   3.852  0.2996 -0.5082 -1.0193
11164TIP3    H154983   7.130   0.608   3.925 -0.2848  0.3597 -0.8033
11164TIP3    H254984   7.205   0.735   3.891 -1.1071  0.5411 -1.9711
11165TIP3   OH254985   4.849   3.424   1.069  0.2201 -0.1819  0.2702
11165TIP3    H154986   4.928   3.475   1.083  1.3679 -0.4647 -4.3157
11165TIP3    H254987   4.822   3.446   0.980 -4.4694 -0.6945  1.4079
11166TIP3   OH254988   6.305   3.251   0.721 -0.3476 -0.7646 -0.2943
11166TIP3    H154989   6.213   3.257   0.693 -0.2430 -0.6625 -0.6201
11166TIP3    H254990   6.301   3.219   0.811 -0.6813 -1.2391 -0.4805
11167TIP3   OH254991   4.004   7.169   0.820 -0.2904  0.0284 -0.4311
11167TIP3    H154992   3.982   7.224   0.896 -0.4419 -0.2962 -0.2380
11167TIP3    H254993   3.948   7.202   0.750 -0.0789  0.3947 -0.4285
11168TIP3   OH254994   6.235   1.948   1.026 -0.0570 -0.4554  0.8718
11168TIP3    H154995   6.276   1.863   1.043  1.4040 -0.2380 -1.3550
11168TIP3    H254996   6.308   2.010   1.028 -0.5671  0.2258 -1.0626
11169TIP3   OH254997   7.097   0.511   0.379 -0.0032 -0.0371  0.0613
11169TIP3    H154998   7.046   0.515   0.460  1.5031  0.0653  1.0323
11169TIP3    H254999   7.188   0.515   0.408  0.5466  0.8989 -1.6963
11170TIP3   OH255000   4.531   0.440  15.991  0.0579 -0.3144  0.0491
11170TIP3    H155001   4.497   0.530  15.998 -0.0710 -0.3916  0.4374
11170TIP3    H255002   4.623   0.452  15.967  0.0087 -0.0796 -0.0282
11171TIP3   OH255003   4.889   6.969  14.469  0.9511  0.0262  0.1227
11171TIP3    H155004   4.903   7.033  14.400  2.2802 -0.5224 -0.1317
11171TIP3    H255005   4.965   6.977  14.526  0.5532 -0.5072  0.7443
11172TIP3   OH255006   4.894   6.914  15.325  0.6462  0.2478 -0.0498
11172TIP3    H155007   4.904   6.977  15.396 -0.2337 -0.5989  0.8320
11172TIP3    H255008   4.804   6.926  15.294  0.7956  0.1131 -0.5506
11173TIP3   OH255009   4.303   0.791   0.925 -0.1548 -0.3798 -0.1311
11173TIP3    H155010   4.329   0.740   1.002  0.9325  0.1963 -0.1199
11173TIP3    H255011   4.210   0.810   0.940  0.2434  0.4153  1.4228
11174TIP3   OH255012   4.298   6.252   3.428 -0.0973 -0.2350  0.2866
11174TIP3    H155013   4.357   6.200   3.482 -0.8888 -0.3520  1.0544
11174TIP3    H255014   4.228   6.278   3.488 -0.7182  0.0743 -0.5682
11175TIP3   OH255015   0.833   6.176  14.580 -0.4246  0.3174 -0.3850
11175TIP3    H155016   0.906   6.238  14.579  0.3688 -0.5924  0.7243
11175TIP3    H255017   0.872   6.092  14.557 -1.0998 -0.2100  0.3837
11176TIP3   OH255018   7.212   1.675   2.146  0.3805 -0.2308 -0.6596
11176TIP3    H155019   7.247   1.650   2.061 -0.2792 -0.7645 -0.7854
11176TIP3    H255020   7.141   1.737   2.126  1.4306  1.0792 -0.3948
11177TIP3   OH255021   4.439   0.547   1.193 -0.4896 -0.6112 -0.4116
11177TIP3    H155022   4.510   0.523   1.134 -0.2142  1.1591 -0.8465
11177TIP3    H255023   4.444   0.485   1.265 -0.2578 -2.2476 -1.7999
11178TIP3   OH255024   5.454   0.514  14.479 -0.5250  0.1109 -0.3809
11178TIP3    H155025   5.396   0.509  14.404 -0.5265  0.4931 -0.4051
11178TIP3    H255026   5.524   0.573  14.451 -0.4623  0.1578 -0.1266
11179TIP3   OH255027   5.500   2.936   0.561 -0.1277 -0.0379 -0.2836
11179TIP3    H155028   5.513   2.863   0.501  1.9420  0.5439 -0.5881
11179TIP3    H255029   5.588   2.973   0.573 -1.1607  2.5401 -0.3413
11180TIP3   OH255030   4.820   0.144  15.496  0.1002 -0.1200 -0.4324
11180TIP3    H155031   4.735   0.170  15.532  0.5465  0.4333  0.2102
11180TIP3    H255032   4.823   0.049  15.510 -0.7762 -0.2809 -1.2268
11181TIP3   OH255033   6.291   1.854   3.811  0.0080 -0.0928  0.1544
11181TIP3    H155034   6.219   1.830   3.869 -2.1268  0.7138 -2.0182
11181TIP3    H255035   6.268   1.814   3.727  0.3517  2.9228 -1.4560
11182TIP3   OH255036   5.398   3.619   0.166  0.1859  0.2350 -0.2102
11182TIP3    H155037   5.429   3.660   0.247  0.0323  0.4706 -0.2712
11182TIP3    H255038   5.408   3.525   0.182  0.0383  0.2770  0.1305
11183TIP3   OH255039   6.476   0.849   2.057  0.2253 -0.0395 -0.4872
11183TIP3    H155040   6.421   0.867   2.133  0.4862  0.8325 -0.4993
11183TIP3    H255041   6.550   0.800   2.092  1.1977  1.7962  0.1257
11184TIP3   OH255042   5.847   2.498   0.480  0.2542 -0.2134  0.1169
11184TIP3    H155043   5.762   2.460   0.501  1.2888 -2.3308  0.5717
11184TIP3    H255044   5.832   2.592   0.483 -2.3438 -0.5446 -0.9182
11185TIP3   OH255045   6.789   4.259   2.821 -0.8496 -0.1170  0.4531
11185TIP3    H155046   6.793   4.173   2.779 -1.3662 -0.4352  1.0365
11185TIP3    H255047   6.762   4.319   2.752 -1.3193 -0.5671  0.2469
11186TIP3   OH255048   0.604   0.186   1.736  0.2974  0.1284 -0.3677
11186TIP3    H155049   0.594   0.151   1.647  0.6888  0.2971 -0.4763
11186TIP3    H255050   0.514   0.205   1.763 -0.0689 -2.3804  0.2737
11187TIP3   OH255051   6.969   0.425   0.633  0.0845  0.1873  0.3224
11187TIP3    H155052   6.919   0.348   0.606  1.3751 -0.1279 -1.2752
11187TIP3    H255053   7.030   0.392   0.698  0.6099 -0.1407 -0.3320
11188TIP3   OH255054   2.237   1.598   0.448  0.2090  0.1831  0.5494
11188TIP3    H155055   2.186   1.569   0.373  0.9577 -1.0469  0.4948
11188TIP3    H255056   2.247   1.520   0.502  3.6997 -0.1238 -0.4289
11189TIP3   OH255057   0.820   3.399   0.778  0.2405 -0.1986  0.4234
11189TIP3    H155058   0.816   3.345   0.699  1.8815  0.4364 -0.1133
11189TIP3    H255059   0.843   3.486   0.747  2.4045 -0.2795  1.7319
11190TIP3   OH255060   1.458   2.615  15.868  0.3638 -0.3090 -0.5024
11190TIP3    H155061   1.499   2.558  15.803 -0.1025  0.2422 -1.2987
11190TIP3    H255062   1.531   2.660  15.910  0.7726 -2.0228  0.6422
11191TIP3   OH255063   5.795   0.198  15.319 -0.1811 -0.1593  0.1257
11191TIP3    H155064   5.804   0.103  15.324 -0.4852 -0.1142  1.5560
11191TIP3    H255065   5.716   0.218  15.369  0.0799  0.8792  0.1299
11192TIP3   OH255066   2.434   2.060   0.347 -0.1394 -0.3884  0.4269
11192TIP3    H155067   2.361   2.052   0.286 -1.1925  1.7120  1.3573
11192TIP3    H255068   2.414   1.996   0.416  0.1784 -1.5545 -0.5504
11193TIP3   OH255069   6.830   2.912  15.710  0.4158  0.6393 -0.1596
11193TIP3    H155070   6.789   2.826  15.711  1.2821  0.1924 -1.1365
11193TIP3    H255071   6.893   2.910  15.782  0.6309  0.3432 -0.3529
11194TIP3   OH255072   1.910   4.588   2.261 -0.0050 -0.5501  0.7857
11194TIP3    H155073   1.853   4.511   2.267 -0.8863 -0.0900 -1.4732
11194TIP3    H255074   1.988   4.556   2.215 -0.7161  0.0922 -0.8757
11195TIP3   OH255075   0.463   0.060   0.045  0.3984  0.5600  0.2223
11195TIP3    H155076   0.493  -0.027   0.071  2.4877  1.4139  0.8262
11195TIP3    H255077   0.441   0.051  -0.047  0.5608 -0.6237  0.2843
11196TIP3   OH255078   6.377   3.688   2.063 -0.4849 -0.3128  0.3031
11196TIP3    H155079   6.446   3.645   2.113  1.1985  1.1458 -0.7036
11196TIP3    H255080   6.374   3.641   1.980 -1.1685 -0.7983  0.6003
11197TIP3   OH255081   2.671   0.583   2.189 -0.3912 -0.0155  0.4925
11197TIP3    H155082   2.619   0.662   2.204 -0.1320  0.1827  0.3549
11197TIP3    H255083   2.609   0.512   2.197 -0.4356  0.1397  1.5792
11198TIP3   OH255084   0.494   1.708   0.321  0.2757  0.2607 -0.6748
11198TIP3    H155085   0.534   1.794   0.307 -1.8216  1.3858 -0.0271
11198TIP3    H255086   0.448   1.689   0.239  0.3484 -0.0270 -0.6485
11199TIP3   OH255087   5.374   3.340   0.238 -0.2657 -0.4652  0.3292
11199TIP3    H155088   5.468   3.354   0.228 -0.3825  0.1435  0.0822
11199TIP3    H255089   5.363   3.321   0.331 -0.0488  0.6240  0.5738
11200TIP3   OH255090   1.773   3.531   2.654  0.4131 -0.1447  0.4410
11200TIP3    H155091   1.733   3.616   2.673 -0.9927 -0.3942 -1.3453
11200TIP3    H255092   1.711   3.487   2.597  2.6065 -1.0761 -1.3152
11201TIP3   OH255093   5.678   7.122   1.036 -0.6318  0.1890 -0.2301
11201TIP3    H155094   5.720   7.121   0.950 -0.6035 -2.7338 -0.2095
11201TIP3    H255095   5.731   7.184   1.087  0.8429  0.0924 -1.5961
11202TIP3   OH255096   0.606   1.960   0.128  0.2854 -0.4001  0.3856
11202TIP3    H155097   0.569   1.903   0.060 -2.1978  1.0690  0.4562
11202TIP3    H255098   0.659   2.023   0.080  1.4866 -1.5627  0.1460
11203TIP3   OH255099   2.019   4.308   0.920 -0.0267 -0.3521  0.7053
11203TIP3    H155100   2.047   4.344   0.836 -0.6470 -0.0940  0.6006
11203TIP3    H255101   2.006   4.215   0.904  0.8371 -0.4882  0.7769
11204TIP3   OH255102   1.454   1.063   0.161  0.4734 -0.5555  0.1490
11204TIP3    H155103   1.362   1.072   0.187  1.4001  1.4281  2.9769
11204TIP3    H255104   1.452   1.062   0.066 -2.2936  1.9775  0.1083
11205TIP3   OH255105   5.545   2.682   1.896  0.2051  0.3979 -0.3915
11205TIP3    H155106   5.635   2.676   1.930 -0.2699  0.7845  0.9447
11205TIP3    H255107   5.492   2.707   1.972 -1.0659 -0.0121 -1.1359
11206TIP3   OH255108   0.529   4.096   1.015  0.1356  0.2583  0.0500
11206TIP3    H155109   0.451   4.040   1.021  1.1283 -1.1134  0.4839
11206TIP3    H255110   0.566   4.095   1.103  1.0940  0.2368 -0.3474
11207TIP3   OH255111   1.192   3.458   2.051 -0.3386  0.4105 -0.3551
11207TIP3    H155112   1.124   3.391   2.044 -0.2325  0.3901 -1.1600
11207TIP3    H255113   1.267   3.412   2.090 -1.1649  0.7135  1.6874
11208TIP3   OH255114   1.465   0.644   0.339  0.8042  0.2431 -0.4301
11208TIP3    H155115   1.543   0.591   0.323 -0.4069 -2.0480  0.9525
11208TIP3    H255116   1.396   0.602   0.288  0.0267  1.0482 -0.0607
11209TIP3   OH255117   6.080   0.678   0.879  0.2659  0.5120 -0.1603
11209TIP3    H155118   6.001   0.731   0.891  0.9260  1.3188  0.7173
11209TIP3    H255119   6.143   0.715   0.940  0.9779 -0.8379 -0.0584
11210TIP3   OH255120   0.302   2.506   3.671  0.3760 -0.1003 -0.0841
11210TIP3    H155121   0.259   2.459   3.600  0.5085 -0.0015 -0.2281
11210TIP3    H255122   0.274   2.460   3.750  0.4798 -0.4014 -0.2214
11211TIP3   OH255123   0.899   4.989   1.168  0.1954 -0.1215 -0.3245
11211TIP3    H155124   0.847   4.915   1.200  1.2134 -1.2189 -1.1626
11211TIP3    H255125   0.980   4.984   1.218 -0.4856  1.6156  1.0159
11212TIP3   OH255126   1.574   1.573   2.548 -0.6298 -0.5899 -0.1216
11212TIP3    H155127   1.619   1.630   2.611 -2.1733  0.2282  0.2440
11212TIP3    H255128   1.627   1.493   2.547  1.8872  1.0234 -1.0693
11213TIP3   OH255129   6.973   3.717   2.539 -0.0387 -0.6420  0.4117
11213TIP3    H155130   6.902   3.664   2.504 -0.0329 -0.7152  0.5112
11213TIP3    H255131   7.053   3.668   2.515 -0.0199 -0.5329  0.2543
11214TIP3   OH255132   1.914   1.495  15.893  0.3853  0.2872 -0.5479
11214TIP3    H155133   1.829   1.488  15.850 -0.6012 -1.5558  1.5926
11214TIP3    H255134   1.962   1.417  15.863  0.9708  0.8157 -0.9939
11215TIP3   OH255135   1.470   0.362  15.761  0.0064  0.5366 -0.4601
11215TIP3    H155136   1.429   0.307  15.693  0.2405 -0.3153  0.0882
11215TIP3    H255137   1.549   0.395  15.719  0.2488 -0.1385 -0.5483
11216TIP3   OH255138   7.227   6.282  15.207 -0.2644  0.1985 -0.0559
11216TIP3    H155139   7.175   6.327  15.140 -1.0748 -3.8845 -2.3288
11216TIP3    H255140   7.163   6.258  15.274 -0.3230  0.0212 -0.1744
11217TIP3   OH255141   2.842   2.689   1.394 -0.4597  0.3132  0.3165
11217TIP3    H155142   2.752   2.720   1.381 -0.8147 -1.1648 -0.9068
11217TIP3    H255143   2.875   2.675   1.305  0.2127 -1.2962  0.8021
11218TIP3   OH255144   1.543   0.835  15.247  0.1766 -0.2247 -0.1690
11218TIP3    H155145   1.531   0.845  15.341 -0.2562 -0.8813 -0.1528
11218TIP3    H255146   1.569   0.923  15.217 -0.7933  0.2617  0.3937
11219TIP3   OH255147   6.998   3.298   1.218 -0.0948  0.3920 -0.4940
11219TIP3    H155148   7.081   3.290   1.264 -1.4642 -2.1559  1.6865
11219TIP3    H255149   7.018   3.350   1.140  3.3164  0.6049  0.4666
11220TIP3   OH255150   6.046   1.913   0.533 -0.4768  0.0972  0.0249
11220TIP3    H155151   6.034   1.920   0.628 -0.3633 -3.4817  0.3616
11220TIP3    H255152   5.959   1.892   0.500 -0.4978  1.2597 -0.7098
11221TIP3   OH255153   1.047   3.312   0.031 -0.1760  0.0373  0.1930
11221TIP3    H155154   1.074   3.221   0.017 -0.4902  0.1717 -1.4612
11221TIP3    H255155   1.123   3.364   0.004 -0.4889  0.2927 -0.2092
11222TIP3   OH255156   1.898   2.891   1.515 -0.0885  0.2010 -0.3107
11222TIP3    H155157   1.856   2.917   1.433  1.1053  0.6100 -0.8062
11222TIP3    H255158   1.833   2.911   1.583 -0.8116  0.5225 -1.0822
11223TIP3   OH255159   0.789   3.948   1.198  0.0416 -0.4497 -0.3099
11223TIP3    H155160   0.770   4.028   1.247 -1.4535 -1.0254  0.0831
11223TIP3    H255161   0.817   3.885   1.265  2.1607  0.0010 -0.7291
11224TIP3   OH255162   1.599   3.087   0.891 -0.3598  0.3319 -0.2465
11224TIP3    H155163   1.663   3.117   0.826 -0.5104  1.1330 -0.0292
11224TIP3    H255164   1.514   3.109   0.852 -0.5852 -2.0692 -1.2156
11225TIP3   OH255165   1.842   2.271   2.196 -0.1773 -0.0330 -0.2730
11225TIP3    H155166   1.868   2.205   2.261 -0.3489  0.1434 -0.0215
11225TIP3    H255167   1.762   2.236   2.158 -0.9642  0.6118  0.7490
11226TIP3   OH255168   1.319   3.921   0.475  0.5034  0.2387 -0.6152
11226TIP3    H155169   1.400   3.952   0.433  1.3006 -0.2157  0.5438
11226TIP3    H255170   1.312   3.974   0.554 -1.4233  1.6523 -1.6796
11227TIP3   OH255171   0.868   3.921  15.995  0.6610 -0.5210  0.1144
11227TIP3    H155172   0.892   4.012  16.012 -0.4398  0.1487 -1.8410
11227TIP3    H255173   0.811   3.897  16.069  1.0105  0.3451  0.6665
11228TIP3   OH255174   2.158   1.662  15.346  0.0034  0.2533 -0.2187
11228TIP3    H155175   2.253   1.651  15.336  0.5052  2.2321  1.9111
11228TIP3    H255176   2.144   1.757  15.342 -1.6160  0.1155  1.5027
11229TIP3   OH255177   1.322   2.153   1.868 -0.0840  0.1451  0.0765
11229TIP3    H155178   1.262   2.079   1.877 -0.3000  0.4108  0.8673
11229TIP3    H255179   1.363   2.140   1.783 -1.6899  0.2714 -0.7375
11230TIP3   OH255180   1.328   1.253  15.207  0.2361 -0.4579  0.2322
11230TIP3    H155181   1.374   1.281  15.127 -1.0180 -2.4862 -1.2399
11230TIP3    H255182   1.369   1.304  15.277  1.3894  1.3457 -1.6902
11231TIP3   OH255183   0.787   2.383   2.326  0.4207  0.0917  0.2122
11231TIP3    H155184   0.734   2.421   2.255  4.2728  1.7678 -1.9195
11231TIP3    H255185   0.842   2.318   2.282  0.9412 -0.8158  2.1727
11232TIP3   OH255186   5.650   5.898   2.805  0.3328  0.1500 -0.1263
11232TIP3    H155187   5.563   5.875   2.839  0.0906  1.1305 -0.0680
11232TIP3    H255188   5.707   5.829   2.838 -0.3796 -0.3919  0.0109
11233TIP3   OH255189   7.046   2.360  15.176  0.2347 -0.1116  0.0376
11233TIP3    H155190   7.079   2.432  15.121 -1.3759  0.3113 -0.4054
11233TIP3    H255191   7.101   2.363  15.254  1.0713  0.7423 -0.5615
11234TIP3   OH255192   7.119   4.159   2.991 -0.2541 -0.5358  0.0304
11234TIP3    H155193   7.164   4.117   2.918  0.2038 -0.6312  0.3651
11234TIP3    H255194   7.151   4.250   2.990 -1.4165 -0.1325 -0.8347
11235TIP3   OH255195   0.580   3.082   1.391 -0.1084  0.4381 -0.4617
11235TIP3    H155196   0.641   3.136   1.441  0.7144 -1.1721  0.3093
11235TIP3    H255197   0.498   3.131   1.392  0.3334  1.1770  1.1234
11236TIP3   OH255198   1.182   2.443  15.303 -0.5862 -0.0029 -0.0272
11236TIP3    H155199   1.167   2.412  15.392 -1.6241 -2.4776 -1.0260
11236TIP3    H255200   1.115   2.510  15.290 -0.4924  0.3071  0.9974
11237TIP3   OH255201   2.401   4.377   1.774 -0.2475  0.4114 -0.6128
11237TIP3    H155202   2.481   4.356   1.727 -0.6108  0.0902 -1.0813
11237TIP3    H255203   2.330   4.343   1.720 -0.7196  0.9305 -0.3342
11238TIP3   OH255204   6.836   3.303   1.963 -0.0141 -0.5299  0.7358
11238TIP3    H155205   6.861   3.365   2.032 -0.7670 -0.4049  0.9006
11238TIP3    H255206   6.823   3.358   1.886  0.3580 -0.6115  0.6156
11239TIP3   OH255207   2.640   1.441   3.442  0.8139  0.3050  0.2596
11239TIP3    H155208   2.639   1.514   3.503 -0.1729  1.4107 -1.0539
11239TIP3    H255209   2.587   1.470   3.368 -1.2604 -2.4465  0.5593
11240TIP3   OH255210   0.491   3.127   0.175  0.5788  0.6003  0.2503
11240TIP3    H155211   0.435   3.049   0.170  1.0896  0.1414  1.5038
11240TIP3    H255212   0.489   3.163   0.086 -0.7204 -0.1014 -0.0270
11241TIP3   OH255213   6.085   3.392   0.099 -0.0453 -0.1545  0.4178
11241TIP3    H155214   6.040   3.307   0.097  0.0208 -0.2031  0.9290
11241TIP3    H255215   6.018   3.455   0.072 -0.1005 -0.3633  0.0615
11242TIP3   OH255216   0.147   6.782   1.238 -0.3963 -0.0510 -0.0021
11242TIP3    H155217   0.202   6.807   1.164 -1.8305  2.4659 -0.2719
11242TIP3    H255218   0.208   6.757   1.307  0.9984 -0.0344 -1.2144
11243TIP3   OH255219   2.726   1.758   1.611  0.4983  0.0170  0.4084
11243TIP3    H155220   2.761   1.847   1.606 -0.2566  0.4270  2.0556
11243TIP3    H255221   2.752   1.727   1.697  0.7427 -1.3694 -0.1507
11244TIP3   OH255222   0.620   2.746   0.617 -0.1568 -0.0029 -0.3361
11244TIP3    H155223   0.695   2.687   0.618  0.3725  0.4772 -3.5408
11244TIP3    H255224   0.626   2.794   0.699  1.2944 -2.0979  0.8290
11245TIP3   OH255225   0.616   2.866  15.832  0.0991  0.4252  0.2783
11245TIP3    H155226   0.656   2.898  15.913 -0.1533 -0.9147  0.9410
11245TIP3    H255227   0.682   2.810  15.792 -0.0053  0.6039 -0.1556
11246TIP3   OH255228   1.157   4.309   0.907  0.1271  0.3795 -0.5392
11246TIP3    H155229   1.143   4.373   0.977  2.1117 -2.3234  2.5049
11246TIP3    H255230   1.080   4.252   0.913 -0.3646  0.9392 -1.4925
11247TIP3   OH255231   6.439   3.512   1.837 -0.3549  0.2545 -0.9061
11247TIP3    H155232   6.380   3.481   1.769  0.6486  0.2416 -1.7818
11247TIP3    H255233   6.516   3.456   1.830 -0.3776  0.0393  0.4589
11248TIP3   OH255234   0.351   0.274   1.052 -0.5172  0.7116  0.0893
11248TIP3    H155235   0.404   0.202   1.085 -2.1167  0.8114  3.0720
11248TIP3    H255236   0.394   0.353   1.085 -0.0041  1.0524 -1.3314
11249TIP3   OH255237   2.383   2.944   4.926  0.4134 -0.6162 -0.1510
11249TIP3    H155238   2.358   2.999   4.852  0.5960  0.0350  0.2665
11249TIP3    H255239   2.346   2.858   4.906  1.2319 -0.6759 -1.4221
11250TIP3   OH255240   0.775   0.386   0.232  0.0400 -0.0601  0.4814
11250TIP3    H155241   0.764   0.420   0.320  1.8222  0.0990  0.6600
11250TIP3    H255242   0.698   0.331   0.218  0.5787 -1.4813  2.8014
11251TIP3   OH255243   0.792   2.850   1.425 -0.4029 -0.2199  0.2517
11251TIP3    H155244   0.885   2.864   1.439 -0.2816  0.2266 -0.9977
11251TIP3    H255245   0.749   2.924   1.467 -0.2662 -1.0197  1.8314
11252TIP3   OH255246   2.031   1.580   0.246 -0.8005 -0.3112 -0.0132
11252TIP3    H155247   2.024   1.664   0.293  0.3560 -0.6472  0.7794
11252TIP3    H255248   1.962   1.584   0.180 -0.3098  1.5666 -0.4424
11253TIP3   OH255249   7.220   0.671  15.892 -0.7394  0.0019 -0.4594
11253TIP3    H155250   7.253   0.698  15.806  1.7262  1.5350  0.8896
11253TIP3    H255251   7.183   0.751  15.930  0.9715  0.1148  1.0859
11254TIP3   OH255252   1.061   1.819   0.040  0.7820 -0.5352  0.0224
11254TIP3    H155253   1.007   1.897   0.050  0.7388 -0.2141 -2.4456
11254TIP3    H255254   1.000   1.746   0.055  0.6000 -0.1301  1.3280
11255TIP3   OH255255   1.591   3.549   1.824 -0.3652  0.0131 -0.4042
11255TIP3    H155256   1.500   3.578   1.814  0.4131  2.6708 -0.2432
11255TIP3    H255257   1.592   3.499   1.905 -1.4152  1.2262  0.3696
11256TIP3   OH255258   0.376   2.213  14.602  0.6107 -0.0326 -0.5184
11256TIP3    H155259   0.428   2.186  14.678  1.9844  0.1521 -1.3757
11256TIP3    H255260   0.304   2.264  14.639  2.6912  2.2642  0.5252
11257TIP3   OH255261   6.597   2.443  15.116  0.7027  0.1782  0.4681
11257TIP3    H155262   6.608   2.456  15.210 -0.6090 -0.6243  0.7344
11257TIP3    H255263   6.515   2.394  15.107 -2.2415  5.0839 -1.3752
11258TIP3   OH255264   5.965   2.827  15.307  0.5182 -1.0759 -0.3722
11258TIP3    H155265   5.957   2.918  15.278 -1.3869 -1.4532 -1.0743
11258TIP3    H255266   6.042   2.794  15.261  1.0274  0.0657 -0.3819
11259TIP3   OH255267   7.054   1.016  15.734  0.2802 -0.1969  0.1767
11259TIP3    H155268   6.976   0.972  15.700  1.2941 -1.2837 -0.7621
11259TIP3    H255269   7.045   1.009  15.829 -0.9991  0.1066  0.0929
11260TIP3   OH255270   2.456   1.451  15.459 -1.1454  0.2883  0.5619
11260TIP3    H155271   2.545   1.431  15.431 -1.4421 -1.8178  1.0427
11260TIP3    H255272   2.437   1.536  15.420  0.7235  0.3075 -0.3450
11261TIP3   OH255273   1.881   3.415   1.892  0.1785 -0.1171  0.2835
11261TIP3    H155274   1.842   3.426   1.805  0.0971 -0.0761  0.3257
11261TIP3    H255275   1.877   3.320   1.908  0.3994 -0.1509  0.1469
11262TIP3   OH255276   7.207   3.052   1.988  0.2016  0.1162  0.3865
11262TIP3    H155277   7.249   3.088   1.910 -1.3138  3.1202  0.8850
11262TIP3    H255278   7.118   3.030   1.959 -0.6224  2.0135  1.4537
11263TIP3   OH255279   2.160   1.363   2.248  0.6105  0.0916  0.1693
11263TIP3    H155280   2.176   1.386   2.156  0.4171  0.0471  0.1255
11263TIP3    H255281   2.248   1.350   2.284  0.6832 -0.0019 -0.0373
11264TIP3   OH255282   4.547   1.549   0.688  0.6339 -0.3867 -0.2701
11264TIP3    H155283   4.565   1.617   0.753 -0.4396 -1.4833  1.2189
11264TIP3    H255284   4.451   1.540   0.690  0.7545 -1.7784 -0.6052
11265TIP3   OH255285   1.239   2.909   1.248 -0.7486  0.4080  0.3558
11265TIP3    H155286   1.247   2.943   1.159 -0.9932  1.1845  0.6265
11265TIP3    H255287   1.318   2.941   1.293 -1.0061  0.6638  0.6267
11266TIP3   OH255288   5.844   4.678   2.769  0.2932 -0.3452 -0.6735
11266TIP3    H155289   5.933   4.649   2.790  0.2706  0.8175  1.1378
11266TIP3    H255290   5.842   4.770   2.797 -1.7782 -0.6324  0.2011
11267TIP3   OH255291   0.985   2.326   1.114 -0.7747 -0.2594  0.1280
11267TIP3    H155292   1.012   2.355   1.201  0.1999 -0.7741  0.0102
11267TIP3    H255293   0.898   2.362   1.102 -0.6846  0.2882  1.0938
11268TIP3   OH255294   1.681   3.788   0.102 -0.4890 -0.4339  0.7000
11268TIP3    H155295   1.604   3.800   0.048 -1.1944 -1.0986  1.5411
11268TIP3    H255296   1.733   3.867   0.088 -1.5301  0.2146  0.4545
11269TIP3   OH255297   0.328   2.135  14.042 -0.4306 -0.6358 -0.3390
11269TIP3    H155298   0.365   2.136  14.130  0.8431  0.8740 -0.8804
11269TIP3    H255299   0.364   2.056  14.002  3.0648  1.2820 -1.1827
11270TIP3   OH255300   1.904   2.711   0.415 -0.2812 -0.2213  0.7946
11270TIP3    H155301   1.905   2.794   0.464 -0.7036 -0.3103  0.9492
11270TIP3    H255302   1.987   2.711   0.368 -0.4527  0.4756  0.4894
11271TIP3   OH255303   0.964   6.566   1.492  0.2747  0.0167  0.4648
11271TIP3    H155304   0.882   6.590   1.449  0.0229 -0.2228  0.8153
11271TIP3    H255305   1.032   6.609   1.439 -0.1078  0.6694  0.5003
11272TIP3   OH255306   2.269   3.820  14.615 -0.0494 -0.3022 -0.5519
11272TIP3    H155307   2.177   3.841  14.599 -0.5391  0.3751  2.9021
11272TIP3    H255308   2.271   3.784  14.704  3.0404 -0.3300 -0.5669
11273TIP3   OH255309   1.949   3.784   1.599  0.3469  0.2728  0.9621
11273TIP3    H155310   2.012   3.712   1.594  0.1631  0.2546 -1.8932
11273TIP3    H255311   1.890   3.759   1.670  0.8822 -1.9230  0.6727
11274TIP3   OH255312   1.092   0.403   1.610 -0.6720 -0.0805  0.1267
11274TIP3    H155313   1.148   0.460   1.557  0.5788 -2.1105 -0.7965
11274TIP3    H255314   1.004   0.435   1.594 -0.5299 -1.5979 -4.5563
11275TIP3   OH255315   0.682   0.493   5.157  0.3762 -0.6791  0.3289
11275TIP3    H155316   0.727   0.412   5.133  2.9936  1.2437 -1.5132
11275TIP3    H255317   0.680   0.544   5.076  1.9138  2.5364  2.2379
11276TIP3   OH255318   1.195   2.767   2.932 -0.3219  0.3174 -0.1124
11276TIP3    H155319   1.116   2.777   2.880 -0.8936  0.8343  0.8320
11276TIP3    H255320   1.181   2.686   2.982  1.4023 -1.7047 -2.7485
11277TIP3   OH255321   2.018   0.332   1.182 -0.5288 -0.7166  0.5687
11277TIP3    H155322   2.109   0.325   1.213  0.3561  1.8386 -1.2391
11277TIP3    H255323   2.009   0.260   1.119  0.7204 -0.1481 -0.2907
11278TIP3   OH255324   6.145   5.340  15.730  0.3980  0.0395  0.0428
11278TIP3    H155325   6.214   5.278  15.753 -0.1705 -0.3399  0.7548
11278TIP3    H255326   6.183   5.393  15.659  2.4094  1.6609  2.2595
11279TIP3   OH255327   2.135   1.436   1.981  0.0304  0.1111 -0.1097
11279TIP3    H155328   2.121   1.360   1.924  2.4335 -1.6617  1.5901
11279TIP3    H255329   2.171   1.503   1.923 -2.4786  0.1500 -1.7041
11280TIP3   OH255330   1.028   2.197  12.056 -0.2995 -0.1382 -0.1148
11280TIP3    H155331   1.017   2.291  12.065 -0.1075 -0.1507  0.2257
11280TIP3    H255332   0.990   2.159  12.135 -1.7042 -0.4407 -0.9151
11281TIP3   OH255333   1.610   0.958   0.741 -0.3116 -0.1658  0.1317
11281TIP3    H155334   1.563   0.997   0.667 -1.0364 -0.5057  0.4082
11281TIP3    H255335   1.702   0.982   0.727 -0.3710 -0.6275 -1.1401
11282TIP3   OH255336   0.233   2.217   0.429  0.2826  0.4334  0.5890
11282TIP3    H155337   0.166   2.149   0.433 -0.5369  1.0860 -1.7070
11282TIP3    H255338   0.309   2.174   0.390  0.4103  0.3232  0.9584
11283TIP3   OH255339   0.412   3.899   1.358 -0.0268  0.4434 -0.2120
11283TIP3    H155340   0.487   3.851   1.393 -0.6568 -0.0132  0.5341
11283TIP3    H255341   0.446   3.985   1.337  1.2474 -0.4943 -2.0812
11284TIP3   OH255342   1.602   2.897  15.642 -0.0015 -0.2403 -0.0979
11284TIP3    H155343   1.643   2.850  15.714  0.4765 -0.5891 -0.5978
11284TIP3    H255344   1.652   2.979  15.635  0.7757 -0.7711 -0.8650
11285TIP3   OH255345   0.261   1.977   1.317  0.1135 -0.3331 -0.0311
11285TIP3    H155346   0.197   1.965   1.387  0.2699  1.6370  0.4944
11285TIP3    H255347   0.229   1.922   1.245 -0.4800 -1.7574  1.2975
11286TIP3   OH255348   0.417   3.495  13.381  0.0910 -0.0583 -0.5744
11286TIP3    H155349   0.491   3.540  13.340  0.7540 -0.8324 -0.2302
11286TIP3    H255350   0.415   3.409  13.339  0.2859 -0.5702  0.4558
11287TIP3   OH255351   0.555   2.372   0.922  0.1251 -0.2895 -0.6794
11287TIP3    H155352   0.586   2.282   0.917 -2.2268 -1.1178 -0.7594
11287TIP3    H255353   0.518   2.390   0.836 -0.5168  0.3215 -0.2818
11288TIP3   OH255354   1.129   2.781  15.734 -0.2835 -0.1889 -0.2512
11288TIP3    H155355   1.069   2.855  15.727 -0.3918 -0.2418  0.1621
11288TIP3    H255356   1.208   2.811  15.688 -0.5681 -0.0682 -0.6663
11289TIP3   OH255357   6.682   2.965   0.879 -0.4102  0.1051  0.3013
11289TIP3    H155358   6.629   3.002   0.808 -0.6128 -0.2250  0.2808
11289TIP3    H255359   6.647   3.006   0.958  1.7084  2.6915 -0.0439
11290TIP3   OH255360   2.714   1.551   3.083  0.2710  0.2249 -0.2707
11290TIP3    H155361   2.779   1.510   3.139  1.3455  0.6971 -1.1551
11290TIP3    H255362   2.761   1.571   3.002 -0.7633  1.3349 -0.6065
11291TIP3   OH255363   0.483   3.764   2.180 -0.2648 -0.1597  0.0409
11291TIP3    H155364   0.443   3.816   2.249  0.3011 -1.1126  1.1066
11291TIP3    H255365   0.554   3.819   2.145 -0.2855  0.1561  0.5037
11292TIP3   OH255366   0.024   3.642  14.053  0.2713 -0.1358  0.3965
11292TIP3    H155367   0.052   3.620  13.964  2.4199 -0.3792  1.0943
11292TIP3    H255368  -0.004   3.559  14.091 -1.9431  0.1802 -0.4529
11293TIP3   OH255369   5.628   1.809  14.474 -0.3579  0.0056 -0.5474
11293TIP3    H155370   5.533   1.812  14.482 -0.3807 -0.7152 -0.5141
11293TIP3    H255371   5.660   1.847  14.555 -0.6165 -0.6004 -0.1599
11294TIP3   OH255372   1.052   1.432  15.991  0.6185 -0.2982  0.5551
11294TIP3    H155373   1.058   1.338  16.009 -0.4039 -0.6636 -0.8695
11294TIP3    H255374   1.142   1.464  15.999  0.7377 -1.0762  2.6226
11295TIP3   OH255375   0.073   0.360  15.806 -0.0968  0.0117  0.1868
11295TIP3    H155376   0.037   0.319  15.884  0.4659  1.5948  1.3063
11295TIP3    H255377   0.167   0.344  15.812 -0.0480  0.1845 -0.1367
11296TIP3   OH255378   1.051   2.397  14.728  0.2983  0.3109  0.3279
11296TIP3    H155379   1.066   2.382  14.821 -0.1547  0.3792  0.4100
11296TIP3    H255380   0.976   2.342  14.705  1.1198 -0.5898 -0.2557
11297TIP3   OH255381   7.173   1.527   0.851  0.0690 -0.2753  0.5941
11297TIP3    H155382   7.118   1.604   0.866 -1.9772 -1.6921  0.7254
11297TIP3    H255383   7.263   1.558   0.860 -0.6645  2.4204 -0.9237
11298TIP3   OH255384   1.848   3.510   0.495 -0.3638 -0.2621  0.3648
11298TIP3    H155385   1.927   3.515   0.548  0.4245  0.5388 -0.8563
11298TIP3    H255386   1.869   3.558   0.415 -2.3654  0.7038  0.3654
11299TIP3   OH255387   0.721   2.859   0.865 -0.1480  0.2024 -0.6129
11299TIP3    H155388   0.651   2.829   0.924  0.8515  0.0792  0.5384
11299TIP3    H255389   0.798   2.866   0.922  0.7328  0.4987 -1.8340
11300TIP3   OH255390   5.616   3.263   4.206  0.2018 -0.1207 -0.4398
11300TIP3    H155391   5.542   3.230   4.156  0.7608 -0.1518 -1.2712
11300TIP3    H255392   5.615   3.357   4.192 -0.4779  0.0416  0.6624
11301TIP3   OH255393   2.583   3.071   2.651  0.1662 -0.0576 -0.0368
11301TIP3    H155394   2.611   3.049   2.740  1.2773 -1.8033 -0.7817
11301TIP3    H255395   2.661   3.056   2.598 -0.4708  1.0485 -1.3009
11302TIP3   OH255396   2.112   3.927   0.632 -0.0023  0.2379  0.1476
11302TIP3    H155397   2.191   3.944   0.682 -0.5630  0.9895  0.7820
11302TIP3    H255398   2.042   3.973   0.679 -0.6357  0.4689 -0.9872
11303TIP3   OH255399   2.247   2.717  15.298 -0.3224 -0.0739  0.7112
11303TIP3    H155400   2.175   2.741  15.356  1.0698  1.9191  1.6744
11303TIP3    H255401   2.241   2.779  15.225 -0.0787 -0.4184  0.3951
11304TIP3   OH255402   0.142   1.926  13.644 -0.2006 -0.1247 -0.1104
11304TIP3    H155403   0.143   2.006  13.698 -2.4174  0.9916 -1.6488
11304TIP3    H255404   0.227   1.886  13.660 -0.3443  0.7702  3.3099
11305TIP3   OH255405   6.716   2.292  14.911  0.4310  0.5862  0.1413
11305TIP3    H155406   6.705   2.364  14.973 -1.1546  1.2446 -0.8672
11305TIP3    H255407   6.660   2.222  14.945 -1.4852  1.4144 -1.2020
11306TIP3   OH255408   2.695   2.538   3.036 -0.3957  0.3498 -0.0939
11306TIP3    H155409   2.789   2.533   3.016 -0.5274 -0.9546 -0.4554
11306TIP3    H255410   2.671   2.449   3.061 -2.2379 -0.0965 -3.2249
11307TIP3   OH255411   1.167   1.721  15.783  0.5256 -0.1272 -0.2898
11307TIP3    H155412   1.148   1.786  15.716  1.3477 -0.7976 -1.1837
11307TIP3    H255413   1.103   1.738  15.852 -1.2983 -0.3842 -1.8852
11308TIP3   OH255414   1.327   1.696   0.586 -0.0477 -0.0340 -0.1416
11308TIP3    H155415   1.377   1.643   0.648  0.2486  1.5359  0.9877
11308TIP3    H255416   1.343   1.786   0.613  0.5737  0.7287 -2.8829
11309TIP3   OH255417   0.537   2.740   1.887 -0.0807 -0.1745 -0.0357
11309TIP3    H155418   0.618   2.732   1.837  0.5882  1.7936  0.6993
11309TIP3    H255419   0.468   2.745   1.820  0.7613  1.8629 -0.7848
11310TIP3   OH255420   0.977   4.185   3.860  0.3586  0.1176 -0.6104
11310TIP3    H155421   1.029   4.254   3.820  1.1913  0.0355  0.3144
11310TIP3    H255422   0.894   4.227   3.882  1.0972  1.0005  0.5388
11311TIP3   OH255423   0.646   2.108   0.960  0.0466 -0.2325  0.2284
11311TIP3    H155424   0.664   2.016   0.945  1.3589 -0.1872  1.4744
11311TIP3    H255425   0.670   2.123   1.051  1.1995  1.6704 -0.3544
11312TIP3   OH255426   3.113   2.177   0.615 -0.2567  0.8304 -0.3118
11312TIP3    H155427   3.059   2.159   0.539 -1.0798 -1.3973  0.7662
11312TIP3    H255428   3.098   2.103   0.674  1.7758  1.5804  1.2262
11313TIP3   OH255429   6.432   0.903  15.326 -0.3333 -0.2462  0.0185
11313TIP3    H155430   6.352   0.853  15.309 -0.1299 -0.6548  0.2594
11313TIP3    H255431   6.497   0.838  15.351  0.3006  0.0009 -0.9576
11314TIP3   OH255432   1.113   2.082   2.123  0.3460 -0.0431  0.5199
11314TIP3    H155433   1.209   2.090   2.125  0.3674 -0.1222 -0.0440
11314TIP3    H255434   1.094   2.049   2.035 -0.2164  0.1782  0.5567
11315TIP3   OH255435   6.949   3.178  15.693 -0.1251 -0.0925  1.0936
11315TIP3    H155436   6.876   3.121  15.668  1.0348  0.0653 -2.9359
11315TIP3    H255437   7.027   3.125  15.676  0.8383  0.1578  4.2999
11316TIP3   OH255438   6.453   5.543   2.831  0.6464 -0.2180  0.0303
11316TIP3    H155439   6.372   5.531   2.882  1.2419 -0.3024  0.9620
11316TIP3    H255440   6.447   5.477   2.761  0.0193 -0.3767  0.2258
11317TIP3   OH255441   2.498   0.901   0.362  0.2153 -0.1103  0.4031
11317TIP3    H155442   2.443   0.829   0.333  2.1578 -2.1892  1.7711
11317TIP3    H255443   2.466   0.923   0.450  1.1728 -0.9471  0.9717
11318TIP3   OH255444   2.194   0.255   0.441  0.1760  0.4031 -0.3672
11318TIP3    H155445   2.259   0.216   0.382  0.1075  1.3010 -1.0634
11318TIP3    H255446   2.245   0.315   0.495 -0.0499  1.0411 -0.8527
11319TIP3   OH255447   0.167   3.613   0.931 -0.2295  0.7886 -0.2146
11319TIP3    H155448   0.224   3.560   0.875 -1.3679  0.9957 -1.6059
11319TIP3    H255449   0.192   3.703   0.912  0.6163  0.8056  0.9652
11320TIP3   OH255450   0.609   4.513   1.824 -0.1748  0.5418  0.3320
11320TIP3    H155451   0.575   4.600   1.803 -0.2577  0.7702  1.4008
11320TIP3    H255452   0.680   4.500   1.761 -0.0116  1.4830  0.3063
11321TIP3   OH255453   6.177   3.364  14.852  0.4535 -0.4131 -0.3735
11321TIP3    H155454   6.184   3.331  14.941  0.5752  0.2623 -0.1334
11321TIP3    H255455   6.164   3.458  14.861 -1.2476 -0.5630 -1.0190
11322TIP3   OH255456   2.308   4.588   4.150  0.4707 -0.4166 -0.1540
11322TIP3    H155457   2.350   4.638   4.220 -1.1917  1.2368 -0.2963
11322TIP3    H255458   2.285   4.653   4.083  1.1715 -1.8320 -1.8224
11323TIP3   OH255459   1.960   1.585   0.891  1.0366 -0.2094 -0.1340
11323TIP3    H155460   1.976   1.620   0.979 -0.4691  0.3002 -0.0560
11323TIP3    H255461   1.944   1.662   0.837 -2.3924 -0.7146  0.0534
11324TIP3   OH255462   1.494   1.549   1.788  0.1993  0.0778 -0.3425
11324TIP3    H155463   1.497   1.575   1.880 -0.9551  1.9580 -0.7942
11324TIP3    H255464   1.400   1.540   1.769  0.4685 -1.2818 -1.0786
11325TIP3   OH255465   2.802   0.262   1.802 -0.4988  0.4130 -0.1730
11325TIP3    H155466   2.776   0.173   1.778  0.8501  0.2273 -1.0545
11325TIP3    H255467   2.796   0.312   1.721 -1.5664  1.2086  0.3926
11326TIP3   OH255468   1.777   4.067   1.584 -0.4239 -0.1686  0.7034
11326TIP3    H155469   1.839   4.093   1.516 -0.6953 -1.0577  0.0951
11326TIP3    H255470   1.806   4.113   1.662  1.6539 -1.3749  0.7013
11327TIP3   OH255471   0.800   0.979   2.309  0.2418 -0.2650  0.5579
11327TIP3    H155472   0.887   0.986   2.349 -0.0689  0.5262  1.1103
11327TIP3    H255473   0.742   1.024   2.370 -0.7181 -1.5975  0.6641
11328TIP3   OH255474   0.257   1.337   3.456  0.1888 -0.8174  0.2435
11328TIP3    H155475   0.226   1.310   3.542 -0.3573 -0.3504  0.1909
11328TIP3    H255476   0.190   1.396   3.423  1.1274  0.2269  0.1471
11329TIP3   OH255477   1.263   2.901   1.981 -0.4999 -0.4250 -0.4739
11329TIP3    H155478   1.329   2.937   2.041 -1.5221  1.2552 -0.3231
11329TIP3    H255479   1.268   2.957   1.903 -0.5881 -1.3290 -1.1370
11330TIP3   OH255480   2.209   1.227   3.148  0.5557  0.3555 -0.3526
11330TIP3    H155481   2.287   1.174   3.131  1.3820  1.4676 -0.0809
11330TIP3    H255482   2.227   1.268   3.233 -1.0477 -0.6776  0.4991
11331TIP3   OH255483   0.120   1.797   1.118  0.2372 -0.0225  0.0104
11331TIP3    H155484   0.139   1.841   1.035  0.1794  0.3946  0.2194
11331TIP3    H255485   0.156   1.709   1.107 -0.7795 -0.3306 -0.8785
11332TIP3   OH255486   2.301   2.265   2.604 -0.1505 -0.1551 -0.3844
11332TIP3    H155487   2.226   2.295   2.554  1.0997  1.5717 -1.2821
11332TIP3    H255488   2.301   2.320   2.683  0.7568  0.5868 -0.8897
11333TIP3   OH255489   6.926   3.214   0.726  0.3275  0.0018  0.1625
11333TIP3    H155490   6.946   3.305   0.749  0.6926 -0.1949  0.6384
11333TIP3    H255491   6.924   3.213   0.630  0.7501  0.4219  0.1463
11334TIP3   OH255492   0.967   1.098   1.316 -0.4768  0.5136 -0.6414
11334TIP3    H155493   0.879   1.062   1.325 -0.3508  0.3286 -0.0943
11334TIP3    H255494   0.985   1.095   1.222 -0.7359 -0.2185 -0.6739
11335TIP3   OH255495   1.132   1.316   0.820 -0.4043  0.1954 -0.3708
11335TIP3    H155496   1.196   1.329   0.749 -0.2669  1.1693 -0.0767
11335TIP3    H255497   1.112   1.405   0.850 -1.5320 -0.1342 -0.1334
11336TIP3   OH255498   2.136   1.044   4.008  0.1162 -0.0326 -0.1537
11336TIP3    H155499   2.160   1.086   4.091 -1.0987  0.6947 -0.1656
11336TIP3    H255500   2.056   0.995   4.027 -0.3623  0.4116 -0.9724
11337TIP3   OH255501   7.168   2.665  15.855 -0.5088  0.0451  0.3100
11337TIP3    H155502   7.105   2.594  15.869 -0.0087 -0.4149  0.2639
11337TIP3    H255503   7.138   2.709  15.776 -0.2976 -0.6907 -0.1834
11338TIP3   OH255504   0.787   3.390  15.393  0.2007 -0.5787 -0.3198
11338TIP3    H155505   0.872   3.423  15.364 -0.1066  0.3194 -0.2485
11338TIP3    H255506   0.729   3.404  15.318  0.2545 -1.7775 -0.5906
11339TIP3   OH255507   6.931   3.057   1.881 -0.2121  0.6566  0.0845
11339TIP3    H155508   6.880   3.128   1.842  0.3316  1.4771  0.8060
11339TIP3    H255509   6.870   3.011   1.938 -0.5616  0.5886 -0.3516
11340TIP3   OH255510   0.345   3.474   0.304 -0.5770  0.4943  0.4200
11340TIP3    H155511   0.398   3.453   0.380 -0.5765  0.8415  0.5189
11340TIP3    H255512   0.401   3.530   0.250 -0.6474  0.4134  0.2615
11341TIP3   OH255513   1.966   3.524   1.259  0.5204  0.6528 -0.2132
11341TIP3    H155514   1.880   3.562   1.276  0.3697  0.0478  0.4029
11341TIP3    H255515   2.012   3.528   1.343  0.8531  0.3636 -0.3791
11342TIP3   OH255516   0.671   4.213  15.689  0.0429  0.0860 -0.9779
11342TIP3    H155517   0.581   4.234  15.711  0.5881  0.1171  1.3198
11342TIP3    H255518   0.708   4.176  15.769  1.5193 -1.7547 -2.4568
11343TIP3   OH255519   3.269   4.664  14.567 -0.4868 -0.1262 -0.1293
11343TIP3    H155520   3.239   4.581  14.529  0.3501 -0.6684  0.3734
11343TIP3    H255521   3.339   4.693  14.508 -0.1917 -0.2213  0.1697
11344TIP3   OH255522   2.325   0.691   0.313 -0.1434  0.4142  0.4682
11344TIP3    H155523   2.282   0.758   0.260 -0.0993  0.9517  1.0935
11344TIP3    H255524   2.254   0.644   0.356 -0.2600 -1.1854 -1.4185
11345TIP3   OH255525   0.158   2.892   2.122 -0.2574 -0.3859 -0.8269
11345TIP3    H155526   0.115   2.858   2.044 -1.4805 -1.9215  0.4786
11345TIP3    H255527   0.235   2.838   2.133 -1.0370 -1.3463  0.0151
11346TIP3   OH255528   2.878   3.522   0.347 -0.2281 -0.0956  0.3028
11346TIP3    H155529   2.886   3.559   0.260  1.3100 -0.5804  0.2114
11346TIP3    H255530   2.794   3.477   0.348 -1.2065  1.7131 -0.2232
11347TIP3   OH255531   1.136   2.665   2.030  0.1678 -0.3241 -0.4617
11347TIP3    H155532   1.104   2.653   2.120  0.8506  0.3790 -0.1181
11347TIP3    H255533   1.149   2.759   2.022  1.3433 -0.5136 -0.8749
11348TIP3   OH255534   1.123   2.773   0.701  0.2318  0.4182 -0.6493
11348TIP3    H155535   1.210   2.735   0.695  0.0453  0.1160 -1.4947
11348TIP3    H255536   1.113   2.824   0.620 -0.5347  0.0924 -0.7698
11349TIP3   OH255537   2.103   3.521   0.612  0.1033 -0.1857  0.8945
11349TIP3    H155538   2.124   3.436   0.574  0.0920  0.7122 -1.2016
11349TIP3    H255539   2.136   3.516   0.702  0.8655 -2.0942  0.5314
11350TIP3   OH255540   7.173   2.772   0.562 -0.2304 -0.0622 -0.2526
11350TIP3    H155541   7.180   2.677   0.576  0.4832 -0.1341 -1.1103
11350TIP3    H255542   7.228   2.790   0.486  0.9080  1.2796  0.8576
11351TIP3   OH255543   5.713   4.089  15.827 -0.1468 -0.2495  0.1055
11351TIP3    H155544   5.803   4.111  15.803  0.2972  1.3330  2.9039
11351TIP3    H255545   5.721   4.006  15.874 -0.0673  0.1039  0.7263
11352TIP3   OH255546   6.997   2.110   1.314 -0.0266 -0.3818 -0.1931
11352TIP3    H155547   6.909   2.132   1.286  0.5904  0.5048 -1.5038
11352TIP3    H255548   6.986   2.044   1.383 -1.6713 -0.5145 -0.5867
11353TIP3   OH255549   2.092   1.305  15.803 -0.0525  0.1188 -0.5430
11353TIP3    H155550   2.147   1.291  15.726  0.0515 -1.1545 -0.2473
11353TIP3    H255551   2.142   1.266  15.875 -1.1946 -0.7610 -0.2231
11354TIP3   OH255552   2.733   0.445   0.436  0.0940 -0.2321 -0.2075
11354TIP3    H155553   2.811   0.407   0.476  0.1857 -0.9943 -1.0784
11354TIP3    H255554   2.762   0.530   0.402  0.3362 -0.1485  0.2118
11355TIP3   OH255555   1.680   0.732   2.648 -0.3002  0.8030  0.2285
11355TIP3    H155556   1.675   0.780   2.730 -3.0247  0.5537  0.2374
11355TIP3    H255557   1.649   0.794   2.582  0.2187  0.4363 -0.3620
11356TIP3   OH255558   1.372   2.109   2.135  0.8769  0.0672 -0.0552
11356TIP3    H155559   1.389   2.142   2.047  0.1256  0.1650 -0.1691
11356TIP3    H255560   1.430   2.160   2.192  1.5230 -0.1516 -0.5193
11357TIP3   OH255561   6.283   2.883   0.949  0.2933  0.1072 -0.1652
11357TIP3    H155562   6.207   2.892   1.007  0.8324  0.6252  0.4682
11357TIP3    H255563   6.245   2.871   0.862 -0.5187  0.5314  0.1230
11358TIP3   OH255564   0.981   1.427   2.706 -0.9017  0.0923 -0.2413
11358TIP3    H155565   1.045   1.450   2.772 -0.8706  1.6526 -0.8008
11358TIP3    H255566   0.987   1.331   2.699  0.9354  0.1666  0.1194
11359TIP3   OH255567   3.471   3.794   1.393  0.1073 -0.1352 -0.2236
11359TIP3    H155568   3.557   3.831   1.373 -0.7614  1.7568 -0.5301
11359TIP3    H255569   3.412   3.836   1.331 -1.5506  0.9212  2.0354
11360TIP3   OH255570   7.016   1.565  15.873 -0.2106  0.2521  0.3219
11360TIP3    H155571   6.928   1.541  15.900  0.1066  1.0975  2.2275
11360TIP3    H255572   7.065   1.572  15.956  1.4012  0.6574 -0.6432
11361TIP3   OH255573   5.970   4.014   0.781  0.1297  0.1356 -0.4368
11361TIP3    H155574   5.990   4.065   0.703  1.4442  1.6515  0.8557
11361TIP3    H255575   5.911   3.945   0.751 -0.0202  1.1880 -2.5990
11362TIP3   OH255576   2.703   0.494   4.066  0.3788 -0.1461 -0.0450
11362TIP3    H155577   2.686   0.456   3.980 -0.1406  0.0343 -0.0245
11362TIP3    H255578   2.764   0.566   4.049  0.6610 -0.4158 -0.1960
11363TIP3   OH255579   2.628   3.057  15.984 -0.1506  0.2245 -0.0451
11363TIP3    H155580   2.633   3.126  16.051  0.7290  0.4086 -0.2989
11363TIP3    H255581   2.549   3.078  15.934 -0.9621 -0.0584  1.0906
11364TIP3   OH255582   0.667   0.924   0.205 -0.7829  0.5180 -0.5595
11364TIP3    H155583   0.605   0.995   0.218 -0.7356  0.9218 -2.3722
11364TIP3    H255584   0.692   0.897   0.293 -1.8588  1.8169  0.1578
11365TIP3   OH255585   3.084   3.360   0.090  0.0315  0.0593  0.0044
11365TIP3    H155586   3.137   3.325   0.161 -0.6440  0.1115  0.5299
11365TIP3    H255587   3.099   3.299   0.017  0.4702 -0.1665  0.2785
11366TIP3   OH255588   1.331   0.188   0.227 -0.1727  0.1672  0.4761
11366TIP3    H155589   1.274   0.139   0.287  0.8243 -0.6815  0.7449
11366TIP3    H255590   1.306   0.157   0.140  0.0569 -0.3843  0.6080
11367TIP3   OH255591   7.189   3.354   2.342 -0.2546 -0.6885 -0.1670
11367TIP3    H155592   7.244   3.316   2.274  2.4132  0.7535  1.1319
11367TIP3    H255593   7.212   3.306   2.421  0.2817  0.9926  0.6989
11368TIP3   OH255594   1.434   3.629   2.363 -0.3949  0.3537  0.5629
11368TIP3    H155595   1.411   3.721   2.352 -1.0804  0.1458  0.1918
11368TIP3    H255596   1.353   3.588   2.393 -0.1212 -0.1480  0.6227
11369TIP3   OH255597   0.512   2.667  15.638  0.2178  0.4934  0.4414
11369TIP3    H155598   0.606   2.682  15.649  0.2435  0.8964 -0.2991
11369TIP3    H255599   0.482   2.638  15.724  1.2898 -1.0203  0.3165
11370TIP3   OH255600   0.688   4.005   2.012  0.3443  0.1329  0.7139
11370TIP3    H155601   0.612   4.062   2.024 -1.6549 -2.2552 -0.2114
11370TIP3    H255602   0.747   4.056   1.956 -0.9792  1.6585  0.6601
11371TIP3   OH255603   2.093   0.857   3.059 -0.3962  0.1302  0.3946
11371TIP3    H155604   2.123   0.891   2.975 -1.4356  0.8936  0.3205
11371TIP3    H255605   2.055   0.772   3.039 -2.4919  1.1886 -0.2411
11372TIP3   OH255606   6.970   5.116  14.952  0.1786 -0.2471 -0.4122
11372TIP3    H155607   7.029   5.192  14.943 -2.0431  1.3884 -1.7153
11372TIP3    H255608   6.973   5.095  15.046  0.1714  2.0235  0.1320
11373TIP3   OH255609   2.389   2.812  15.718 -0.9102  0.1690  0.3678
11373TIP3    H155610   2.335   2.763  15.780 -2.3409  1.4193  0.1367
11373TIP3    H255611   2.415   2.891  15.766 -0.4121  0.2202  0.0152
11374TIP3   OH255612   5.253   3.579  15.932  0.4051  0.6027  0.1622
11374TIP3    H155613   5.189   3.587  16.002  2.0869  0.1568  1.7994
11374TIP3    H255614   5.338   3.573  15.977  1.4925 -0.0812 -1.8882
11375TIP3   OH255615   2.961   5.004  15.637  0.6283  0.2251  0.0205
11375TIP3    H155616   2.979   4.929  15.580 -1.0075 -0.0306 -0.1897
11375TIP3    H255617   2.960   4.966  15.725 -2.5703 -0.5099 -0.2641
11376TIP3   OH255618   1.549   0.718   1.156 -0.3379 -0.3171 -0.5666
11376TIP3    H155619   1.559   0.636   1.107  0.8068  0.6542 -2.0017
11376TIP3    H255620   1.459   0.746   1.137 -1.5953 -2.4695  1.9210
11377TIP3   OH255621   1.022   3.107   1.700 -0.5839 -0.0284 -0.1127
11377TIP3    H155622   1.031   3.049   1.624 -0.9472 -1.2963  0.7908
11377TIP3    H255623   1.111   3.138   1.717 -0.1284 -1.5530  0.3397
11378TIP3   OH255624   0.679   1.287  15.173 -0.0600  0.0645  0.0588
11378TIP3    H155625   0.727   1.301  15.091  1.0675 -0.1243  0.6779
11378TIP3    H255626   0.747   1.269  15.238 -0.8664  1.1548  1.2439
11379TIP3   OH255627   0.333   1.532   1.739 -1.2822 -0.3399 -0.7742
11379TIP3    H155628   0.382   1.544   1.657 -2.5471  0.0967 -1.4785
11379TIP3    H255629   0.252   1.582   1.725 -1.6657 -0.5809  0.6014
11380TIP3   OH255630   6.641   3.992   0.210 -0.3883  0.0418 -0.3032
11380TIP3    H155631   6.607   4.072   0.251  0.0724 -0.4674  1.1333
11380TIP3    H255632   6.686   3.947   0.282  0.0161 -1.1296 -1.2850
11381TIP3   OH255633   2.864   2.521   0.455  0.4064 -0.1951  0.3802
11381TIP3    H155634   2.927   2.496   0.388 -0.9108 -0.6023 -0.7149
11381TIP3    H255635   2.854   2.616   0.445 -1.0155 -0.4756 -1.1099
11382TIP3   OH255636   3.241   0.867   1.431  0.0436 -0.4314 -0.0379
11382TIP3    H155637   3.310   0.870   1.365 -1.8773 -0.0263 -2.1045
11382TIP3    H255638   3.267   0.934   1.495  2.3318 -1.3659  0.0550
11383TIP3   OH255639   6.870   2.865   2.444 -0.1832  0.0941 -0.0388
11383TIP3    H155640   6.807   2.861   2.372  0.1370 -0.2475 -0.3030
11383TIP3    H255641   6.922   2.785   2.435  0.5878  0.5940 -0.1108
11384TIP3   OH255642   2.235   0.084  15.256 -0.2107  0.4860 -0.1386
11384TIP3    H155643   2.299   0.128  15.312  0.0889  0.6420 -0.6010
11384TIP3    H255644   2.153   0.089  15.306  0.3660 -0.7077  0.9541
11385TIP3   OH255645   5.132   2.533  13.848 -0.1982 -0.0897 -0.5276
11385TIP3    H155646   5.103   2.450  13.809 -0.2787  0.5950 -1.9481
11385TIP3    H255647   5.132   2.516  13.943  0.6755 -1.9958 -0.8351
11386TIP3   OH255648   3.250   2.736   1.750  0.1736  0.6054  0.5933
11386TIP3    H155649   3.284   2.797   1.684 -0.7382  1.6595  1.0822
11386TIP3    H255650   3.155   2.738   1.738  0.0311  0.5348  1.7095
11387TIP3   OH255651   1.653   1.470   1.595 -0.2038  0.0046  0.0221
11387TIP3    H155652   1.582   1.509   1.647  0.1271  0.5707  0.0456
11387TIP3    H255653   1.726   1.462   1.656 -0.1765 -0.3761 -0.0615
11388TIP3   OH255654   7.139   2.649   0.278  0.2604  0.0762 -0.6846
11388TIP3    H155655   7.048   2.662   0.252  0.0793  0.1055 -0.0368
11388TIP3    H255656   7.141   2.560   0.313  0.0712  0.7334  1.0545
11389TIP3   OH255657   5.736   2.535   1.181  0.4966  0.0788 -0.3870
11389TIP3    H155658   5.818   2.488   1.190  0.8814  0.6257 -0.9896
11389TIP3    H255659   5.755   2.623   1.212  0.1578  0.2221 -0.5801
11390TIP3   OH255660   0.251   1.066   0.583  0.2073  0.4292 -0.4297
11390TIP3    H155661   0.275   1.047   0.492  1.6755  3.3166 -0.7070
11390TIP3    H255662   0.171   1.117   0.577  0.1914  0.4438 -0.0818
11391TIP3   OH255663   0.883   1.695  15.164  0.2645  0.1682 -0.2667
11391TIP3    H155664   0.919   1.695  15.253 -0.1178  2.4944 -0.0785
11391TIP3    H255665   0.880   1.603  15.140  0.6008 -0.4946  2.0375
11392TIP3   OH255666   2.704   3.844   0.275  0.1544  0.3270 -0.7110
11392TIP3    H155667   2.773   3.793   0.231 -1.1311 -1.9393 -0.2157
11392TIP3    H255668   2.629   3.837   0.216 -0.9013 -0.8415  0.7460
11393TIP3   OH255669   2.668   3.424   4.002  0.7907  0.2753  0.1738
11393TIP3    H155670   2.670   3.511   4.041  1.8140  0.9817 -1.4323
11393TIP3    H255671   2.609   3.432   3.928  0.7270 -0.4560  0.1416
11394TIP3   OH255672   1.979   0.714   3.869  0.3054 -0.4377  0.2550
11394TIP3    H155673   1.964   0.722   3.963  0.1422 -1.3234  0.3018
11394TIP3    H255674   1.945   0.628   3.846  0.7963 -0.4267 -0.5252
11395TIP3   OH255675   2.760   5.081  13.603  0.3036 -0.1485 -0.4264
11395TIP3    H155676   2.736   4.989  13.600  0.9195 -0.3025 -0.5397
11395TIP3    H255677   2.842   5.084  13.652  0.0487  0.3891 -0.0098
11396TIP3   OH255678   3.141   0.420   3.772 -0.1075 -0.4037  0.4376
11396TIP3    H155679   3.109   0.330   3.777  0.6743 -0.7724 -0.9351
11396TIP3    H255680   3.227   0.413   3.729 -0.5975  1.1177 -0.8323
11397TIP3   OH255681   5.994   4.138   1.948 -0.5040  0.4675  0.4115
11397TIP3    H155682   6.047   4.094   1.880 -1.2453 -0.1202  0.2106
11397TIP3    H255683   5.992   4.229   1.921  1.4766  0.7449  1.0990
11398TIP3   OH255684   5.553   2.772   1.409  0.3307  0.3356  0.6744
11398TIP3    H155685   5.492   2.810   1.346 -1.1752 -1.8958  0.7575
11398TIP3    H255686   5.503   2.766   1.490  1.4023  0.6322  1.3678
11399TIP3   OH255687   4.392   2.624   1.159  0.0295 -0.3832  0.0887
11399TIP3    H155688   4.377   2.717   1.174  0.5405 -0.0853 -1.2747
11399TIP3    H255689   4.484   2.617   1.133 -0.2384 -1.1622 -0.6835
11400TIP3   OH255690   0.890   1.857   1.392  0.0071  0.3706  0.7124
11400TIP3    H155691   0.843   1.827   1.314 -1.2907  1.7641  0.9533
11400TIP3    H255692   0.824   1.858   1.461  0.2087  2.9539  0.9019
11401TIP3   OH255693   3.932   1.879   0.085  0.0317  0.4998  0.2111
11401TIP3    H155694   3.846   1.921   0.076 -0.2147  0.5446  2.4810
11401TIP3    H255695   3.932   1.843   0.173  1.4592 -1.5739 -0.6006
11402TIP3   OH255696   2.335   4.583   3.378 -0.4988  0.7211  0.1351
11402TIP3    H155697   2.375   4.499   3.401  0.4737  0.9852 -0.5524
11402TIP3    H255698   2.247   4.578   3.415 -0.4930 -0.6420  0.0099
11403TIP3   OH255699   2.033   3.071   2.107 -0.0128  0.2319 -0.0007
11403TIP3    H155700   2.019   3.065   2.202  0.3856  0.6125  0.0787
11403TIP3    H255701   1.987   2.994   2.072 -1.5875  1.0052  0.3459
11404TIP3   OH255702   1.658   4.531  15.834 -0.3916  0.0081 -0.2524
11404TIP3    H155703   1.632   4.615  15.795 -1.8795 -0.4531 -0.2891
11404TIP3    H255704   1.750   4.542  15.856 -0.5358  1.6027 -0.4030
11405TIP3   OH255705   2.008   5.038   1.154 -0.4093  0.1817 -0.0543
11405TIP3    H155706   1.989   4.974   1.085 -0.0306 -0.3976  0.3675
11405TIP3    H255707   2.104   5.044   1.154 -0.4598  1.0828 -0.3847
11406TIP3   OH255708   4.916   2.723   0.191 -0.0920 -0.0351  0.3060
11406TIP3    H155709   4.853   2.668   0.144 -1.9788  0.4255  2.2471
11406TIP3    H255710   4.945   2.669   0.264  0.3687  0.4409  0.4735
11407TIP3   OH255711   5.064   1.847   2.992 -0.1073 -0.1926  0.3847
11407TIP3    H155712   5.068   1.824   3.085  0.4534  1.6466  0.8364
11407TIP3    H255713   5.117   1.927   2.985 -1.2041  0.4026 -1.2867
11408TIP3   OH255714   1.060   1.554   0.912 -0.0629  0.4053  0.3414
11408TIP3    H155715   0.967   1.579   0.922  0.4298  2.8396 -0.6845
11408TIP3    H255716   1.101   1.585   0.993 -0.4263 -2.2626  1.5812
11409TIP3   OH255717   4.145   7.201   1.127 -0.1353  0.4762 -0.3181
11409TIP3    H155718   4.125   7.282   1.174  0.4511  0.7868 -0.5971
11409TIP3    H255719   4.238   7.187   1.143 -0.6260 -1.1274  1.2418
11410TIP3   OH255720   3.530   6.630   1.215 -0.0616 -0.2509 -0.3467
11410TIP3    H155721   3.602   6.576   1.183  0.3392  0.7611 -1.1914
11410TIP3    H255722   3.539   6.629   1.310  1.2639  0.1373 -0.4672
11411TIP3   OH255723   3.156   1.543   0.281  0.1868 -0.2006  0.4534
11411TIP3    H155724   3.183   1.513   0.193 -0.9615  1.7192 -0.5760
11411TIP3    H255725   3.063   1.524   0.285  0.4413 -1.2689  1.7063
11412TIP3   OH255726   2.147   2.319   1.873 -0.0806 -0.1283  0.5183
11412TIP3    H155727   2.109   2.241   1.914  1.0915 -1.4195 -0.7784
11412TIP3    H255728   2.081   2.387   1.884 -1.4869 -1.5390  0.9243
11413TIP3   OH255729   3.304   4.468   2.036 -0.3564  0.3135  0.0942
11413TIP3    H155730   3.356   4.476   2.116 -1.3958  2.1624  0.6069
11413TIP3    H255731   3.368   4.465   1.966  0.4543  3.4221  0.6480
11414TIP3   OH255732   1.022   1.217   2.398  0.3164  0.1399  0.0665
11414TIP3    H155733   0.941   1.257   2.365 -0.5652 -1.0345  0.7518
11414TIP3    H255734   1.074   1.202   2.319 -1.2971 -1.5764 -0.7282
11415TIP3   OH255735   3.710   2.172  13.760 -0.2471 -0.3902  0.0471
11415TIP3    H155736   3.666   2.100  13.715 -1.2302  0.9200 -1.1364
11415TIP3    H255737   3.725   2.237  13.691  2.1224 -0.1353  0.7459
11416TIP3   OH255738   0.619   3.841   3.138  0.3078  0.1658  0.2283
11416TIP3    H155739   0.670   3.899   3.080  0.1564  0.5724  0.5000
11416TIP3    H255740   0.556   3.798   3.080  0.2093  0.5138  0.0758
11417TIP3   OH255741   3.731   2.066   1.333  0.2516 -0.7117 -0.3813
11417TIP3    H155742   3.826   2.058   1.332  0.3790  0.6710 -0.3260
11417TIP3    H255743   3.702   2.005   1.401  1.0840 -1.1965 -0.4610
11418TIP3   OH255744   2.175   3.281  15.838 -0.2531 -0.1831  0.1364
11418TIP3    H155745   2.110   3.351  15.834  1.9180  1.8924  0.1297
11418TIP3    H255746   2.133   3.212  15.889 -2.3600  1.1920  0.3240
11419TIP3   OH255747   0.887   4.110   1.842 -0.0924 -0.7609  0.0610
11419TIP3    H155748   0.911   4.127   1.751  1.8684  1.9394  1.0259
11419TIP3    H255749   0.967   4.126   1.891 -1.0096 -2.6628  2.2266
11420TIP3   OH255750   2.689   3.027  15.381 -0.4726  0.1273 -0.7128
11420TIP3    H155751   2.739   3.096  15.338 -0.4426 -0.0283 -0.9289
11420TIP3    H255752   2.683   3.054  15.473 -0.6326  0.5168 -0.8369
11421TIP3   OH255753   4.659   2.336   1.549 -0.7160 -0.4670  0.3640
11421TIP3    H155754   4.594   2.314   1.615 -0.4689  0.3729  0.8847
11421TIP3    H255755   4.622   2.410   1.502 -0.5125 -0.5281  0.1078
11422TIP3   OH255756   5.075   0.553   2.609  0.1972 -0.6861  0.0680
11422TIP3    H155757   5.155   0.530   2.657  0.3066 -1.6201 -0.5515
11422TIP3    H255758   5.099   0.544   2.517 -0.0846  0.8525 -0.1686
11423TIP3   OH255759   3.432   1.992   1.896 -0.0202  0.2725 -0.3912
11423TIP3    H155760   3.452   1.906   1.860  0.8609 -0.5918  2.0560
11423TIP3    H255761   3.341   1.985   1.927 -0.0143  0.2840 -0.3708
11424TIP3   OH255762   5.546   4.169   0.286  0.1566 -0.4849 -0.5471
11424TIP3    H155763   5.595   4.246   0.258  0.9119 -0.6399  0.3180
11424TIP3    H255764   5.609   4.118   0.337 -0.1995 -1.9088 -1.5132
11425TIP3   OH255765   4.806   3.522  15.828 -0.1075  0.0548 -0.1252
11425TIP3    H155766   4.795   3.589  15.760 -0.2055 -1.3672 -1.5334
11425TIP3    H255767   4.885   3.475  15.802 -0.3376 -0.7161  0.5629
11426TIP3   OH255768   2.391   2.395   1.439 -0.1454 -0.0044  0.1966
11426TIP3    H155769   2.339   2.374   1.362  0.1846 -1.2004  0.2939
11426TIP3    H255770   2.340   2.362   1.513 -1.5255  3.1142  0.7061
11427TIP3   OH255771   5.376   4.725  15.459  0.2532  0.2756 -0.3221
11427TIP3    H155772   5.321   4.735  15.536 -1.1123 -1.5477 -1.0211
11427TIP3    H255773   5.327   4.765  15.388  1.1862  1.3054 -0.4036
11428TIP3   OH255774   4.984   3.870  15.095 -0.2599 -0.1961  0.2698
11428TIP3    H155775   4.928   3.808  15.141 -1.5364  0.0589 -0.8888
11428TIP3    H255776   4.997   3.942  15.158 -0.2752 -0.7949  0.9579
11429TIP3   OH255777   2.533   1.160   1.186  0.2061  0.6421 -0.4223
11429TIP3    H155778   2.573   1.080   1.152 -0.2001 -0.5332  1.7354
11429TIP3    H255779   2.607   1.214   1.214  0.4224  0.1790 -0.0922
11430TIP3   OH255780   2.536   2.024  14.439  0.0035 -0.2969 -0.4091
11430TIP3    H155781   2.544   1.930  14.421  3.5075 -0.2256  0.4232
11430TIP3    H255782   2.510   2.062  14.355  1.0049 -1.7502 -1.4096
11431TIP3   OH255783   4.121   3.041  15.923 -1.0172  0.3380  0.3979
11431TIP3    H155784   4.088   2.980  15.989  1.5866 -1.8375 -0.1915
11431TIP3    H255785   4.141   2.985  15.848  1.2261  1.9392 -0.2559
11432TIP3   OH255786   1.175   2.256   0.781 -0.3248  0.3790 -0.6820
11432TIP3    H155787   1.132   2.334   0.745  0.5159  0.2874 -1.8894
11432TIP3    H255788   1.185   2.277   0.874 -0.6572  1.4628 -0.8731
11433TIP3   OH255789   2.708   3.501   2.547 -0.2239 -0.1965  0.2169
11433TIP3    H155790   2.653   3.526   2.472  1.0859 -0.0244 -0.7143
11433TIP3    H255791   2.749   3.420   2.520 -0.4935 -0.6551  1.1654
11434TIP3   OH255792   1.463   1.020   1.558 -0.3384  0.4308 -0.0364
11434TIP3    H155793   1.381   1.068   1.570  0.1147  1.2554 -0.2458
11434TIP3    H255794   1.496   1.050   1.473 -0.9682 -1.6065 -1.0424
11435TIP3   OH255795   1.296   4.546   1.776  0.3585  0.8524  0.3753
11435TIP3    H155796   1.207   4.512   1.767  0.5802 -0.1145  1.6983
11435TIP3    H255797   1.326   4.558   1.686  0.0824 -1.9814 -0.1313
11436TIP3   OH255798   0.869   2.644   0.489 -0.4956  0.2930  0.3312
11436TIP3    H155799   0.911   2.573   0.441 -1.8584  0.0616 -0.5313
11436TIP3    H255800   0.934   2.715   0.489 -0.3131  0.1369 -1.4701
11437TIP3   OH255801   4.657   5.777  15.350 -0.1275 -0.0608 -0.4328
11437TIP3    H155802   4.588   5.842  15.336  0.3096  0.6929  0.8075
11437TIP3    H255803   4.617   5.693  15.325 -0.6424  0.6915 -2.1986
11438TIP3   OH255804   3.613   3.417   3.039 -0.8727 -0.6199 -0.4401
11438TIP3    H155805   3.676   3.482   3.009 -1.9098  0.5558 -0.1390
11438TIP3    H255806   3.655   3.373   3.113 -0.0890 -0.4313 -0.7744
11439TIP3   OH255807   3.911   2.417   1.851  0.3624  0.5006  0.1150
11439TIP3    H155808   3.853   2.426   1.926  0.0450 -1.4497  0.1324
11439TIP3    H255809   3.862   2.453   1.777 -0.4279 -0.0728  0.3522
11440TIP3   OH255810   0.861   1.778   4.222 -0.2934 -0.3338 -0.9941
11440TIP3    H155811   0.864   1.730   4.139  3.7142 -0.6998 -0.7448
11440TIP3    H255812   0.934   1.840   4.216 -0.3894  0.1216  1.9509
11441TIP3   OH255813   3.837   0.407  13.394  0.0059  0.5899 -0.0525
11441TIP3    H155814   3.904   0.361  13.445  0.3790  0.3585 -0.7552
11441TIP3    H255815   3.780   0.446  13.461  1.0366  1.0870  0.5491
11442TIP3   OH255816   5.741   3.803   1.432 -0.4408  1.3422 -0.0107
11442TIP3    H155817   5.835   3.784   1.426 -0.6691  0.4950 -1.0108
11442TIP3    H255818   5.726   3.821   1.524  0.1381 -1.6051  0.7045
11443TIP3   OH255819   5.615   4.659  15.212 -0.0749 -0.3134 -0.4983
11443TIP3    H155820   5.649   4.628  15.128 -0.6715 -0.0801 -0.8356
11443TIP3    H255821   5.525   4.686  15.192  0.2517  1.1183 -0.1074
11444TIP3   OH255822   1.927   3.169   0.563 -0.2983  0.4678 -0.5078
11444TIP3    H155823   1.926   3.075   0.581 -1.4846  0.3824 -0.9705
11444TIP3    H255824   1.946   3.175   0.470  0.0514  0.6975 -0.4205
11445TIP3   OH255825   2.423   3.546   0.149 -0.3300  0.2534 -0.0587
11445TIP3    H155826   2.402   3.551   0.056 -2.4472 -1.8754  0.2505
11445TIP3    H255827   2.380   3.622   0.188 -2.0476 -0.5293 -0.4021
11446TIP3   OH255828   5.852   5.806   3.492  0.0619 -0.1083 -0.3310
11446TIP3    H155829   5.857   5.825   3.586 -0.7666 -2.1603  0.1530
11446TIP3    H255830   5.842   5.711   3.487 -1.0482  0.0884 -2.4633
11447TIP3   OH255831   7.292   1.776   3.040 -0.0757  0.5966  0.1287
11447TIP3    H155832   7.262   1.754   2.952 -1.8501  0.4082  0.7545
11447TIP3    H255833   7.288   1.872   3.043  1.2289  0.6791 -0.4036
11448TIP3   OH255834   4.201   4.895  15.776 -0.1993  0.1872  0.3575
11448TIP3    H155835   4.208   4.870  15.868 -0.5573  1.3479  0.6993
11448TIP3    H255836   4.121   4.853  15.746  0.6071 -1.2900  0.2123
11449TIP3   OH255837   3.343   4.776  15.953 -0.5002  0.1193 -0.2719
11449TIP3    H155838   3.268   4.719  15.934  0.1824 -1.1146  0.6120
11449TIP3    H255839   3.391   4.729  16.022  1.5893  0.4256 -1.4689
11450TIP3   OH255840   4.497   2.768   1.957  0.5221  0.0340  0.0272
11450TIP3    H155841   4.520   2.798   1.869  0.3776  1.3444  0.4219
11450TIP3    H255842   4.548   2.688   1.970  1.4623  0.5002 -0.7794
11451TIP3   OH255843   3.271   4.807   1.181 -0.6651 -0.1719  1.0226
11451TIP3    H155844   3.229   4.883   1.222 -0.8916  1.1054 -1.4533
11451TIP3    H255845   3.363   4.813   1.207 -1.0543 -0.1606  2.4283
11452TIP3   OH255846   3.586   3.027   2.511  0.3011  0.3715  0.4641
11452TIP3    H155847   3.621   3.030   2.600  1.8198 -0.9804 -0.0615
11452TIP3    H255848   3.622   3.105   2.469 -1.9026  2.0295  1.5141
11453TIP3   OH255849   5.059   2.993   1.231  0.5501 -0.2910  0.6673
11453TIP3    H155850   5.014   3.015   1.313  2.7899  0.0720  1.8616
11453TIP3    H255851   5.086   3.078   1.195  1.0023 -0.5406  0.4105
11454TIP3   OH255852   2.210   3.294   0.496  0.0629 -0.0552 -0.3749
11454TIP3    H155853   2.297   3.254   0.488  1.9747  3.5141  1.4803
11454TIP3    H255854   2.162   3.262   0.420  3.8016 -0.2038 -2.8181
11455TIP3   OH255855   3.332   2.087   3.585 -0.3147 -0.5266  0.4755
11455TIP3    H155856   3.391   2.014   3.605  0.7104  0.2547  0.3603
11455TIP3    H255857   3.337   2.097   3.490 -2.3503 -1.8714  0.1949
11456TIP3   OH255858   2.935   1.962  15.341 -0.2072  0.7887 -0.1401
11456TIP3    H155859   2.851   2.008  15.343  0.5950  2.2571  1.0764
11456TIP3    H255860   2.942   1.921  15.427 -0.3550 -0.6022 -0.7831
11457TIP3   OH255861   5.478   1.464   0.424 -0.1207 -0.0779 -0.3612
11457TIP3    H155862   5.438   1.472   0.510 -2.7253 -1.5467 -1.3954
11457TIP3    H255863   5.517   1.550   0.407  2.2983 -0.3815  3.1210
11458TIP3   OH255864   2.348   7.250   0.499  0.2113 -0.1372 -0.1652
11458TIP3    H155865   2.283   7.258   0.428 -0.5981 -1.2935  0.4356
11458TIP3    H255866   2.309   7.187   0.560  1.9352 -0.9004  0.1713
11459TIP3   OH255867   0.561   1.142   1.630  0.0629 -0.0894 -0.1981
11459TIP3    H155868   0.493   1.121   1.693 -0.2810 -0.2255 -0.6168
11459TIP3    H255869   0.639   1.096   1.662  0.3294  1.2242  1.0648
11460TIP3   OH255870   3.001   4.536  14.282  0.1027  0.2208 -0.5892
11460TIP3    H155871   3.079   4.484  14.301 -0.4446 -0.3698  0.1051
11460TIP3    H255872   2.947   4.528  14.361 -1.0235 -0.0546 -1.3710
11461TIP3   OH255873   6.191   2.907   3.223 -0.8131  0.2162 -0.0292
11461TIP3    H155874   6.231   2.961   3.292  1.2781  1.4443 -2.1189
11461TIP3    H255875   6.137   2.968   3.173 -1.7568 -0.5097  0.0999
11462TIP3   OH255876   3.005   0.525   3.274  0.1733  0.2585  0.5336
11462TIP3    H155877   2.972   0.448   3.322  3.0624 -2.0761 -1.0679
11462TIP3    H255878   2.951   0.528   3.195  0.8834 -0.9446 -0.0176
11463TIP3   OH255879   3.879   1.574  15.308 -0.1321  0.1776  0.4144
11463TIP3    H155880   3.972   1.596  15.302  0.4957 -2.3618  0.3760
11463TIP3    H255881   3.870   1.531  15.393 -0.8560 -1.3991 -0.4483
11464TIP3   OH255882   2.921   0.722  14.881 -0.2664  0.8839 -0.0588
11464TIP3    H155883   2.890   0.715  14.790 -0.1543  0.8138 -0.0910
11464TIP3    H255884   2.852   0.680  14.933  0.6982 -1.0939 -0.3072
11465TIP3   OH255885   3.524   3.417  15.910 -0.0295 -0.9878  0.6648
11465TIP3    H155886   3.527   3.323  15.929 -1.0343 -0.9662  0.9596
11465TIP3    H255887   3.433   3.433  15.884  0.0647 -0.0461  0.9090
11466TIP3   OH255888   1.271   0.594   0.942  0.5701 -0.4311 -0.4452
11466TIP3    H155889   1.353   0.636   0.915 -0.1245  1.3734  0.1400
11466TIP3    H255890   1.232   0.656   1.004  0.1277 -2.5746  1.4632
11467TIP3   OH255891   3.115   0.648   0.033 -0.0737 -0.6664  0.3669
11467TIP3    H155892   3.045   0.586   0.054  0.4005 -1.2027  0.3738
11467TIP3    H255893   3.196   0.599   0.050  0.3037  0.3056  1.4513
11468TIP3   OH255894   1.737   3.810  15.460 -0.1640  0.1586  0.3441
11468TIP3    H155895   1.707   3.856  15.538 -1.4596 -0.7999  0.4416
11468TIP3    H255896   1.699   3.722  15.468  3.6527 -1.5359  1.0471
11469TIP3   OH255897   1.437   2.586   1.609 -0.4019 -0.4181  0.2502
11469TIP3    H155898   1.454   2.619   1.698 -1.6736 -0.6347  0.5892
11469TIP3    H255899   1.387   2.656   1.567 -0.4843 -0.6492 -0.0402
11470TIP3   OH255900   1.914   4.260  15.525 -0.1317 -0.2062 -0.3316
11470TIP3    H155901   1.962   4.250  15.443  1.8115 -0.2370  0.7741
11470TIP3    H255902   1.870   4.345  15.517  2.0659  0.9414 -0.4110
11471TIP3   OH255903   0.708   0.085  15.695 -0.4029  0.0049 -1.0705
11471TIP3    H155904   0.733   0.135  15.772 -1.9453 -0.6681 -0.1126
11471TIP3    H255905   0.752   0.000  15.706 -0.2950  0.0511 -1.1412
11472TIP3   OH255906   3.557   2.725   2.048 -0.4062  0.1025 -0.1721
11472TIP3    H155907   3.630   2.685   2.002 -0.6476 -0.6290  0.0832
11472TIP3    H255908   3.586   2.815   2.064  1.2919 -0.7364  1.7286
11473TIP3   OH255909   4.814   1.300   0.121 -0.7579 -0.4834  0.1340
11473TIP3    H155910   4.831   1.347   0.203 -0.4976  1.0756 -0.7971
11473TIP3    H255911   4.888   1.240   0.113  0.5784  1.1625 -0.2260
11474TIP3   OH255912   4.039   4.719   3.670 -0.1471  0.3262  0.0683
11474TIP3    H155913   3.984   4.644   3.690  0.6533  0.2704  2.0904
11474TIP3    H255914   4.127   4.693   3.696  0.4743  1.2379 -1.0631
11475TIP3   OH255915   2.374   1.542   3.952  0.4858  0.6666 -0.1562
11475TIP3    H155916   2.310   1.526   4.022 -0.4916  2.0533 -0.7106
11475TIP3    H255917   2.373   1.637   3.940  1.0342  0.4864 -1.7133
11476TIP3   OH255918   2.298   1.942   1.140 -0.5518 -0.4900  0.4225
11476TIP3    H155919   2.236   1.928   1.068  0.7712  0.9383 -1.0358
11476TIP3    H255920   2.339   1.857   1.153  0.1528 -0.4501 -1.4315
11477TIP3   OH255921   1.839   1.975   2.106  0.4094  0.6609  0.0888
11477TIP3    H155922   1.917   1.958   2.054 -1.5740 -0.6422 -2.5587
11477TIP3    H255923   1.773   2.004   2.043 -2.0274 -0.8458  1.8368
11478TIP3   OH255924   6.296   2.945   1.625 -0.4901 -0.0554 -0.1697
11478TIP3    H155925   6.329   2.939   1.535 -2.4038  1.1460 -0.9543
11478TIP3    H255926   6.284   3.038   1.641  0.8700 -0.1658  1.7472
11479TIP3   OH255927   4.223   5.416  13.251 -0.4715  0.2086  0.0792
11479TIP3    H155928   4.169   5.467  13.190  0.4430 -0.3836 -1.2341
11479TIP3    H255929   4.163   5.392  13.322 -1.2583  1.9029  0.0129
11480TIP3   OH255930   3.819   3.296   0.641 -0.4947  0.0129 -0.0906
11480TIP3    H155931   3.727   3.309   0.617 -1.1777 -0.7565  2.0459
11480TIP3    H255932   3.845   3.218   0.593 -0.7137  0.6705 -1.3046
11481TIP3   OH255933   3.997   1.750   1.688  0.2341 -0.0591  0.1566
11481TIP3    H155934   3.948   1.671   1.710 -1.0880  0.7163  0.0951
11481TIP3    H255935   4.019   1.789   1.772  1.0804 -0.6102  0.1891
11482TIP3   OH255936   7.295   2.374   1.612 -0.2342 -0.0180  0.0416
11482TIP3    H155937   7.230   2.441   1.591  3.0819  2.5131 -2.8425
11482TIP3    H255938   7.335   2.405   1.693 -0.4806  0.0834  0.1253
11483TIP3   OH255939   3.450   4.051   0.656  0.5076  0.0898  0.1871
11483TIP3    H155940   3.451   4.127   0.713  0.0500  1.0676 -1.0731
11483TIP3    H255941   3.411   4.083   0.574 -0.2120 -1.6298 -0.1674
11484TIP3   OH255942   2.547   5.335   1.256  0.1005  0.2257 -0.1833
11484TIP3    H155943   2.573   5.258   1.205  0.1981 -0.0069  0.2141
11484TIP3    H255944   2.458   5.315   1.286  0.7191 -0.4529  1.2869
11485TIP3   OH255945   3.547   3.750   1.000 -0.6080  0.4786  0.3846
11485TIP3    H155946   3.603   3.802   1.058  1.1535  0.0405 -0.9207
11485TIP3    H255947   3.554   3.661   1.034  1.7823 -0.0767 -1.5269
11486TIP3   OH255948   1.040   3.018   0.025  0.1948  0.1991  0.7531
11486TIP3    H155949   1.050   2.941  -0.031 -0.3482  1.0939 -0.5857
11486TIP3    H255950   1.080   2.992   0.108  1.7184 -0.8667 -0.2900
11487TIP3   OH255951   2.323   3.691   1.196  0.1760 -0.5108 -0.2619
11487TIP3    H155952   2.260   3.763   1.191  2.1936  1.2356 -1.1695
11487TIP3    H255953   2.359   3.685   1.107  0.2835 -2.4073 -0.0993
11488TIP3   OH255954   4.351   3.590   2.743 -0.0415  0.0097 -0.5324
11488TIP3    H155955   4.405   3.664   2.773 -2.1618  0.6985  1.7872
11488TIP3    H255956   4.350   3.530   2.817 -0.3024 -1.2382 -1.5380
11489TIP3   OH255957   5.246   1.902   2.569  0.1080 -0.5946  0.3462
11489TIP3    H155958   5.258   1.921   2.476 -1.4397 -0.8889  0.0623
11489TIP3    H255959   5.257   1.807   2.576  0.3974 -0.5500  0.4884
11490TIP3   OH255960   1.741   3.824   2.163 -0.5317 -0.1230 -0.0340
11490TIP3    H155961   1.809   3.863   2.109 -0.0870  0.2961  0.8183
11490TIP3    H255962   1.771   3.735   2.180  0.1705  0.2929  0.9519
11491TIP3   OH255963   3.404   4.787  15.558 -0.1805  0.1563 -0.6607
11491TIP3    H155964   3.445   4.732  15.626  0.0316  1.1034 -0.0152
11491TIP3    H255965   3.461   4.863  15.551 -1.4406  1.1597 -0.2510
11492TIP3   OH255966   2.599   2.674   3.971 -0.2659 -0.0849  0.1617
11492TIP3    H155967   2.547   2.715   4.040  0.0747  1.8230 -0.6983
11492TIP3    H255968   2.651   2.608   4.017 -0.8119  0.4574  1.5806
11493TIP3   OH255969   3.913   1.904   2.544 -0.0933 -0.3685 -0.0625
11493TIP3    H155970   3.950   1.931   2.460  1.9683 -0.1096  0.8743
11493TIP3    H255971   3.958   1.960   2.608 -2.5071  0.2716  1.1152
11494TIP3   OH255972   3.728   3.304  14.963  0.2438  0.2656  0.2222
11494TIP3    H155973   3.758   3.335  14.878  0.8120 -0.2633  0.2280
11494TIP3    H255974   3.800   3.324  15.023  0.2310 -0.2214  0.3978
11495TIP3   OH255975   4.768   2.077   1.834  0.2988  0.6182 -0.6206
11495TIP3    H155976   4.835   2.127   1.881  0.8507  0.5102 -1.2808
11495TIP3    H255977   4.786   2.095   1.741 -1.1965  1.3830 -0.7805
11496TIP3   OH255978   1.074   2.828   0.437 -0.5504  0.1317  0.3983
11496TIP3    H155979   1.024   2.909   0.429 -1.0146  0.0178  1.9843
11496TIP3    H255980   1.129   2.826   0.359 -0.4791  2.0102  0.3768
11497TIP3   OH255981   0.869   1.097   1.658 -0.1962  0.1659 -0.3124
11497TIP3    H155982   0.907   1.068   1.575  0.0587 -1.7139  0.4379
11497TIP3    H255983   0.935   1.155   1.696  0.1581  0.1623 -0.9230
11498TIP3   OH255984   2.719   1.704   1.350  0.0789 -0.1425 -0.1250
11498TIP3    H155985   2.721   1.729   1.442 -1.8211 -0.0014 -0.1033
11498TIP3    H255986   2.810   1.713   1.320  0.3450  1.8033  1.2044
11499TIP3   OH255987   5.568   1.983   0.323  0.4339  0.5971 -0.3955
11499TIP3    H155988   5.515   1.952   0.250  0.1279  0.1694  0.0078
11499TIP3    H255989   5.527   2.065   0.350 -0.6475 -0.2355  0.5705
11500TIP3   OH255990   2.778   2.522   2.117  0.2430 -0.6767  0.2403
11500TIP3    H155991   2.724   2.453   2.156 -0.2106 -0.4893 -0.0574
11500TIP3    H255992   2.763   2.598   2.173  2.5083 -1.4136  1.9439
11501TIP3   OH255993   5.113   5.417   0.251 -0.4199  0.5032 -0.1838
11501TIP3    H155994   5.035   5.472   0.243 -0.8872 -0.0170  0.6739
11501TIP3    H255995   5.163   5.457   0.321 -0.1471  0.5618 -0.4129
11502TIP3   OH255996   3.027   3.938   2.316  0.2709 -0.5290  0.4396
11502TIP3    H155997   2.962   3.989   2.267 -0.3219 -0.5401  1.2134
11502TIP3    H255998   2.983   3.854   2.332  1.5252 -1.5990 -1.5199
11503TIP3   OH255999   3.831   2.813  15.752 -0.1193 -0.4595 -0.1623
11503TIP3    H156000   3.912   2.772  15.721  1.5432  2.6760 -0.2657
11503TIP3    H256001   3.844   2.823  15.846  0.1363  1.0068 -0.3315
11504TIP3   OH256002   2.476   4.064   0.348  0.5698 -0.1446  0.3715
11504TIP3    H156003   2.471   4.065   0.252 -0.5953 -0.4355  0.4199
11504TIP3    H256004   2.493   4.155   0.372  1.6777 -0.2086 -0.1471
11505TIP3   OH256005   4.288   4.235   0.274  0.3142 -0.2177 -0.2822
11505TIP3    H156006   4.255   4.189   0.197  0.2597 -1.3083  0.3789
11505TIP3    H256007   4.222   4.220   0.342  0.5080  0.4664  0.0642
11506TIP3   OH256008   2.475   5.466   2.011  0.0933  0.2783  0.0584
11506TIP3    H156009   2.529   5.403   2.060  0.9753  2.4592  1.9996
11506TIP3    H256010   2.396   5.476   2.065 -0.4279  0.2277 -0.6806
11507TIP3   OH256011   2.520   0.794  15.861  0.1756 -0.6592 -0.0864
11507TIP3    H156012   2.572   0.768  15.784  1.2152  1.6546 -0.1927
11507TIP3    H256013   2.580   0.848  15.913 -2.2732  2.4469 -0.4253
11508TIP3   OH256014   2.462   2.122   1.915  0.0952  0.3570  0.4855
11508TIP3    H156015   2.457   2.075   1.998 -3.8445  0.6578  0.4934
11508TIP3    H256016   2.410   2.201   1.929 -0.3038  0.6014 -2.1677
11509TIP3   OH256017   3.319   3.036   2.191 -0.1713  0.5558 -0.0084
11509TIP3    H156018   3.235   3.042   2.237  1.1896  1.7483  2.4174
11509TIP3    H256019   3.361   3.121   2.204  1.3158  0.0790 -1.4150
11510TIP3   OH256020   4.578   1.128  15.880 -0.0725 -0.6123 -0.1161
11510TIP3    H156021   4.519   1.100  15.811  0.8371  1.9206 -1.9928
11510TIP3    H256022   4.664   1.095  15.853 -0.1072 -1.8344  1.1638
11511TIP3   OH256023   3.011   4.627  15.081  0.1606 -0.1403  0.0453
11511TIP3    H156024   2.954   4.663  15.149  0.3728  0.8115 -0.2640
11511TIP3    H256025   2.981   4.537  15.068 -0.7341  0.0951  0.4655
11512TIP3   OH256026   4.040   2.442  15.146  0.1289 -0.0649 -1.0698
11512TIP3    H156027   3.956   2.396  15.141  0.3392 -0.5759  0.1206
11512TIP3    H256028   4.101   2.378  15.182  0.3762  1.1740  0.7943
11513TIP3   OH256029   3.759   2.764   1.877 -0.2180 -0.5223 -0.1380
11513TIP3    H156030   3.700   2.792   1.806 -1.1904 -1.9090  0.1040
11513TIP3    H256031   3.837   2.819   1.865 -1.2839  0.8974 -0.8558
11514TIP3   OH256032   3.668   3.182  13.799  0.0106  0.0570 -0.2752
11514TIP3    H156033   3.654   3.144  13.885  2.1924 -2.5788 -1.0092
11514TIP3    H256034   3.738   3.246  13.811  2.1125 -2.1567 -0.5255
11515TIP3   OH256035   4.285   3.304   4.247 -0.3889  0.3256  0.1291
11515TIP3    H156036   4.249   3.243   4.183  0.3693  0.3934 -0.3587
11515TIP3    H256037   4.297   3.251   4.326 -2.4713  0.5206  0.6218
11516TIP3   OH256038   3.427   2.708   3.755  0.6007 -0.1623 -0.4587
11516TIP3    H156039   3.448   2.616   3.772  0.0924 -0.1029  0.5493
11516TIP3    H256040   3.487   2.734   3.685  2.1713 -0.6813  0.6534
11517TIP3   OH256041   4.072   4.130   0.768  0.1509  0.0327  0.1332
11517TIP3    H156042   4.130   4.171   0.832  1.1431 -0.9966 -0.0888
11517TIP3    H256043   4.083   4.183   0.689  0.6629 -0.0623  0.1412
11518TIP3   OH256044   3.699   1.829  14.662  0.0131  0.7064  0.1108
11518TIP3    H156045   3.650   1.877  14.729 -1.0635 -1.5547  0.9925
11518TIP3    H256046   3.633   1.806  14.597  0.7959  1.6769 -1.0389
11519TIP3   OH256047   4.312   2.657   1.682 -0.1628  0.2995  0.4265
11519TIP3    H156048   4.248   2.644   1.612 -0.1697 -0.5648  0.5816
11519TIP3    H256049   4.292   2.588   1.746  1.7366 -0.8133 -0.1293
11520TIP3   OH256050   3.964   4.069   0.292  0.6937 -0.4641  0.1975
11520TIP3    H156051   4.036   4.029   0.243  1.3916  1.1695 -0.1395
11520TIP3    H256052   3.926   4.133   0.232 -0.2345 -0.4201  0.8155
11521TIP3   OH256053   2.743   1.263  13.925  0.5904  0.2604  0.3361
11521TIP3    H156054   2.748   1.316  13.846 -2.6794  1.2973  0.7440
11521TIP3    H256055   2.719   1.176  13.894  0.6805  0.3274  0.0790
11522TIP3   OH256056   1.308   4.967  15.741  0.1898 -0.1601 -0.5422
11522TIP3    H156057   1.278   4.884  15.777  0.4580  0.6924  1.8031
11522TIP3    H256058   1.397   4.977  15.775 -0.5412  1.9877  0.8963
11523TIP3   OH256059   0.959   0.446   1.240 -0.2823  1.4442 -0.1652
11523TIP3    H156060   0.877   0.471   1.197 -1.2184 -0.8382  0.1884
11523TIP3    H256061   1.013   0.412   1.168 -0.1918  1.6675 -0.2004
11524TIP3   OH256062   3.252   3.535  15.574  0.4258  0.2283 -0.1685
11524TIP3    H156063   3.197   3.459  15.554  0.7212  0.2775 -1.2393
11524TIP3    H256064   3.288   3.518  15.660  0.4719 -0.8409 -0.3979
11525TIP3   OH256065   3.543   3.273   0.572 -0.0231  0.4167  0.4633
11525TIP3    H156066   3.475   3.339   0.588  1.7083  2.2481  0.3823
11525TIP3    H256067   3.496   3.189   0.574 -2.3067  1.6594  0.2502
11526TIP3   OH256068   2.828   4.726  15.260  0.1293 -0.0161 -0.6354
11526TIP3    H156069   2.841   4.812  15.299 -1.3178 -0.1590  0.2033
11526TIP3    H256070   2.761   4.740  15.192  0.3161 -0.3744 -0.8963
11527TIP3   OH256071   1.877   1.802   0.335 -0.0542 -0.4141 -0.1868
11527TIP3    H156072   1.872   1.845   0.249 -0.3829  0.3060  0.1902
11527TIP3    H256073   1.792   1.758   0.345  0.9770 -2.8061 -1.4167
11528TIP3   OH256074   1.543   2.265  15.701 -0.2290  0.1520 -0.0745
11528TIP3    H156075   1.582   2.214  15.772 -1.4311  1.7852  1.8140
11528TIP3    H256076   1.582   2.352  15.711 -0.3139  0.3550 -1.5089
11529TIP3   OH256077   1.974   3.111   2.353 -0.1451 -0.0933  0.0818
11529TIP3    H156078   2.008   3.036   2.401  1.7551 -0.4507 -1.7728
11529TIP3    H256079   1.885   3.123   2.387  1.3800  0.1621  4.2381
11530TIP3   OH256080   4.311   0.412   2.190 -0.2785 -0.0720 -0.6673
11530TIP3    H156081   4.345   0.387   2.104 -2.0045 -1.2260 -1.0312
11530TIP3    H256082   4.245   0.345   2.211 -2.3731  2.1193 -0.0210
11531TIP3   OH256083   0.561   1.592   2.367 -0.4023  0.0776  0.0337
11531TIP3    H156084   0.568   1.687   2.366 -0.7834  0.0976 -1.4684
11531TIP3    H256085   0.467   1.574   2.364 -0.2964 -0.3483 -0.9730
11532TIP3   OH256086   2.325   3.208   1.252 -0.0117  0.0503  0.4582
11532TIP3    H156087   2.317   3.285   1.307  1.1942  1.3280 -1.1024
11532TIP3    H256088   2.405   3.223   1.201  0.2436 -2.2207  0.1290
11533TIP3   OH256089   1.133   4.056  15.814  0.1360 -0.4175 -0.0522
11533TIP3    H156090   1.122   4.145  15.782  2.6424 -0.2048 -0.3658
11533TIP3    H256091   1.124   4.062  15.909  0.3184  0.1631 -0.0750
11534TIP3   OH256092   1.759   2.509   1.908 -0.1324  0.0948 -0.0908
11534TIP3    H156093   1.683   2.455   1.934 -0.0687  0.5060  0.9990
11534TIP3    H256094   1.724   2.569   1.843 -0.5012 -0.4212 -0.3765
11535TIP3   OH256095   0.808   3.779   1.425 -0.3284  0.2980 -0.0173
11535TIP3    H156096   0.810   3.824   1.510 -1.9280 -0.8766  0.6704
11535TIP3    H256097   0.817   3.686   1.447 -0.0119  0.0446 -1.2038
11536TIP3   OH256098   3.224   2.067  15.687 -0.3463 -0.5520  0.0291
11536TIP3    H156099   3.226   2.146  15.633 -2.9944 -1.0979 -0.9619
11536TIP3    H256100   3.161   2.087  15.757  2.0863 -0.3179  2.2528
11537TIP3   OH256101   5.382   2.794   3.495  0.2169  0.0740  0.4318
11537TIP3    H156102   5.383   2.699   3.488  2.1063  0.1823 -1.2225
11537TIP3    H256103   5.290   2.816   3.509 -0.3427 -1.9389  0.0760
11538TIP3   OH256104   5.469   1.792   2.308  0.3547 -0.5510  0.0705
11538TIP3    H156105   5.538   1.817   2.246 -1.0638  2.2279 -0.4327
11538TIP3    H256106   5.389   1.791   2.257 -0.5231 -0.3046  1.4108
11539TIP3   OH256107   1.441   2.801   2.810 -0.3387  0.0014  0.3481
11539TIP3    H156108   1.385   2.766   2.879  2.0357 -1.2822  1.6909
11539TIP3    H256109   1.458   2.891   2.837 -0.6142 -0.0347  0.6530
11540TIP3   OH256110   0.711   3.057   3.597  0.1583  0.4549  0.0480
11540TIP3    H156111   0.709   3.080   3.689  2.1312  0.4141  0.1362
11540TIP3    H256112   0.630   3.092   3.561 -0.8277  0.1143  1.8689
11541TIP3   OH256113   0.892   6.019   3.224 -0.7639  0.4988 -0.6263
11541TIP3    H156114   0.874   6.002   3.316  0.1267  0.9257 -0.3658
11541TIP3    H256115   0.976   6.065   3.224 -0.6909  0.3852 -1.6578
11542TIP3   OH256116   4.024   2.300   2.189  0.4786 -0.1243  0.2733
11542TIP3    H156117   3.959   2.263   2.129  1.0642  1.0981 -1.1519
11542TIP3    H256118   4.035   2.391   2.160  1.7035  0.1203  1.4422
11543TIP3   OH256119   3.110   1.078   1.288  0.0890 -0.4784 -0.2675
11543TIP3    H156120   3.151   1.014   1.346  0.6032  0.8885  0.9217
11543TIP3    H256121   3.122   1.043   1.200  1.4946 -1.3750  0.2685
11544TIP3   OH256122   4.711   3.108   4.347  0.0584  0.4483  0.1487
11544TIP3    H156123   4.705   3.053   4.268  0.5546  1.7570 -0.8218
11544TIP3    H256124   4.653   3.066   4.410  0.2107 -1.0316 -0.6736
11545TIP3   OH256125   3.155   1.284   1.075 -0.1765 -0.2174 -0.3307
11545TIP3    H156126   3.208   1.230   1.016 -0.2565  0.1443 -0.7309
11545TIP3    H256127   3.119   1.353   1.020 -1.3331 -0.6419 -0.1372
11546TIP3   OH256128   2.923   1.484  15.993 -0.1191  0.5936  0.2429
11546TIP3    H156129   2.874   1.436  16.060 -1.0713  4.0757  2.1380
11546TIP3    H256130   3.014   1.457  16.007 -0.6776 -0.9322  1.0369
11547TIP3   OH256131   1.625   1.705   0.424 -0.3421 -0.1808  0.1021
11547TIP3    H156132   1.548   1.747   0.386 -0.4038 -2.2283 -2.1135
11547TIP3    H256133   1.599   1.683   0.514 -2.6690 -1.6354 -0.8884
11548TIP3   OH256134   0.715   6.942   3.404  0.4448  0.0810  0.2640
11548TIP3    H156135   0.698   6.938   3.499  0.2140 -0.4214  0.2043
11548TIP3    H256136   0.736   6.852   3.380 -0.7215 -0.0298 -0.3865
11549TIP3   OH256137   1.902   2.271   1.564  0.9965  0.5256 -0.8602
11549TIP3    H156138   1.918   2.200   1.626  0.8458 -0.0215 -1.4426
11549TIP3    H256139   1.810   2.294   1.578  0.4852 -0.7238 -2.0208
11550TIP3   OH256140   4.486   3.196  15.834  0.2999  0.4859  0.2560
11550TIP3    H156141   4.402   3.223  15.798 -0.6885  1.2324  2.9888
11550TIP3    H256142   4.510   3.267  15.894  0.5551 -1.9201  3.0634
11551TIP3   OH256143   1.337   1.943  15.996  0.5087 -0.0518 -0.5211
11551TIP3    H156144   1.409   1.899  16.040 -0.3521  0.7421  1.7961
11551TIP3    H256145   1.267   1.877  15.993  0.2028  0.2227  0.3223
11552TIP3   OH256146   3.164   5.205  14.661 -0.8327  0.2715  0.6696
11552TIP3    H156147   3.104   5.239  14.595 -0.0948 -0.0094 -0.1739
11552TIP3    H256148   3.111   5.148  14.716 -1.3932  0.2594  0.1139
11553TIP3   OH256149   0.799   4.740   2.747  0.1505  0.1192  0.2611
11553TIP3    H156150   0.713   4.782   2.733  0.4991  1.3534  1.6570
11553TIP3    H256151   0.790   4.696   2.831  1.1109  0.8357  0.7400
11554TIP3   OH256152   2.158   2.545   3.026 -0.1068 -0.0230 -0.1703
11554TIP3    H156153   2.096   2.614   3.001 -1.7598 -2.0761 -1.9274
11554TIP3    H256154   2.111   2.463   3.010  3.3954 -1.7117 -2.5086
11555TIP3   OH256155   3.324   3.683  15.858 -0.0956  0.6338  0.3868
11555TIP3    H156156   3.387   3.659  15.927  0.6093  0.9663 -0.1388
11555TIP3    H256157   3.371   3.746  15.804 -0.1322 -0.6999 -1.2482
11556TIP3   OH256158   1.868   1.133   0.045 -0.1041 -0.3929 -1.0126
11556TIP3    H156159   1.925   1.189   0.098  0.7677 -1.1604 -1.1267
11556TIP3    H256160   1.821   1.194  -0.012 -0.2711  0.3465 -0.0897
11557TIP3   OH256161   3.759   4.584  15.892 -0.6384  0.0170  0.0466
11557TIP3    H156162   3.696   4.525  15.934  0.9339 -2.1271 -0.5451
11557TIP3    H256163   3.816   4.614  15.963 -0.2709 -0.6874  0.0520
11558TIP3   OH256164   3.771   4.290  14.913 -0.2572  0.0210 -0.6618
11558TIP3    H156165   3.800   4.235  14.841 -0.2116 -0.7699 -0.0451
11558TIP3    H256166   3.804   4.246  14.992 -0.6637  0.6494 -0.1327
11559TIP3   OH256167   2.860   3.785   3.503 -0.1185 -0.2015 -0.5093
11559TIP3    H156168   2.884   3.859   3.558  0.2206 -0.9665  0.3879
11559TIP3    H256169   2.829   3.824   3.422 -0.3290  0.9326  0.1109
11560TIP3   OH256170   4.309   2.256  15.887 -0.1793  0.3956  0.0009
11560TIP3    H156171   4.271   2.190  15.945  0.9043 -0.4462 -0.2200
11560TIP3    H256172   4.283   2.340  15.925  0.9419 -0.1327  2.0159
11561TIP3   OH256173   4.988   1.280   0.701  0.3675 -0.9996  0.4452
11561TIP3    H156174   4.917   1.310   0.643  0.3687 -2.0873 -0.1224
11561TIP3    H256175   4.952   1.293   0.790  0.3323  0.5781  0.2262
11562TIP3   OH256176   2.734   2.306   0.588 -0.4021  0.4180 -0.2829
11562TIP3    H156177   2.742   2.388   0.541  0.2835 -0.3655 -1.5669
11562TIP3    H256178   2.640   2.296   0.604 -0.6565  0.6501 -1.5759
11563TIP3   OH256179   2.349   1.665   1.535 -1.0233 -0.4355  0.1824
11563TIP3    H156180   2.431   1.620   1.556 -0.9840  0.4601  2.0302
11563TIP3    H256181   2.374   1.757   1.524 -1.6637 -0.2853 -0.0563
11564TIP3   OH256182   2.740   2.265   1.956  0.1473 -0.0808  0.4067
11564TIP3    H156183   2.790   2.243   2.035 -0.5595 -1.2865  0.5314
11564TIP3    H256184   2.652   2.286   1.988 -0.2444 -0.9393 -0.0872
11565TIP3   OH256185   4.337   2.885   2.204 -0.2424 -0.0983  0.4163
11565TIP3    H156186   4.412   2.902   2.147  0.1090  3.4671  1.7826
11565TIP3    H256187   4.271   2.848   2.146  0.6978  1.8337 -2.0029
11566TIP3   OH256188   6.104   3.944  14.226  0.2003 -0.1759 -0.0797
11566TIP3    H156189   6.041   3.911  14.162 -0.3484  2.1827 -0.8408
11566TIP3    H256190   6.051   3.983  14.295  0.7137  2.7612 -1.2299
11567TIP3   OH256191   1.325   1.492  15.813 -0.4866 -0.0260  0.6849
11567TIP3    H156192   1.268   1.569  15.820 -0.1566  0.1962  0.9442
11567TIP3    H256193   1.358   1.479  15.902 -0.4684 -0.4115  0.6206
11568TIP3   OH256194   3.637   0.093   0.446 -0.0936 -0.3872  0.1787
11568TIP3    H156195   3.713   0.146   0.470 -0.6220 -0.1912  1.4693
11568TIP3    H256196   3.587   0.149   0.387  0.8251 -0.5730 -0.7961
11569TIP3   OH256197   3.402   1.899   0.841  0.3858  0.3010 -0.3225
11569TIP3    H156198   3.465   1.950   0.790  1.5737 -0.9563 -0.1196
11569TIP3    H256199   3.425   1.808   0.825 -0.6667 -0.1538  0.6673
11570TIP3   OH256200   0.064   1.695   2.334 -0.6611 -0.0275  0.3187
11570TIP3    H156201   0.020   1.675   2.416 -1.7279  1.1412  0.0360
11570TIP3    H256202   0.001   1.670   2.266  0.1825 -0.9135 -0.1566
11571TIP3   OH256203   4.159   3.065   1.932  0.3676  0.6795 -0.0200
11571TIP3    H156204   4.234   3.123   1.947  0.2272  0.6036  1.0010
11571TIP3    H256205   4.192   2.977   1.951  0.5055  0.4345 -1.3185
11572TIP3   OH256206   2.760   1.994  15.692  0.3972  0.4514  0.2308
11572TIP3    H156207   2.841   1.967  15.648  0.7025  0.8215  0.5559
11572TIP3    H256208   2.743   2.082  15.657  0.6526  0.7554  0.8590
11573TIP3   OH256209   2.752   2.170   2.268 -0.7733 -0.4184 -0.5604
11573TIP3    H156210   2.842   2.156   2.296 -0.9696  0.2482  0.4516
11573TIP3    H256211   2.701   2.164   2.349 -1.4687  0.6466 -0.9124
11574TIP3   OH256212   2.165   4.244   0.064 -0.1906  0.3100  0.0929
11574TIP3    H156213   2.105   4.318   0.073  0.0171  0.2259  2.5380
11574TIP3    H256214   2.122   4.186   0.002 -0.2926  2.5246 -1.9796
11575TIP3   OH256215   5.117   2.738   1.448 -0.0006  0.4266  0.2704
11575TIP3    H156216   5.175   2.788   1.505 -0.6518 -0.5583  1.8312
11575TIP3    H256217   5.034   2.785   1.452 -0.3219 -0.2032  0.9075
11576TIP3   OH256218   3.679   3.188   0.871  0.1199 -0.4199 -0.0351
11576TIP3    H156219   3.748   3.203   0.807  1.3159  0.3509  1.4201
11576TIP3    H256220   3.707   3.236   0.949 -2.2364  0.2132  0.4619
11577TIP3   OH256221   2.100   0.640  15.825  0.6570  0.0865 -0.0719
11577TIP3    H156222   2.178   0.690  15.848 -1.4347  1.6158  4.1959
11577TIP3    H256223   2.122   0.550  15.848  1.7815  0.2252 -0.5776
11578TIP3   OH256224   2.110   3.852   1.173 -0.5575 -0.1986 -0.2207
11578TIP3    H156225   2.071   3.766   1.153  0.0811 -0.3923 -0.6606
11578TIP3    H256226   2.059   3.885   1.246 -1.4182 -0.5445 -0.6552
11579TIP3   OH256227   6.526   0.445   1.187 -0.3908  0.0931  0.0377
11579TIP3    H156228   6.548   0.382   1.118  0.4495  1.8365 -1.3333
11579TIP3    H256229   6.606   0.498   1.197 -0.1791 -0.6911  3.0003
11580TIP3   OH256230   0.948   3.895   2.253  0.3564  0.1149  0.2287
11580TIP3    H156231   0.949   3.849   2.338  0.2378 -0.2111  0.0549
11580TIP3    H256232   0.932   3.986   2.275 -3.0328 -0.4558  0.3237
11581TIP3   OH256233   2.237   2.677   2.584 -0.1872 -0.0287 -0.6656
11581TIP3    H156234   2.219   2.742   2.516  0.2069 -0.3623 -1.0969
11581TIP3    H256235   2.297   2.722   2.644  2.0255 -0.7460 -2.2470
11582TIP3   OH256236   3.455   2.677   0.529 -0.4173 -0.0771  0.4767
11582TIP3    H156237   3.379   2.679   0.587 -0.7203  0.3127  0.0779
11582TIP3    H256238   3.484   2.586   0.531 -1.0572 -0.2903  0.4389
11583TIP3   OH256239   4.119   4.294   0.561 -0.4414 -0.1555 -0.2556
11583TIP3    H156240   4.046   4.355   0.555 -0.3756 -0.1014 -0.4914
11583TIP3    H256241   4.196   4.347   0.539 -0.4580 -0.4817 -1.1110
11584TIP3   OH256242   2.302   0.154   2.079  0.0088  0.3070  0.5358
11584TIP3    H156243   2.392   0.122   2.081  0.1747  0.7568  0.3475
11584TIP3    H256244   2.300   0.224   2.143 -0.3284 -0.0147  0.8771
11585TIP3   OH256245   1.598   5.286  14.789 -0.2910  0.0015  0.1623
11585TIP3    H156246   1.543   5.218  14.750  0.5178 -1.2489  1.1575
11585TIP3    H256247   1.664   5.304  14.722 -1.8856  1.5267 -1.0467
11586TIP3   OH256248   7.163   4.328   0.124 -0.6438  0.4197 -0.3195
11586TIP3    H156249   7.216   4.323   0.044  0.8570 -1.3882  0.7481
11586TIP3    H256250   7.087   4.273   0.106  0.7033 -1.6562  0.2073
11587TIP3   OH256251   5.246   6.457   0.442  0.9910 -0.2175 -0.1968
11587TIP3    H156252   5.241   6.374   0.488 -0.7687 -0.8534 -1.4736
11587TIP3    H256253   5.321   6.448   0.383  1.7450 -0.3151  0.7827
11588TIP3   OH256254   3.913   4.377   1.520 -0.7513 -0.6528  0.3601
11588TIP3    H156255   3.871   4.463   1.522  0.6813  0.0729 -0.4596
11588TIP3    H256256   3.879   4.335   1.441 -0.4502 -0.3281  0.0572
11589TIP3   OH256257   2.633   2.198  15.082  0.2938 -0.0450 -0.1460
11589TIP3    H156258   2.643   2.170  14.991  1.6927  1.9562 -0.6374
11589TIP3    H256259   2.545   2.234  15.087 -0.4178 -1.7121 -0.2554
11590TIP3   OH256260   0.707   3.720  15.359  0.7165  0.5776 -0.6035
11590TIP3    H156261   0.676   3.645  15.309  0.9800  0.8800 -1.2198
11590TIP3    H256262   0.691   3.696  15.451 -1.1109  0.6252 -0.8928
11591TIP3   OH256263   3.783   4.879   0.194  0.0394 -0.0386 -0.0855
11591TIP3    H156264   3.851   4.818   0.167  0.4197  0.7731 -0.9608
11591TIP3    H256265   3.819   4.922   0.272  0.2494 -0.0797 -0.1604
11592TIP3   OH256266   1.412   4.150   0.695  0.0691 -0.2957 -0.0395
11592TIP3    H156267   1.469   4.194   0.632 -0.0682  0.1861  0.1689
11592TIP3    H256268   1.327   4.194   0.686 -0.0657 -0.5067  0.1803
11593TIP3   OH256269   3.646   1.420   0.149 -0.7600 -0.0804 -0.1164
11593TIP3    H156270   3.586   1.436   0.076 -1.8985  0.4517  0.9085
11593TIP3    H256271   3.678   1.506   0.174  0.8379 -0.4083 -0.9680
11594TIP3   OH256272   2.600   3.974   1.714 -0.3143  0.3910  0.3807
11594TIP3    H156273   2.593   3.894   1.661  1.0705 -0.0625  0.8429
11594TIP3    H256274   2.630   3.943   1.799 -1.0926  1.2723  0.9857
11595TIP3   OH256275   4.557   2.145   0.912 -0.7136  0.9250 -0.0416
11595TIP3    H156276   4.534   2.053   0.900 -1.6647  1.1518  0.0044
11595TIP3    H256277   4.555   2.158   1.007 -2.0904  1.3623 -0.1177
11596TIP3   OH256278   4.352   1.129   1.398  0.0688 -0.2679 -0.1875
11596TIP3    H156279   4.369   1.148   1.305 -0.8884 -2.0788 -0.7615
11596TIP3    H256280   4.390   1.203   1.445  1.9260 -0.0601 -1.9335
11597TIP3   OH256281   1.436   3.256  15.846 -0.4201 -0.2397  0.5458
11597TIP3    H156282   1.353   3.243  15.801 -0.0934  0.0466 -0.1411
11597TIP3    H256283   1.502   3.215  15.790  0.0220  0.3555  0.6220
11598TIP3   OH256284   1.871   0.740  15.401 -0.0447 -0.1018 -0.7702
11598TIP3    H156285   1.870   0.715  15.494 -0.6128  0.3226 -0.6574
11598TIP3    H256286   1.887   0.834  15.402 -0.1730 -0.0771 -1.1010
11599TIP3   OH256287   1.547   2.647   2.247 -0.3031 -0.3534 -0.4747
11599TIP3    H156288   1.477   2.631   2.184 -0.4431 -0.0737 -0.3925
11599TIP3    H256289   1.576   2.560   2.274 -1.7378 -0.4727  0.7408
11600TIP3   OH256290   2.808   2.457   1.569  0.1052 -0.0997 -0.2987
11600TIP3    H156291   2.849   2.501   1.644  0.7906  0.4519 -1.0013
11600TIP3    H256292   2.812   2.521   1.498 -1.1985 -0.3579 -0.6116
11601TIP3   OH256293   1.596   2.666   0.123  0.2842  0.1102  0.5996
11601TIP3    H156294   1.677   2.675   0.074  0.5512  0.3417  1.0843
11601TIP3    H256295   1.606   2.725   0.197 -0.2708  0.0370  0.7346
11602TIP3   OH256296   2.267   2.379   0.085  0.0943  0.3778  0.3228
11602TIP3    H156297   2.262   2.357   0.178 -1.1546 -1.5292 -0.1790
11602TIP3    H256298   2.345   2.333   0.053 -1.3894 -1.7906 -0.2865
11603TIP3   OH256299   3.235   2.569  15.794  0.4824 -0.2645  0.0272
11603TIP3    H156300   3.307   2.632  15.791 -0.9389  1.4577  0.5448
11603TIP3    H256301   3.221   2.544  15.703  0.6987  0.6137 -0.2509
11604TIP3   OH256302   2.599   3.745   1.587  0.6849  0.0116 -0.4973
11604TIP3    H156303   2.543   3.685   1.637  1.0582  0.5544  0.5817
11604TIP3    H256304   2.659   3.688   1.540  1.8633 -0.4323  1.4987
11605TIP3   OH256305   4.575   4.451   1.354  0.3935 -0.4942  0.0694
11605TIP3    H156306   4.592   4.358   1.341 -0.9418 -0.6216 -0.9337
11605TIP3    H256307   4.644   4.495   1.305  0.9298 -0.9505  0.4075
11606TIP3   OH256308   1.933   3.351   3.828  0.1716 -0.1740  0.2868
11606TIP3    H156309   1.966   3.438   3.805 -2.0034  0.8266  0.8357
11606TIP3    H256310   1.838   3.363   3.838 -0.0162 -2.3866  1.4260
11607TIP3   OH256311   0.640   7.242   1.994 -0.0155 -0.4714 -0.0814
11607TIP3    H156312   0.695   7.315   2.022 -0.6946 -0.2939  0.7990
11607TIP3    H256313   0.630   7.188   2.072  1.3395 -2.0707 -0.9749
11608TIP3   OH256314   1.664   4.068   0.688  0.1448 -0.1900 -0.0011
11608TIP3    H156315   1.632   3.997   0.633 -1.1024  0.0010  0.4610
11608TIP3    H256316   1.590   4.088   0.746  0.7083  1.0496  0.2927
11609TIP3   OH256317   4.563   2.853   1.419 -0.1098  0.0449 -0.1323
11609TIP3    H156318   4.575   2.852   1.324  0.1671  2.0120 -0.1363
11609TIP3    H256319   4.621   2.922   1.450 -0.4123 -0.3942  1.4385
11610TIP3   OH256320   3.557   2.521  15.799  0.2197 -0.2915  0.0908
11610TIP3    H156321   3.643   2.483  15.819 -0.0375 -0.6522  0.5080
11610TIP3    H256322   3.522   2.466  15.729  1.1017  0.9419 -1.3565
11611TIP3   OH256323   6.344   2.145  14.827  0.4488  0.2809  0.3112
11611TIP3    H156324   6.285   2.157  14.752 -0.5134  0.3791  1.0705
11611TIP3    H256325   6.366   2.234  14.854 -1.0206  0.2904  1.5409
11612TIP3   OH256326   6.011   5.796   2.783  0.9012  0.2716 -0.1297
11612TIP3    H156327   6.101   5.824   2.766  1.0377  0.5514  0.9697
11612TIP3    H256328   5.957   5.854   2.730  1.1929  2.5989  2.0232
11613TIP3   OH256329   4.737   3.261   1.255  0.1541  0.4473  0.3922
11613TIP3    H156330   4.767   3.331   1.198 -2.6935  0.6157 -0.9532
11613TIP3    H256331   4.727   3.185   1.197 -0.9411  0.1038  1.0216
11614TIP3   OH256332   2.038   4.912   2.177  0.0288  0.4186 -0.3340
11614TIP3    H156333   2.035   4.853   2.253 -0.2739 -1.3634 -1.7042
11614TIP3    H256334   2.031   4.999   2.215 -2.0694 -0.5229  1.5820
11615TIP3   OH256335   3.625   1.848  15.867  0.4202  0.6324  0.1853
11615TIP3    H156336   3.644   1.899  15.945  0.6261 -0.4160  0.8288
11615TIP3    H256337   3.529   1.843  15.864  0.4142  0.6041  0.4204
11616TIP3   OH256338   3.115   0.073   1.469  0.3300 -0.4051 -0.1790
11616TIP3    H156339   3.146  -0.002   1.419  1.2541 -0.6610  0.7387
11616TIP3    H256340   3.168   0.071   1.549  0.3358  1.1962 -0.1243
11617TIP3   OH256341   4.834   2.990  15.978  0.2322 -0.1657  0.3096
11617TIP3    H156342   4.817   3.042  15.900  1.4116  1.7567  1.2810
11617TIP3    H256343   4.778   2.913  15.969  0.2117  0.1068 -2.3233
11618TIP3   OH256344   5.485   2.820  15.134  0.5951  0.6441  0.2578
11618TIP3    H156345   5.506   2.881  15.064 -0.8305  1.1851  0.2974
11618TIP3    H256346   5.450   2.875  15.204  2.5168  0.1890  1.6386
11619TIP3   OH256347   4.350   4.431   1.812 -0.2908  0.2042  0.4318
11619TIP3    H156348   4.416   4.496   1.788 -0.0166 -0.4453 -0.6276
11619TIP3    H256349   4.276   4.450   1.754  0.1294 -0.9772 -0.5191
11620TIP3   OH256350   6.018   4.378   1.071  0.3147  0.5352  0.3540
11620TIP3    H156351   5.998   4.337   1.155  0.3799  0.5128  0.3589
11620TIP3    H256352   5.965   4.330   1.007  0.4266  0.4122  0.3536
11621TIP3   OH256353   5.843   2.617  15.396 -0.5466 -0.0809  0.3155
11621TIP3    H156354   5.758   2.621  15.353 -1.2531  0.1020  1.6828
11621TIP3    H256355   5.885   2.700  15.374 -0.7225 -0.1641 -0.3450
11622TIP3   OH256356   2.859   4.325   1.511  0.3181  0.0878 -0.4646
11622TIP3    H156357   2.910   4.307   1.432 -0.4601  0.0545 -0.9650
11622TIP3    H256358   2.912   4.388   1.560  1.2872 -0.6876 -0.5131
11623TIP3   OH256359   5.098   2.135  15.501 -0.3814 -0.0186 -0.7901
11623TIP3    H156360   5.089   2.163  15.593  1.2624 -0.5627 -0.4466
11623TIP3    H256361   5.009   2.113  15.475 -0.6610 -1.4505  1.2114
11624TIP3   OH256362   2.507   3.527   0.744 -0.0021 -0.0499 -0.3741
11624TIP3    H156363   2.434   3.551   0.801  0.3189  0.9506 -0.3782
11624TIP3    H256364   2.488   3.568   0.660 -0.3720 -1.3551 -0.9394
11625TIP3   OH256365   3.727   3.770   2.236  0.2088 -0.3890 -0.0294
11625TIP3    H156366   3.724   3.702   2.303  0.1871 -1.0884 -0.7248
11625TIP3    H256367   3.771   3.844   2.278 -2.0900  0.1281  1.5683
11626TIP3   OH256368   5.062   0.906   1.628  0.3716 -0.5461  0.3569
11626TIP3    H156369   5.071   0.940   1.538 -1.5640  0.1139  0.3915
11626TIP3    H256370   5.074   0.812   1.619 -1.2613 -0.6564 -0.8349
11627TIP3   OH256371   5.897   1.280   2.752 -0.0509  0.8177  0.3587
11627TIP3    H156372   5.945   1.297   2.671 -3.3686  1.6442 -1.5149
11627TIP3    H256373   5.856   1.195   2.739 -1.2343  1.2998  0.8554
11628TIP3   OH256374   7.327   3.363  14.781 -0.3197 -0.0167  0.3894
11628TIP3    H156375   7.323   3.355  14.876  0.5688 -0.8323  0.3690
11628TIP3    H256376   7.384   3.438  14.766 -0.0753 -0.1805  0.4964
11629TIP3   OH256377   4.077   1.469   1.521  0.1966 -0.5675  0.6020
11629TIP3    H156378   4.054   1.401   1.458 -0.0158 -0.1773  0.2522
11629TIP3    H256379   4.117   1.422   1.594 -1.3510 -1.2420  1.0459
11630TIP3   OH256380   5.294   2.454   2.607  0.1427 -0.2261  0.2979
11630TIP3    H156381   5.347   2.461   2.686 -0.4539 -1.1238  0.7922
11630TIP3    H256382   5.237   2.531   2.609 -1.2465 -1.2593  1.7933
11631TIP3   OH256383   4.497   4.169  15.050 -0.4739 -0.1752 -0.5492
11631TIP3    H156384   4.550   4.109  15.103 -2.0828 -0.5571  0.6407
11631TIP3    H256385   4.539   4.166  14.964  1.3782 -0.5621  0.3168
11632TIP3   OH256386   2.543   3.210   1.045  0.8522 -0.6713 -0.0195
11632TIP3    H156387   2.568   3.181   0.957  1.1547  0.3655 -0.2826
11632TIP3    H256388   2.531   3.305   1.036  0.3172 -0.6501  0.9252
11633TIP3   OH256389   3.015   4.338  15.026  0.0367 -0.2482  0.6055
11633TIP3    H156390   3.026   4.350  14.932  1.4880 -0.0522  0.7843
11633TIP3    H256391   3.062   4.257  15.046 -1.0564 -0.7927  1.0220
11634TIP3   OH256392   4.863   5.609   2.024 -0.4383 -0.3127  0.3014
11634TIP3    H156393   4.925   5.550   1.981  1.0578  0.5300  1.2174
11634TIP3    H256394   4.914   5.647   2.097 -2.7007 -1.2896  2.4637
11635TIP3   OH256395   0.201   2.611   1.431  0.1383  0.1205  0.1830
11635TIP3    H156396   0.124   2.658   1.399 -1.0441 -0.4886  2.0252
11635TIP3    H256397   0.276   2.658   1.394 -1.0635  2.3159  0.4767
11636TIP3   OH256398   4.740   4.415   2.408 -0.1045  0.3471 -0.3758
11636TIP3    H156399   4.809   4.442   2.468 -0.2456  0.3754 -0.2268
11636TIP3    H256400   4.717   4.326   2.436  0.0520  0.2365 -0.5902
11637TIP3   OH256401   2.724   5.309   0.394 -0.1662  0.2121  0.4041
11637TIP3    H156402   2.752   5.369   0.463 -0.1490 -0.6655  1.1553
11637TIP3    H256403   2.707   5.226   0.438 -2.2813  0.2336 -0.3018
11638TIP3   OH256404   5.308   3.013   0.303 -0.7299 -0.1213  0.2601
11638TIP3    H156405   5.360   2.933   0.311 -0.1609  0.2368  0.2053
11638TIP3    H256406   5.259   3.002   0.222  0.1764  0.0585 -0.3127
11639TIP3   OH256407   5.608   4.295   2.650 -0.6606  0.4611  0.0418
11639TIP3    H156408   5.589   4.380   2.688 -0.5450  0.5918 -0.1923
11639TIP3    H256409   5.527   4.245   2.661  0.0354 -0.2181  2.4046
11640TIP3   OH256410   3.419   5.944  13.425  0.8806  0.1619 -0.0633
11640TIP3    H156411   3.503   5.943  13.379  0.7353 -3.9613 -0.4495
11640TIP3    H256412   3.443   5.945  13.518  1.3860 -0.8334 -0.1743
11641TIP3   OH256413   4.023   3.071  15.586 -0.7080  0.2837  0.3115
11641TIP3    H156414   3.954   3.073  15.520 -1.3750  2.4751  1.0376
11641TIP3    H256415   4.028   3.161  15.618 -0.3038 -0.7114  3.1611
11642TIP3   OH256416   5.378   1.661   2.559 -0.1950 -0.2221  0.4345
11642TIP3    H156417   5.354   1.594   2.622 -0.2281  0.2424  0.9232
11642TIP3    H256418   5.340   1.632   2.477 -1.6153  0.0160  0.9846
11643TIP3   OH256419   5.147   2.693   1.899 -0.0536  0.3391  0.1099
11643TIP3    H156420   5.172   2.606   1.867  0.4738  0.5913 -0.1625
11643TIP3    H256421   5.077   2.676   1.963 -0.6787 -0.2069 -0.7165
11644TIP3   OH256422   6.325   1.382   1.269 -0.4499  0.0836  0.3466
11644TIP3    H156423   6.258   1.432   1.315 -0.2649  1.5201 -0.8829
11644TIP3    H256424   6.345   1.309   1.327 -0.9532  1.2719  2.0697
11645TIP3   OH256425   3.203   4.187   1.095 -0.2031 -0.2103 -0.7509
11645TIP3    H156426   3.125   4.192   1.039 -0.2163  0.0385 -0.7121
11645TIP3    H256427   3.270   4.234   1.045 -0.2364  0.0814 -0.5233
11646TIP3   OH256428   4.576   3.402   2.581  0.4261  0.1078  0.5235
11646TIP3    H156429   4.524   3.477   2.611 -1.4606 -1.4484  1.3038
11646TIP3    H256430   4.540   3.382   2.494  0.6530 -0.1560  0.4909
11647TIP3   OH256431   3.882   4.177   2.510 -0.1468 -0.3119  0.0528
11647TIP3    H156432   3.844   4.255   2.469 -2.1465 -1.4464 -0.2704
11647TIP3    H256433   3.968   4.169   2.469 -0.4204  1.0178 -0.8154
11648TIP3   OH256434   4.633   3.712   2.033  0.0937  0.3679 -0.2476
11648TIP3    H156435   4.653   3.636   2.087 -0.0057 -0.9025 -1.9494
11648TIP3    H256436   4.575   3.679   1.965  1.0903  1.6712 -1.7845
11649TIP3   OH256437   3.357   3.136   1.081  0.0899 -0.4871  0.1885
11649TIP3    H156438   3.358   3.120   1.175 -0.3660 -1.3379  0.0497
11649TIP3    H256439   3.434   3.091   1.047  0.0257 -0.5286  0.0967
11650TIP3   OH256440   5.699   6.104  15.460 -0.8179 -0.9976  0.6177
11650TIP3    H156441   5.780   6.066  15.426 -0.2043  1.3240 -0.6343
11650TIP3    H256442   5.667   6.159  15.388 -2.8240 -0.8761  1.5740
11651TIP3   OH256443   3.436   1.706   2.774 -0.1395 -0.5970 -0.6138
11651TIP3    H156444   3.475   1.759   2.844  0.8421  0.0177 -1.6031
11651TIP3    H256445   3.511   1.668   2.728 -0.8170 -2.1223 -0.4771
11652TIP3   OH256446   3.346   2.438   1.360 -0.1846  0.2530 -0.0386
11652TIP3    H156447   3.401   2.444   1.438 -0.9301 -1.4786  0.6384
11652TIP3    H256448   3.257   2.449   1.393 -0.4378  0.4753 -0.7845
11653TIP3   OH256449   4.057   3.148   0.750 -0.4361  0.6743  0.0064
11653TIP3    H156450   4.034   3.232   0.710  4.5662  2.1612 -0.0099
11653TIP3    H256451   4.058   3.165   0.844  0.0739  0.5061  0.0339
11654TIP3   OH256452   5.708   5.188  15.675 -0.3309 -0.0034 -0.1655
11654TIP3    H156453   5.681   5.102  15.645 -1.3974  0.7096 -1.2890
11654TIP3    H256454   5.718   5.240  15.595  1.3423  0.6270  0.4229
11655TIP3   OH256455   4.816   2.675   2.434  0.2204  0.1896  0.0584
11655TIP3    H156456   4.777   2.760   2.452 -0.5647 -0.4417  1.4693
11655TIP3    H256457   4.882   2.664   2.503  1.3833  0.3000 -1.0177
11656TIP3   OH256458   5.323   2.674  15.485  0.2710  0.0165  0.1786
11656TIP3    H156459   5.317   2.584  15.452 -4.7094  0.5133 -0.6345
11656TIP3    H256460   5.258   2.679  15.554 -0.3829  3.3186 -0.6005
11657TIP3   OH256461   5.222   5.183   3.520  0.2488  0.1483  0.0071
11657TIP3    H156462   5.266   5.148   3.443 -0.9974 -1.3285 -0.0709
11657TIP3    H256463   5.237   5.278   3.516  0.2897  0.0782 -1.9977
11658TIP3   OH256464   1.957   3.491  15.362  0.6015  0.2058  0.6426
11658TIP3    H156465   2.002   3.412  15.332 -1.0113 -0.4121 -0.2919
11658TIP3    H256466   2.011   3.563  15.331  0.3894 -0.4930 -1.4692
11659TIP3   OH256467   6.340   5.648   4.537 -0.2834 -1.2267 -0.2016
11659TIP3    H156468   6.361   5.741   4.537 -2.4952 -0.6753  0.8266
11659TIP3    H256469   6.415   5.606   4.580  0.6218  0.1015 -0.4653
11660TIP3   OH256470   5.254   3.997   0.260 -0.1207  0.2603 -0.4845
11660TIP3    H156471   5.321   4.066   0.258 -1.4887  1.6046 -1.5403
11660TIP3    H256472   5.177   4.040   0.296 -0.4366 -1.2791  0.7221
11661TIP3   OH256473   4.535   2.577   0.350 -0.1832  0.4508  0.6932
11661TIP3    H156474   4.566   2.581   0.440  3.8679  0.2795 -0.5940
11661TIP3    H256475   4.513   2.668   0.328  0.0853  0.6939  1.4115
11662TIP3   OH256476   3.565   0.583  13.272  0.0578  0.5236  0.0869
11662TIP3    H156477   3.598   0.494  13.286  3.1701  1.9015  2.2412
11662TIP3    H256478   3.506   0.599  13.346  0.9745  0.8651  0.7599
11663TIP3   OH256479   1.167   3.571  14.425  0.4178  0.3442  0.0434
11663TIP3    H156480   1.175   3.613  14.510  0.0335  2.1255 -0.7682
11663TIP3    H256481   1.081   3.530  14.425 -0.1743  1.5829 -0.0190
11664TIP3   OH256482   5.534   4.244  15.129 -0.0986  0.0737 -0.2622
11664TIP3    H156483   5.463   4.179  15.129 -0.2207  0.1667 -1.9147
11664TIP3    H256484   5.491   4.326  15.107  0.5427  0.0869 -1.5291
11665TIP3   OH256485   5.066   3.242   0.828 -0.1904 -0.4689 -0.6461
11665TIP3    H156486   4.975   3.215   0.830 -0.6620  1.1036 -0.3304
11665TIP3    H256487   5.110   3.175   0.774 -1.3782 -1.5985 -0.2374
11666TIP3   OH256488   6.275   4.433   3.215 -0.0742 -0.3569 -0.7750
11666TIP3    H156489   6.310   4.500   3.157  1.3063  0.0406  0.5085
11666TIP3    H256490   6.180   4.444   3.209  0.0851  0.3565 -2.1448
11667TIP3   OH256491   1.834   0.898   0.456 -0.3372 -0.4221  0.6187
11667TIP3    H156492   1.739   0.903   0.452 -0.4247 -1.9270  0.6165
11667TIP3    H256493   1.862   0.886   0.366  0.0080  2.1809  0.3527
11668TIP3   OH256494   7.276   3.221   1.475  0.1475 -1.2828  0.2420
11668TIP3    H156495   7.359   3.176   1.462  0.2082 -1.1648  0.2140
11668TIP3    H256496   7.247   3.195   1.562  1.6761  0.9683  1.4961
11669TIP3   OH256497   5.956   2.047   1.730 -0.1988 -0.4592  0.7004
11669TIP3    H156498   6.038   2.077   1.691 -0.6450 -1.3357 -0.9667
11669TIP3    H256499   5.932   2.115   1.793  0.3625  1.1760 -0.8197
11670TIP3   OH256500   3.956   1.091  15.443  1.0347 -0.9668 -0.5243
11670TIP3    H156501   4.048   1.073  15.424  1.3894 -1.2379  1.3806
11670TIP3    H256502   3.948   1.080  15.538 -0.8709 -0.5372 -0.6118
11671TIP3   OH256503   5.864   3.573   2.586  0.0431  0.1601  0.4043
11671TIP3    H156504   5.878   3.520   2.508 -2.6493 -0.9825  0.6267
11671TIP3    H256505   5.877   3.664   2.557 -1.2953 -0.2308 -1.4764
11672TIP3   OH256506   4.426   3.382   2.879 -0.1878  0.5256  0.4572
11672TIP3    H156507   4.437   3.404   2.971 -0.3507 -0.6335  0.7692
11672TIP3    H256508   4.364   3.309   2.880  2.2719 -1.6474 -0.3213
11673TIP3   OH256509   5.104   3.751   2.942 -0.2468 -0.2133 -0.1628
11673TIP3    H156510   5.051   3.792   2.874  0.3416 -1.4404 -1.3773
11673TIP3    H256511   5.175   3.707   2.895 -1.2359 -3.2034  0.9881
11674TIP3   OH256512   4.708   2.636  15.393 -0.2132  0.0022  0.1346
11674TIP3    H156513   4.664   2.693  15.331 -0.9725 -1.0662 -0.3322
11674TIP3    H256514   4.638   2.600  15.447  0.3173  0.0065  0.8449
11675TIP3   OH256515   5.901   2.720   0.747  0.0107  0.1722  0.2196
11675TIP3    H156516   5.813   2.707   0.782  0.3707  0.2515  1.1753
11675TIP3    H256517   5.896   2.690   0.656 -0.3172 -2.3780  1.0400
11676TIP3   OH256518   3.968   0.997   2.231  0.4572 -0.7973 -0.2697
11676TIP3    H156519   3.974   0.924   2.169  2.1588 -1.2317  0.3791
11676TIP3    H256520   3.914   0.963   2.302 -1.6015 -0.2592 -1.5417
11677TIP3   OH256521   5.177   2.560   3.166 -0.4796  0.3964 -0.1737
11677TIP3    H156522   5.130   2.536   3.246  0.0178  1.0851  0.3318
11677TIP3    H256523   5.124   2.524   3.095 -1.5808  0.8623  0.4050
11678TIP3   OH256524   5.672   3.671   0.959 -0.3275  0.1042  0.7660
11678TIP3    H156525   5.709   3.596   0.911 -1.5063  0.7695 -1.2806
11678TIP3    H256526   5.618   3.631   1.028 -0.3941 -0.9396  0.1221
11679TIP3   OH256527   3.995   3.839   1.849 -0.3958  0.0926  0.5303
11679TIP3    H156528   4.062   3.828   1.782 -2.0697 -0.7347 -1.0862
11679TIP3    H256529   3.953   3.753   1.855 -1.5082  0.6675  1.2643
11680TIP3   OH256530   3.460   2.606   1.164 -0.0961 -0.4415  0.4516
11680TIP3    H156531   3.553   2.604   1.189  0.1193 -2.8234 -0.4234
11680TIP3    H256532   3.413   2.594   1.247  0.4204 -0.3857  0.7529
11681TIP3   OH256533   4.350   2.578   3.454 -0.7255 -0.2626 -0.4394
11681TIP3    H156534   4.366   2.650   3.393 -1.1427 -1.0236 -1.4693
11681TIP3    H256535   4.437   2.549   3.481 -0.5819  1.5836  1.1307
11682TIP3   OH256536   4.446   2.052   2.108  0.2855  0.0079 -0.0550
11682TIP3    H156537   4.403   2.090   2.185 -0.3396  0.4355 -0.6084
11682TIP3    H256538   4.511   2.117   2.082 -0.0253  0.2084 -0.3391
11683TIP3   OH256539   4.007   0.912   1.694 -0.4990  0.0381 -0.5162
11683TIP3    H156540   3.968   0.959   1.768 -0.6923 -0.1662 -0.4893
11683TIP3    H256541   4.089   0.877   1.729 -1.4963 -1.6639  0.1398
11684TIP3   OH256542   3.584   2.979   4.220 -0.2732  0.5131  0.0129
11684TIP3    H156543   3.586   3.072   4.244  0.9233  0.8942 -1.5262
11684TIP3    H256544   3.576   2.979   4.125 -2.7559 -0.9920  0.1807
11685TIP3   OH256545   3.991   2.791   0.085 -0.1180 -0.3831  0.6992
11685TIP3    H156546   3.940   2.710   0.093 -0.1655 -0.4178  0.1069
11685TIP3    H256547   4.078   2.768   0.116  0.1681 -0.9661 -0.5148
11686TIP3   OH256548   5.186   2.949   2.550 -0.0057  0.0173  0.0105
11686TIP3    H156549   5.245   3.025   2.555 -0.5974  0.5832 -1.4788
11686TIP3    H256550   5.120   2.966   2.618 -0.0929  0.8003 -0.2647
11687TIP3   OH256551   4.502   5.667   2.902  0.6867 -0.0776 -0.1036
11687TIP3    H156552   4.577   5.707   2.946  0.3563  0.9433 -0.4685
11687TIP3    H256553   4.473   5.599   2.963  1.0786  0.4161  0.6481
11688TIP3   OH256554   6.310   3.836   3.271  0.0200 -0.0833  0.5073
11688TIP3    H156555   6.225   3.863   3.305  1.1597  1.3013  2.2972
11688TIP3    H256556   6.290   3.761   3.215 -2.2457 -0.5010  1.8200
11689TIP3   OH256557   4.319   1.967   2.389  0.0411  0.0830 -0.6521
11689TIP3    H156558   4.388   2.029   2.410 -0.8008  0.7562  0.1478
11689TIP3    H256559   4.336   1.892   2.446  0.1510  0.2229 -0.5012
11690TIP3   OH256560   5.793   2.867   1.522 -0.1587  0.5200  0.7656
11690TIP3    H156561   5.719   2.914   1.561 -0.3448 -0.7591  1.9866
11690TIP3    H256562   5.753   2.812   1.455 -0.0103  1.6380 -0.2575
11691TIP3   OH256563   3.570   1.369   2.424 -0.0543  0.0749 -0.2903
11691TIP3    H156564   3.504   1.306   2.395 -0.3713  0.2781 -0.0091
11691TIP3    H256565   3.640   1.361   2.359  0.0510 -0.7909 -0.0881
11692TIP3   OH256566   4.913   3.679   3.478 -0.1485 -0.0675  0.0980
11692TIP3    H156567   4.907   3.594   3.522 -1.3561 -0.2134 -0.3316
11692TIP3    H256568   4.882   3.742   3.543  0.3849  0.0014  0.2863
11693TIP3   OH256569   3.819   2.285   3.005  0.4216  0.2958  0.4656
11693TIP3    H156570   3.895   2.253   2.956 -0.8877 -1.5620 -0.4578
11693TIP3    H256571   3.851   2.360   3.055  3.1703 -1.2466  1.1092
11694TIP3   OH256572   1.320   2.472   2.146 -0.5395  0.1554  0.7916
11694TIP3    H156573   1.256   2.416   2.191 -1.0583 -1.2030 -1.5132
11694TIP3    H256574   1.266   2.539   2.103 -0.3581 -0.4475 -0.3955
11695TIP3   OH256575   6.858   3.590   2.788  0.1760 -0.0848  0.3446
11695TIP3    H156576   6.818   3.524   2.731  2.8404 -0.6647 -0.9616
11695TIP3    H256577   6.877   3.663   2.729 -1.2676  1.2250  1.4615
11696TIP3   OH256578   5.868   2.196   1.950 -0.0161  0.2705  0.1625
11696TIP3    H156579   5.913   2.262   2.002 -0.3894  0.4078  0.3125
11696TIP3    H256580   5.802   2.244   1.900 -0.1299  0.0448  0.0912
11697TIP3   OH256581   5.170   2.328   2.077  0.2972  0.0741 -0.4870
11697TIP3    H156582   5.154   2.354   2.168  0.5075 -2.0561  0.1861
11697TIP3    H256583   5.096   2.366   2.028 -1.0789 -0.6951  0.9342
11698TIP3   OH256584   3.061   5.368   2.737  0.5941  0.0064  0.1728
11698TIP3    H156585   3.015   5.452   2.732  1.8488  0.6997  0.2045
11698TIP3    H256586   3.143   5.382   2.691  0.6921 -1.2989 -0.0744
11699TIP3   OH256587   4.867   1.367   1.267  0.2415  0.4864 -0.5403
11699TIP3    H156588   4.772   1.357   1.271  0.3168 -1.3229 -2.3037
11699TIP3    H256589   4.900   1.320   1.344 -0.3257  2.0121  0.6533
11700TIP3   OH256590   4.741   3.498   2.231 -0.2775  0.0336  0.5003
11700TIP3    H156591   4.712   3.411   2.256  1.3442 -0.1516  1.7891
11700TIP3    H256592   4.683   3.558   2.278 -0.1681 -0.3409  1.1131
11701TIP3   OH256593   4.004   3.702   2.623  0.3027 -0.4201  0.2215
11701TIP3    H156594   4.035   3.658   2.703  0.1005 -1.7295 -0.4054
11701TIP3    H256595   3.956   3.634   2.576 -1.3936  0.9170 -0.0217
11702TIP3   OH256596   4.159   1.798   1.282 -0.6101 -0.4742  0.0653
11702TIP3    H156597   4.153   1.745   1.203  0.6040  0.7528 -0.8548
11702TIP3    H256598   4.250   1.828   1.285 -1.2699  1.6052  0.5264
11703TIP3   OH256599   5.892   4.609   0.139  0.0094  0.0423  0.7505
11703TIP3    H156600   5.959   4.575   0.199 -0.1388  0.2199  1.0146
11703TIP3    H256601   5.845   4.675   0.190 -0.2433  0.0547  0.5004
11704TIP3   OH256602   4.657   5.803   2.243  0.3526 -0.0997 -0.3996
11704TIP3    H156603   4.631   5.786   2.152  0.0230 -0.7711 -0.1806
11704TIP3    H256604   4.579   5.782   2.294  0.0071  1.8648 -0.0997
11705TIP3   OH256605   5.639   0.658  14.323  0.0728 -0.0919  0.5469
11705TIP3    H156606   5.643   0.733  14.264 -0.8501 -0.1475  0.4071
11705TIP3    H256607   5.725   0.618  14.317 -0.1227 -0.2945 -1.0233
11706TIP3   OH256608   2.975   5.137   2.525  0.1291  0.8291  0.8128
11706TIP3    H156609   2.897   5.168   2.573  1.7128  2.1839  2.6076
11706TIP3    H256610   3.047   5.154   2.585  1.8784  0.0156 -1.0267
11707TIP3   OH256611   3.620   2.965  15.609 -0.0990 -0.0612 -0.2556
11707TIP3    H156612   3.696   2.981  15.553  1.0692 -2.5438  0.5528
11707TIP3    H256613   3.652   2.904  15.676 -1.9176  1.4769  2.1115
11708TIP3   OH256614   6.027   3.849  15.149 -0.0654  0.2253  0.0249
11708TIP3    H156615   6.112   3.846  15.104  0.1367  0.7171  0.3615
11708TIP3    H256616   6.043   3.903  15.226 -0.8938  0.9913 -0.3349
11709TIP3   OH256617   2.538   5.041   1.183  0.2548  0.1146 -0.1846
11709TIP3    H156618   2.448   5.008   1.191 -0.0030  0.3101 -2.0507
11709TIP3    H256619   2.589   4.988   1.245 -0.9035 -0.9405 -0.1274
11710TIP3   OH256620   3.324   3.268  14.138 -0.1156 -0.1230  0.2416
11710TIP3    H156621   3.258   3.259  14.207 -0.2494  0.1389  0.1448
11710TIP3    H256622   3.400   3.222  14.173  0.4663  1.6874  1.4025
11711TIP3   OH256623   4.196   4.954   0.884 -0.4158  0.5297 -0.4533
11711TIP3    H156624   4.193   4.859   0.869  0.9731  0.6457 -1.6089
11711TIP3    H256625   4.161   4.992   0.804  1.7946  1.0396 -1.2122
11712TIP3   OH256626   4.139   5.311  12.893  0.5019  0.1969 -0.4546
11712TIP3    H156627   4.074   5.302  12.823  0.1279  2.3632 -0.4429
11712TIP3    H256628   4.105   5.258  12.965 -0.1405 -0.4520 -1.2278
11713TIP3   OH256629   3.028   3.358   2.783 -0.0220 -0.1723 -0.3912
11713TIP3    H156630   3.081   3.279   2.770  1.8278  0.7208  1.4656
11713TIP3    H256631   2.964   3.332   2.849 -2.4242 -1.4512 -3.1151
11714TIP3   OH256632   7.110   3.048  13.798  0.5938 -0.2870  0.6735
11714TIP3    H156633   7.024   3.007  13.787 -0.2296  1.7973 -1.0525
11714TIP3    H256634   7.136   3.074  13.709  3.1895 -1.2018  1.1295
11715TIP3   OH256635   3.166   4.678   1.839  0.0104  0.6068 -0.0136
11715TIP3    H156636   3.224   4.752   1.820  0.3875 -0.4940 -3.5319
11715TIP3    H256637   3.225   4.604   1.854 -0.4136  0.4216  0.7569
11716TIP3   OH256638   4.695   2.232   1.174 -0.0339 -0.0394  0.4061
11716TIP3    H156639   4.716   2.312   1.222 -0.1990  0.8166 -0.8949
11716TIP3    H256640   4.768   2.173   1.190  0.0044  0.3064  1.5211
11717TIP3   OH256641   4.427   2.739   2.799  0.3194 -0.2044  0.0834
11717TIP3    H156642   4.340   2.740   2.839  0.0001 -3.3138 -0.4166
11717TIP3    H256643   4.448   2.831   2.784 -2.6719  0.6103  0.6684
11718TIP3   OH256644   1.932   3.966   3.167  0.5886 -0.6117  0.3525
11718TIP3    H156645   1.908   4.057   3.148  0.3427 -0.7101  0.1918
11718TIP3    H256646   2.019   3.956   3.128  1.3179  0.0307  1.7881
11719TIP3   OH256647   2.891   2.837   0.399 -0.2465 -0.0655 -0.0109
11719TIP3    H156648   2.953   2.874   0.336 -3.3741  2.1546 -1.8674
11719TIP3    H256649   2.879   2.906   0.465  0.0813 -0.9406  0.9924
11720TIP3   OH256650   3.509   4.196   2.041  0.2381  0.3696  0.1123
11720TIP3    H156651   3.431   4.212   2.094  0.5684  0.2304  0.6482
11720TIP3    H256652   3.575   4.165   2.104  1.7975  3.7679  0.3106
11721TIP3   OH256653   5.226   3.063   0.631 -0.6259 -0.2589 -0.2642
11721TIP3    H156654   5.200   2.970   0.628 -0.1124 -0.3886 -0.6893
11721TIP3    H256655   5.248   3.084   0.541 -1.5129  0.5021 -0.3100
11722TIP3   OH256656   4.323   3.645  14.349 -0.0875 -0.2519  0.4187
11722TIP3    H156657   4.263   3.591  14.399 -2.4654  0.4618 -1.5484
11722TIP3    H256658   4.397   3.588  14.328 -0.7491 -1.5654  1.6730
11723TIP3   OH256659   4.721   1.544  14.894  0.3242  0.5506  0.5220
11723TIP3    H156660   4.683   1.529  14.980  0.1488  1.3124  0.5815
11723TIP3    H256661   4.800   1.490  14.894 -0.0067  0.0605  0.9245
11724TIP3   OH256662   3.503   4.963   2.495  0.6137  0.2362 -0.4168
11724TIP3    H156663   3.461   5.022   2.558  1.4174 -0.9351  1.2416
11724TIP3    H256664   3.508   5.014   2.414  0.6070  2.1651  0.7730
11725TIP3   OH256665   5.615   4.336   1.380 -0.3114  0.2021  0.1179
11725TIP3    H156666   5.656   4.421   1.392 -0.5919  0.6439 -1.8231
11725TIP3    H256667   5.534   4.340   1.431  0.5841  0.4232  1.5209
11726TIP3   OH256668   6.175   3.001  13.881  0.0559  0.3897 -0.2188
11726TIP3    H156669   6.270   2.997  13.888  0.0791 -0.0894 -0.8062
11726TIP3    H256670   6.144   2.975  13.968  0.4498 -0.0615 -0.2081
11727TIP3   OH256671   4.607   2.276   3.562  0.0661 -0.1640  0.5011
11727TIP3    H156672   4.534   2.264   3.502 -0.6821  2.2353  0.8537
11727TIP3    H256673   4.664   2.339   3.517  0.9189 -0.5075  1.0889
11728TIP3   OH256674   6.663   1.328   1.649  0.1387 -0.0640  0.0709
11728TIP3    H156675   6.685   1.344   1.740  0.5975 -0.2450 -0.0064
11728TIP3    H256676   6.569   1.313   1.649  0.3274 -1.2459  0.6739
11729TIP3   OH256677   5.295   7.096   0.750 -0.0151  0.3320 -0.6636
11729TIP3    H156678   5.217   7.042   0.736 -1.3954  2.2084 -0.5219
11729TIP3    H256679   5.354   7.042   0.802 -2.1861 -0.3239  1.1872
11730TIP3   OH256680   4.569   4.743   1.511 -0.4283 -0.0541  0.1569
11730TIP3    H156681   4.484   4.741   1.466 -0.0671  0.7616 -0.5835
11730TIP3    H256682   4.590   4.836   1.518  0.9668 -0.2916 -0.7481
11731TIP3   OH256683   5.887   2.527  14.904  0.2853 -0.1748 -0.6756
11731TIP3    H156684   5.803   2.554  14.943  0.0978 -1.2425 -0.3392
11731TIP3    H256685   5.871   2.532  14.809 -0.0602 -0.0737 -0.6158
11732TIP3   OH256686   5.291   4.431  15.622 -0.4414 -0.5317 -0.7059
11732TIP3    H156687   5.263   4.521  15.640 -0.9958 -0.6375 -1.0085
11732TIP3    H256688   5.331   4.434  15.536 -1.4205 -0.7622 -1.1834
11733TIP3   OH256689   4.096   1.325  15.562  0.2181 -0.1097 -0.3708
11733TIP3    H156690   4.051   1.397  15.606 -0.2790 -0.2911 -0.5754
11733TIP3    H256691   4.187   1.354  15.555  0.1950  0.1381  0.3095
11734TIP3   OH256692   1.854   3.593   0.207  0.0753 -0.1230  0.3838
11734TIP3    H156693   1.930   3.623   0.156 -1.0129  0.1071 -1.1226
11734TIP3    H256694   1.780   3.640   0.171 -0.9439 -1.0252  1.2437
11735TIP3   OH256695   5.974   1.750   1.792 -0.2011 -0.0196  0.3249
11735TIP3    H156696   5.938   1.839   1.793  0.7469  0.3836 -0.9071
11735TIP3    H256697   5.939   1.710   1.871 -3.2900  0.3735 -0.7925
11736TIP3   OH256698   4.947   5.062   2.793 -0.3957 -0.0590 -0.2769
11736TIP3    H156699   4.973   4.978   2.832 -1.4678  0.4529  1.5814
11736TIP3    H256700   4.900   5.108   2.863  1.4292  2.7112 -0.8085
11737TIP3   OH256701   3.240   4.109  15.406 -0.4010  0.1084 -0.6066
11737TIP3    H156702   3.155   4.147  15.382  0.0940  1.1402 -0.7501
11737TIP3    H256703   3.285   4.179  15.453  0.4817 -0.3436 -0.7750
11738TIP3   OH256704   4.826   3.885   0.803  0.2676  0.0411 -0.1730
11738TIP3    H156705   4.733   3.879   0.782  0.2466  1.2673 -0.4554
11738TIP3    H256706   4.828   3.892   0.898 -0.0103  1.4992 -0.2725
11739TIP3   OH256707   5.890   4.559  14.754 -0.3391 -0.2873 -0.3208
11739TIP3    H156708   5.842   4.541  14.673 -0.2569  0.0156 -0.4374
11739TIP3    H256709   5.963   4.498  14.752 -0.5597 -0.5547 -0.2812
11740TIP3   OH256710   2.078   1.675   2.401  0.5324 -0.5363 -0.3851
11740TIP3    H156711   2.166   1.703   2.426  1.1230 -1.1690 -1.7105
11740TIP3    H256712   2.071   1.697   2.308 -2.0755  2.9349  0.5092
11741TIP3   OH256713   4.957   2.992  13.336  0.0785 -0.1912  0.1208
11741TIP3    H156714   5.020   2.921  13.334 -0.9812 -1.1315 -0.9633
11741TIP3    H256715   4.963   3.031  13.248 -2.7107 -1.9902 -0.9217
11742TIP3   OH256716   4.101   2.997   1.111  0.3394 -0.0680 -0.4499
11742TIP3    H156717   4.014   2.974   1.078  1.2690 -2.4648 -1.3199
11742TIP3    H256718   4.101   2.965   1.201  0.5364 -0.6450 -0.6534
11743TIP3   OH256719   2.933   4.849   2.518 -0.0798  0.3966  0.4106
11743TIP3    H156720   2.932   4.803   2.434 -3.9190  1.8084 -0.4270
11743TIP3    H256721   2.947   4.941   2.495  1.7643  0.4673  1.6212
11744TIP3   OH256722   5.654   2.702   3.247  0.3518  0.4658 -0.2569
11744TIP3    H156723   5.715   2.665   3.183  0.8003 -1.3824  1.2047
11744TIP3    H256724   5.611   2.626   3.287 -1.4412  1.6659  0.1802
11745TIP3   OH256725   3.666   3.663  14.757 -0.1580  0.4195 -0.6291
11745TIP3    H156726   3.615   3.631  14.832  0.6303 -0.2612 -0.3702
11745TIP3    H256727   3.677   3.756  14.774  0.0726  0.2607  0.1463
11746TIP3   OH256728   6.102   2.557   2.095  0.0406  0.0545  0.1113
11746TIP3    H156729   6.167   2.596   2.153  0.3343 -0.2992  0.0227
11746TIP3    H256730   6.153   2.521   2.023 -0.2310 -0.4322  0.1595
11747TIP3   OH256731   0.338   2.808  14.897  0.1633  0.5618  0.7219
11747TIP3    H156732   0.421   2.847  14.925  0.8343  0.2696 -0.8252
11747TIP3    H256733   0.287   2.881  14.863 -0.1923  0.7309  1.6123
11748TIP3   OH256734   5.158   2.179  15.847  0.4909 -1.2307  0.1689
11748TIP3    H156735   5.088   2.167  15.912 -0.3030 -1.0869 -0.6567
11748TIP3    H256736   5.147   2.269  15.817  0.9748 -1.2418 -0.0415
11749TIP3   OH256737   5.097   4.750   1.045  0.3971  0.1344 -0.5070
11749TIP3    H156738   5.066   4.798   1.122  0.5179 -0.3788 -0.1340
11749TIP3    H256739   5.193   4.747   1.056  0.3886 -0.2066 -0.5136
11750TIP3   OH256740   3.493   3.553   1.242  0.4304  0.2734  0.6570
11750TIP3    H156741   3.459   3.627   1.292 -0.8933  0.1372 -0.0024
11750TIP3    H256742   3.578   3.534   1.281  0.9850  2.4018  0.5587
11751TIP3   OH256743   7.266   1.714   2.757  0.2465 -0.2831  0.2975
11751TIP3    H156744   7.235   1.759   2.678 -1.1986  1.0807  1.5991
11751TIP3    H256745   7.233   1.625   2.749 -0.0974 -0.0794 -0.5196
11752TIP3   OH256746   4.516   6.206  15.178  0.5932  0.4616 -0.3022
11752TIP3    H156747   4.508   6.284  15.232 -0.4158 -0.0110  0.2479
11752TIP3    H256748   4.444   6.212  15.116 -0.3457 -0.7234  0.6442
11753TIP3   OH256749   5.525   3.823  15.511 -0.3318 -0.4956 -0.0666
11753TIP3    H156750   5.554   3.913  15.522 -2.5539  0.0779  1.2673
11753TIP3    H256751   5.447   3.829  15.457 -1.6201 -1.4244  1.6464
11754TIP3   OH256752   4.843   3.982   1.718 -0.1907  0.1709 -0.2437
11754TIP3    H156753   4.823   3.890   1.732  1.2998 -0.0533  0.5679
11754TIP3    H256754   4.827   4.024   1.802 -0.8242  0.6457 -0.5975
11755TIP3   OH256755   5.595   2.240   2.770  0.0010  0.1814  0.0232
11755TIP3    H156756   5.512   2.278   2.801  1.2229  1.3514  1.9839
11755TIP3    H256757   5.616   2.288   2.691 -0.9826  0.1599 -0.2556
11756TIP3   OH256758   3.212   2.009   2.210 -0.3424 -0.0841 -0.0526
11756TIP3    H156759   3.195   1.915   2.209 -1.0834  0.0565 -1.2892
11756TIP3    H256760   3.286   2.019   2.270 -1.0292 -1.3193  1.0339
11757TIP3   OH256761   6.312   1.797   2.120  0.2149 -0.5738  0.7635
11757TIP3    H156762   6.291   1.718   2.170  1.7054 -1.2118  0.4134
11757TIP3    H256763   6.403   1.784   2.093  0.7661  1.6856  1.4835
11758TIP3   OH256764   6.002   1.598   2.674  0.4980 -0.2872 -0.2999
11758TIP3    H156765   6.011   1.523   2.615 -0.9070 -0.2147 -0.6265
11758TIP3    H256766   6.013   1.561   2.761  3.6264 -0.2291 -0.6224
11759TIP3   OH256767   3.650   2.850   1.655 -0.8731 -0.3754 -0.6365
11759TIP3    H156768   3.728   2.855   1.598 -0.0206 -0.5802  0.4912
11759TIP3    H256769   3.605   2.933   1.640  0.3997  0.4205 -0.1418
11760TIP3   OH256770   5.288   2.948   5.200 -0.1166 -0.2571  0.3826
11760TIP3    H156771   5.241   2.951   5.283  0.4052  1.3186  0.6253
11760TIP3    H256772   5.377   2.973   5.221 -0.0106  0.2880 -0.6702
11761TIP3   OH256773   4.020   3.339   3.589  0.4869 -0.3016  0.0796
11761TIP3    H156774   4.074   3.260   3.593 -1.3973 -1.5935  0.6561
11761TIP3    H256775   4.004   3.363   3.680 -2.3689 -1.7077  0.0268
11762TIP3   OH256776   3.936   3.538   0.637  0.2692  0.5605 -0.4786
11762TIP3    H156777   3.887   3.562   0.559 -2.2673  0.0229  0.8847
11762TIP3    H256778   3.907   3.448   0.657 -0.7476  1.4369  2.2554
11763TIP3   OH256779   4.395   4.920  15.177 -0.1964  0.1488 -0.1221
11763TIP3    H156780   4.381   4.894  15.086 -1.3158  2.3655 -0.6290
11763TIP3    H256781   4.369   4.844  15.229  0.3417 -1.0858 -1.6430
11764TIP3   OH256782   4.750   0.181   0.562 -0.0041  0.0264 -0.4368
11764TIP3    H156783   4.718   0.097   0.595  2.2544 -0.2310  1.2211
11764TIP3    H256784   4.723   0.184   0.471 -3.6112 -0.7167  0.5128
11765TIP3   OH256785   4.824   2.116   0.175 -0.7093 -0.1550 -0.6923
11765TIP3    H156786   4.784   2.034   0.206  1.2379 -1.1677 -0.8180
11765TIP3    H256787   4.803   2.118   0.082  1.2422 -1.7424 -1.2075
11766TIP3   OH256788   6.100   4.883   1.673  0.4532 -0.5672 -0.8956
11766TIP3    H156789   6.105   4.833   1.754 -2.0852  0.0810 -0.3115
11766TIP3    H256790   6.128   4.971   1.697  0.8291 -0.6600 -0.9906
11767TIP3   OH256791   3.239   4.036   2.754  0.1800 -0.0862  0.6300
11767TIP3    H156792   3.188   4.021   2.833 -1.3287  4.3096  0.6205
11767TIP3    H256793   3.275   4.124   2.765  3.4264 -1.0309 -1.7465
11768TIP3   OH256794   6.409   4.934   2.112 -0.2741 -0.1842 -0.3548
11768TIP3    H156795   6.432   5.026   2.123 -1.5162 -0.0252  0.9656
11768TIP3    H256796   6.332   4.921   2.167 -1.0376 -1.6510 -1.7166
11769TIP3   OH256797   0.588   4.987   2.458 -0.1713  1.1272  0.3765
11769TIP3    H156798   0.520   4.949   2.402 -0.7939 -0.4677  2.1562
11769TIP3    H256799   0.577   5.082   2.448 -0.9466  0.8694 -1.3619
11770TIP3   OH256800   4.799   3.682   0.124  0.3345 -0.2795  0.0576
11770TIP3    H156801   4.818   3.613   0.061 -1.4098  0.7487 -1.6565
11770TIP3    H256802   4.767   3.635   0.201 -0.5151 -1.4260 -0.9688
11771TIP3   OH256803   2.982   3.134   1.179 -0.4869 -0.1215  0.1344
11771TIP3    H156804   3.054   3.138   1.115 -0.4199  0.0149  0.2183
11771TIP3    H256805   2.912   3.089   1.133 -0.1795 -0.6846  0.2117
11772TIP3   OH256806   5.303   5.545   2.151 -0.2630  0.5932 -0.4403
11772TIP3    H156807   5.291   5.454   2.176  1.5559  0.2554 -0.7502
11772TIP3    H256808   5.339   5.587   2.229  1.0318  0.5465 -1.0017
11773TIP3   OH256809   3.776   3.221   3.165  0.0320 -0.0770  0.3455
11773TIP3    H156810   3.839   3.199   3.096  0.6484  1.3285  0.4562
11773TIP3    H256811   3.818   3.193   3.246 -0.7136 -1.7764  0.1805
11774TIP3   OH256812   6.316   1.885   1.840 -0.0748 -0.4663  0.3482
11774TIP3    H156813   6.342   1.977   1.845 -2.5683  0.3504 -0.7845
11774TIP3    H256814   6.286   1.863   1.928  0.6140 -0.2037  0.6443
11775TIP3   OH256815   6.181   1.803   0.323 -0.6153 -0.6183  0.0712
11775TIP3    H156816   6.263   1.772   0.284 -0.4302 -1.4476  1.0776
11775TIP3    H256817   6.207   1.844   0.406 -1.2758 -1.6360  0.8069
11776TIP3   OH256818   4.267   1.588   1.956 -0.0815  0.1860  0.1948
11776TIP3    H156819   4.345   1.621   2.001 -0.3861  0.7609  0.3074
11776TIP3    H256820   4.214   1.666   1.940 -0.8800 -0.2644  0.5920
11777TIP3   OH256821   2.945   0.924   0.053 -0.6476 -0.1250 -0.2425
11777TIP3    H156822   2.993   0.903  -0.027 -0.9117  1.6489 -0.9048
11777TIP3    H256823   2.893   0.846   0.072  1.7168 -1.6979 -0.0741
11778TIP3   OH256824   5.245   5.609   3.787  0.0478 -0.1870 -0.2359
11778TIP3    H156825   5.263   5.683   3.845  0.7053 -1.2913  1.0050
11778TIP3    H256826   5.150   5.604   3.785  0.0122 -0.3887  1.1063
11779TIP3   OH256827   4.829   1.057   0.604  0.2222 -0.0817  0.1768
11779TIP3    H156828   4.764   1.126   0.593  0.4146  0.1967  0.7623
11779TIP3    H256829   4.881   1.085   0.680 -0.2143 -1.2508  0.9315
11780TIP3   OH256830   1.683   1.572   0.989  0.3924 -0.4347  0.1975
11780TIP3    H156831   1.599   1.531   1.010 -1.3647  1.3545 -3.0238
11780TIP3    H256832   1.746   1.526   1.045 -2.4815 -2.7587  1.6978
11781TIP3   OH256833   4.905   3.251  15.255  0.0638  0.0367  0.3365
11781TIP3    H156834   4.930   3.161  15.275 -0.1358  0.1927  1.3440
11781TIP3    H256835   4.830   3.243  15.196  0.8081 -0.4428 -0.5509
11782TIP3   OH256836   3.843   3.641   1.120  0.7685  0.2328 -0.0758
11782TIP3    H156837   3.850   3.655   1.025 -2.6631  2.0419 -0.1349
11782TIP3    H256838   3.806   3.723   1.153  0.5743 -0.9177  2.6445
11783TIP3   OH256839   4.153   2.299   4.015 -0.7458  0.4552 -0.4011
11783TIP3    H156840   4.192   2.271   3.932  0.9042 -1.3064  0.9260
11783TIP3    H256841   4.163   2.394   4.015 -1.4120  0.5577 -2.5149
11784TIP3   OH256842   5.280   3.576   2.720 -0.2892 -0.2352  0.1046
11784TIP3    H156843   5.288   3.590   2.625 -0.7444 -1.5794 -0.1432
11784TIP3    H256844   5.227   3.497   2.728  0.2472 -0.4666  1.4806
11785TIP3   OH256845   6.477   2.643   1.818 -0.5411 -0.3139  0.0603
11785TIP3    H156846   6.402   2.594   1.785  1.6189 -2.0033 -2.6474
11785TIP3    H256847   6.508   2.592   1.893 -0.8448 -0.7355 -0.1005
11786TIP3   OH256848   1.766   2.815   1.134  0.4499 -0.2988  0.3855
11786TIP3    H156849   1.694   2.878   1.138  0.8234  0.2385 -1.0192
11786TIP3    H256850   1.841   2.862   1.170  0.6142 -0.1064 -0.2073
11787TIP3   OH256851   4.301   2.488   2.118  0.3753 -0.2776 -0.2975
11787TIP3    H156852   4.389   2.524   2.110 -0.0330  0.3199 -2.3765
11787TIP3    H256853   4.291   2.469   2.212  1.7339  2.0815  0.3599
11788TIP3   OH256854   3.568   2.387  15.535  0.0992  0.1963 -0.3954
11788TIP3    H156855   3.661   2.383  15.513  0.0529  0.6491 -0.6723
11788TIP3    H256856   3.532   2.452  15.474 -0.5354 -0.5236 -0.8036
11789TIP3   OH256857   5.128   2.792   0.547  0.3486 -0.2828  0.3382
11789TIP3    H156858   5.102   2.707   0.512  0.1557 -0.9201  1.9783
11789TIP3    H256859   5.140   2.776   0.641  1.8325  1.1362  0.4123
11790TIP3   OH256860   2.677   0.452   1.164 -0.3791 -0.5057  0.4597
11790TIP3    H156861   2.678   0.482   1.255  0.7187 -0.4172  0.4230
11790TIP3    H256862   2.729   0.372   1.165  0.2440 -0.1104 -0.2213
11791TIP3   OH256863   3.601   4.175   3.797 -0.2298 -0.4130  0.9657
11791TIP3    H156864   3.563   4.090   3.776  0.1406 -0.9836  2.4986
11791TIP3    H256865   3.550   4.207   3.872 -0.9225  1.1243 -0.1277
11792TIP3   OH256866   5.596   3.598   1.351 -0.2525  0.0499  0.0369
11792TIP3    H156867   5.633   3.681   1.381 -0.3663 -0.0230  0.3827
11792TIP3    H256868   5.514   3.623   1.309 -1.7208 -0.1631  2.7106
11793TIP3   OH256869   4.103   1.860   3.335 -0.1497  0.1694  0.3725
11793TIP3    H156870   4.053   1.915   3.276  0.6550  3.1306  2.3516
11793TIP3    H256871   4.187   1.846   3.290 -0.3451  0.5940 -0.1242
11794TIP3   OH256872   4.187   2.656   2.326  0.4000 -0.4310  0.2389
11794TIP3    H156873   4.147   2.741   2.343 -0.1734 -1.0230  1.9597
11794TIP3    H256874   4.140   2.622   2.250 -1.4154 -0.4952  1.3741
11795TIP3   OH256875   4.588   4.899  14.355  0.6179  0.4280  0.2980
11795TIP3    H156876   4.650   4.890  14.427 -0.2902 -0.4902  0.9810
11795TIP3    H256877   4.594   4.816  14.307 -0.4070  0.1464  0.6446
11796TIP3   OH256878   4.574   4.618   1.756 -1.1886  0.4570  0.3736
11796TIP3    H156879   4.555   4.660   1.672 -0.6220 -0.7153 -0.3485
11796TIP3    H256880   4.644   4.556   1.737 -0.1482  1.1028  1.9784
11797TIP3   OH256881   4.881   1.630   1.164 -0.0097  0.2381 -0.1620
11797TIP3    H156882   4.959   1.606   1.115 -1.0743  0.4080 -1.9703
11797TIP3    H256883   4.821   1.556   1.153 -0.7671  0.8495 -0.2366
11798TIP3   OH256884   1.664   3.064   1.163 -0.2663 -0.0038 -0.4038
11798TIP3    H156885   1.634   3.112   1.085 -1.4260  0.2998  0.2277
11798TIP3    H256886   1.757   3.086   1.170  0.5942 -2.3429 -3.3889
11799TIP3   OH256887   3.326   1.445   3.009 -0.2819  0.1301 -0.2004
11799TIP3    H156888   3.345   1.353   3.024  0.2257  0.0419 -1.3370
11799TIP3    H256889   3.328   1.455   2.913 -0.1828  1.3423 -0.0825
11800TIP3   OH256890   2.385   5.264   2.382  0.0675 -0.1260  0.1172
11800TIP3    H156891   2.432   5.344   2.359  1.2794 -0.4561  1.4101
11800TIP3    H256892   2.452   5.196   2.384 -0.4667 -0.6318  1.7947
11801TIP3   OH256893   5.832   4.989   2.206  0.6322 -0.6053  0.1315
11801TIP3    H156894   5.856   4.904   2.170  1.3818 -0.3491  0.0007
11801TIP3    H256895   5.819   5.045   2.130  0.5770 -0.4921  0.2240
11802TIP3   OH256896   5.514   5.176   0.870  0.2955  0.3518 -0.8305
11802TIP3    H156897   5.553   5.192   0.785  0.7991 -0.8374 -0.8394
11802TIP3    H256898   5.562   5.233   0.930  1.5028 -0.4689 -0.9849
11803TIP3   OH256899   3.587   3.013   2.079  0.5522  0.2125 -0.2234
11803TIP3    H156900   3.612   3.095   2.035 -0.6707 -0.7081 -2.7394
11803TIP3    H256901   3.494   3.025   2.099  0.3261 -0.6332 -0.7732
11804TIP3   OH256902   5.483   5.381  15.320 -0.0792 -0.1584 -0.0537
11804TIP3    H156903   5.565   5.343  15.353 -0.3466 -0.0441  0.7470
11804TIP3    H256904   5.418   5.313  15.334 -0.0687 -0.3734 -0.9937
11805TIP3   OH256905   2.854   3.024   0.620 -0.1395  0.0001  0.4982
11805TIP3    H156906   2.838   2.954   0.683 -1.0244  0.6054  0.9590
11805TIP3    H256907   2.815   3.102   0.661  0.0905  0.5802 -0.3843
11806TIP3   OH256908   5.664   0.821   2.451  0.2627  0.1866 -0.1070
11806TIP3    H156909   5.703   0.903   2.420  0.7337 -0.5026 -1.3568
11806TIP3    H256910   5.664   0.764   2.375 -0.1682 -0.9484  0.7313
11807TIP3   OH256911   6.707   2.652   0.758  0.0944  0.0022 -0.4578
11807TIP3    H156912   6.623   2.669   0.800 -0.9395 -3.0735 -1.1363
11807TIP3    H256913   6.692   2.674   0.666  0.0535 -0.4260 -0.5552
11808TIP3   OH256914   0.190   3.315   0.151 -0.0759 -0.3040  0.3387
11808TIP3    H156915   0.207   3.240   0.208 -0.6004  0.3815  1.4120
11808TIP3    H256916   0.262   3.375   0.167 -1.1583  0.6773  1.6283
11809TIP3   OH256917   0.328   1.116  15.947  0.2742 -0.0720 -0.1766
11809TIP3    H156918   0.413   1.159  15.945 -0.4744  1.4328  0.0210
11809TIP3    H256919   0.269   1.180  15.988 -0.5588 -1.7961  1.4272
11810TIP3   OH256920   3.817   1.161   1.353  0.0945 -0.2257  0.1952
11810TIP3    H156921   3.796   1.113   1.273  0.6108 -0.2238  0.0567
11810TIP3    H256922   3.913   1.166   1.353  0.1082 -0.4460  0.9385
11811TIP3   OH256923   3.693   2.179   2.376 -0.0339  0.3421  0.0572
11811TIP3    H156924   3.723   2.113   2.314 -0.0545  0.1920  0.2071
11811TIP3    H256925   3.600   2.190   2.356 -0.1653 -0.0994  0.4195
11812TIP3   OH256926   5.641   2.635   0.835 -0.2745  0.0615 -0.1974
11812TIP3    H156927   5.674   2.554   0.873 -0.5907 -1.2443 -2.6270
11812TIP3    H256928   5.591   2.676   0.906  0.1923 -1.6674  1.1588
11813TIP3   OH256929   5.069   3.668   0.395 -0.1124  0.7553  0.6667
11813TIP3    H156930   5.016   3.625   0.461 -2.8080  0.4636 -1.5948
11813TIP3    H256931   5.038   3.759   0.394  1.5354  1.3574  1.3788
11814TIP3   OH256932   3.805   3.930   2.021  0.0607  0.0222 -0.2151
11814TIP3    H156933   3.734   3.895   1.968 -0.3668  1.5043 -0.6581
11814TIP3    H256934   3.884   3.887   1.988 -0.5649 -1.2463 -0.0616
11815TIP3   OH256935   3.094   2.466   0.626 -0.0093  0.2153  0.6278
11815TIP3    H156936   3.124   2.377   0.606  0.3444  0.7091 -1.0700
11815TIP3    H256937   3.017   2.479   0.571  1.3943  1.8391 -1.0219
11816TIP3   OH256938   5.929   1.789   0.225 -0.2225 -0.4332  0.2709
11816TIP3    H156939   5.927   1.724   0.155  0.3731 -1.3411  1.0641
11816TIP3    H256940   6.021   1.792   0.252 -0.7701 -1.6405  2.3937
11817TIP3   OH256941   5.824   3.314  15.278  0.2481 -0.0956  0.0275
11817TIP3    H156942   5.798   3.310  15.370  1.0179 -0.2263  0.2376
11817TIP3    H256943   5.741   3.325  15.231 -0.4445 -2.9840  0.5085
11818TIP3   OH256944   6.001   3.735   1.449  0.7265  0.4348 -0.6864
11818TIP3    H156945   6.045   3.767   1.528 -0.2246  0.5548 -0.2036
11818TIP3    H256946   6.062   3.671   1.412  1.1502  0.3386  0.1756
11819TIP3   OH256947   4.405   1.800   0.489  0.4272  0.2020 -0.0339
11819TIP3    H156948   4.480   1.845   0.528  1.2597 -2.4085  1.5148
11819TIP3    H256949   4.347   1.782   0.563 -0.1037 -0.8318 -0.6937
11820TIP3   OH256950   4.251   2.233   3.134 -0.5183 -0.0684  0.0852
11820TIP3    H156951   4.168   2.195   3.107 -0.8950 -0.9813  2.3430
11820TIP3    H256952   4.232   2.325   3.151 -1.1894 -0.3690  1.0002
11821TIP3   OH256953   4.241   3.845  15.113 -0.0895  0.0364 -0.3739
11821TIP3    H156954   4.325   3.801  15.124  1.4317  2.7452 -0.5377
11821TIP3    H256955   4.238   3.869  15.020 -2.7880 -3.2708 -1.2412
11822TIP3   OH256956   6.130   0.349   2.766 -0.5871 -0.0150  0.1927
11822TIP3    H156957   6.108   0.442   2.775 -0.9933 -0.1516  0.6465
11822TIP3    H256958   6.222   0.344   2.792 -0.5382  0.2760  0.0814
11823TIP3   OH256959   4.275   4.598   2.475  0.0771  0.0860 -0.4837
11823TIP3    H156960   4.346   4.548   2.434  0.8971  0.6360  0.2416
11823TIP3    H256961   4.248   4.661   2.408  1.2674  0.8426 -0.2667
11824TIP3   OH256962   7.237   2.766   3.089  0.1779  0.2911  0.5871
11824TIP3    H156963   7.320   2.813   3.081 -0.2979  1.0537  0.1288
11824TIP3    H256964   7.223   2.727   3.003  0.2730 -0.2011  0.7921
11825TIP3   OH256965   6.040   4.006   2.300  0.1522  0.1127 -0.5881
11825TIP3    H156966   6.120   3.956   2.288  1.2122  1.4484  0.8285
11825TIP3    H256967   5.988   3.987   2.222  1.9130 -0.6105 -1.6082
11826TIP3   OH256968   5.315   1.664   1.316 -0.5315  0.4524  0.1100
11826TIP3    H156969   5.304   1.744   1.264  0.0271 -0.1237 -0.9074
11826TIP3    H256970   5.226   1.633   1.332 -0.6785  0.0408 -1.4392
11827TIP3   OH256971   0.026   3.979  14.639  0.4810 -0.3058  0.2225
11827TIP3    H156972   0.086   4.053  14.629  1.4699 -1.3058 -1.4916
11827TIP3    H256973  -0.043   4.012  14.697  1.1574  1.7894 -0.1178
11828TIP3   OH256974   5.322   4.355  15.878 -0.4395  0.3238  0.4298
11828TIP3    H156975   5.283   4.389  15.798 -0.3647  1.5911  0.9152
11828TIP3    H256976   5.355   4.268  15.855  1.0615  1.3473 -1.3289
11829TIP3   OH256977   5.826   2.957  15.850  0.0968  0.0436 -0.5158
11829TIP3    H156978   5.903   2.985  15.801 -0.2721 -0.4501 -1.3790
11829TIP3    H256979   5.764   3.029  15.840  0.4019  0.3956  0.0935
11830TIP3   OH256980   3.354   5.319   1.601 -0.3302 -0.4782 -0.7892
11830TIP3    H156981   3.426   5.269   1.563  0.5273 -1.2832  1.8152
11830TIP3    H256982   3.365   5.310   1.696 -4.4431 -1.5272 -0.2752
11831TIP3   OH256983   5.575   3.107   0.339  0.1601 -0.0605 -0.7105
11831TIP3    H156984   5.620   3.031   0.301  1.4924 -1.5546  3.5407
11831TIP3    H256985   5.483   3.081   0.343  0.3738 -0.8319 -0.7539
11832TIP3   OH256986   5.079   3.568   0.153  0.1281 -0.3215  0.4171
11832TIP3    H156987   5.114   3.629   0.218  1.6754 -0.1007 -0.5951
11832TIP3    H256988   4.996   3.539   0.190  1.5414 -1.1753  3.0974
11833TIP3   OH256989   2.977   3.438   1.789 -0.0369  0.3590 -0.0313
11833TIP3    H156990   2.906   3.375   1.776  0.2204  0.3100 -1.2471
11833TIP3    H256991   2.962   3.504   1.721 -0.6125  1.8883  1.5551
11834TIP3   OH256992   7.251   3.406  14.121  1.0201 -0.0971 -0.4853
11834TIP3    H156993   7.317   3.357  14.072 -0.0612 -1.7310 -0.3328
11834TIP3    H256994   7.168   3.367  14.095 -0.0410  2.9330 -1.8094
11835TIP3   OH256995   1.507   4.029   1.585 -0.3901  0.2920  0.1132
11835TIP3    H156996   1.592   4.070   1.569  0.0718  0.3460  2.5538
11835TIP3    H256997   1.528   3.937   1.603 -0.7333  0.4950  1.6375
11836TIP3   OH256998   5.094   2.034   0.641 -0.5482  0.0189 -0.0508
11836TIP3    H156999   5.027   2.098   0.617 -0.3916 -0.1026 -0.8301
11836TIP3    H257000   5.139   2.073   0.715 -0.6460  0.6801 -0.3376
11837TIP3   OH257001   2.311   2.665  14.885  0.1520 -0.2082 -0.1277
11837TIP3    H157002   2.259   2.719  14.826  0.8048 -0.8604 -1.3220
11837TIP3    H257003   2.294   2.575  14.857  0.3128 -0.5404  0.8106
11838TIP3   OH257004   5.334   4.330   0.446  0.0319  0.4180  0.0354
11838TIP3    H157005   5.282   4.266   0.495  0.6777  0.8032  1.2311
11838TIP3    H257006   5.402   4.278   0.403 -0.4052  0.1092 -0.2989
11839TIP3   OH257007   5.597   4.132   1.879 -0.2881 -0.9005  0.6234
11839TIP3    H157008   5.662   4.137   1.809 -1.0652 -2.8358 -0.2815
11839TIP3    H257009   5.519   4.097   1.836 -2.5490  3.0199  1.2833
11840TIP3   OH257010   5.845   3.228   2.289 -0.1040  0.6926  0.1311
11840TIP3    H157011   5.893   3.308   2.272 -0.9096  0.8545 -1.4593
11840TIP3    H257012   5.871   3.169   2.218  0.7234 -0.5768  1.4571
11841TIP3   OH257013   4.962   2.270   2.349 -0.3090 -0.0756 -0.9405
11841TIP3    H157014   5.046   2.315   2.363  0.2518 -1.4614  0.1301
11841TIP3    H257015   4.980   2.209   2.277  0.0273 -1.4492  0.2879
11842TIP3   OH257016   6.235   3.523   2.744 -0.2864  0.4306  0.0475
11842TIP3    H157017   6.248   3.454   2.809  1.8140  1.0985  0.3713
11842TIP3    H257018   6.174   3.485   2.681  0.5476 -1.5771  0.4140
11843TIP3   OH257019   5.140   4.045   1.637 -0.1972 -0.0295 -0.4649
11843TIP3    H157020   5.068   3.988   1.666 -2.0185  2.9136  1.0572
11843TIP3    H257021   5.129   4.050   1.542 -0.8261 -1.1601 -0.4662
11844TIP3   OH257022   5.589   4.872   0.041 -0.4672  0.4090 -0.1911
11844TIP3    H157023   5.630   4.842  -0.040  1.6711  1.7194  0.3802
11844TIP3    H257024   5.576   4.966   0.028 -0.0914  0.6308  0.9943
11845TIP3   OH257025   6.091   3.522   1.109 -0.2845 -0.3722  0.1895
11845TIP3    H157026   6.040   3.603   1.102 -0.1330 -0.2235  0.7450
11845TIP3    H257027   6.032   3.454   1.079 -0.2969 -0.0111 -0.6163
11846TIP3   OH257028   5.352   1.815  14.543  0.1036 -0.7585 -0.5193
11846TIP3    H157029   5.308   1.825  14.458  1.0435  0.5349 -0.8678
11846TIP3    H257030   5.301   1.869  14.603  0.0549 -0.8427 -0.4842
11847TIP3   OH257031   5.685   1.655  15.852 -0.9178  0.1809  0.0681
11847TIP3    H157032   5.773   1.629  15.825 -1.7700 -2.5367 -0.2125
11847TIP3    H257033   5.691   1.750  15.864  1.1334  0.5598 -3.3078
11848TIP3   OH257034   6.152   4.499   0.048  0.8076 -0.0349  0.5388
11848TIP3    H157035   6.072   4.513  -0.003  0.4317 -1.4236  0.7356
11848TIP3    H257036   6.211   4.567   0.017  0.0916  0.0270 -0.7566
11849TIP3   OH257037   5.324   2.028  15.411  0.1488  0.9587 -1.0874
11849TIP3    H157038   5.272   1.979  15.347  2.0729 -0.7088 -1.3920
11849TIP3    H257039   5.259   2.077  15.461 -1.5141  1.0263 -3.2455
11850TIP3   OH257040   6.500   4.453  15.095 -0.5488  0.1386  0.1496
11850TIP3    H157041   6.417   4.493  15.120 -0.6369  0.5206 -0.7490
11850TIP3    H257042   6.547   4.522  15.048 -0.5943 -0.7227 -1.1947
11851TIP3   OH257043   2.169   0.856   0.206  0.1804  0.2296 -0.1122
11851TIP3    H157044   2.149   0.943   0.243  0.0542  1.0125 -1.9572
11851TIP3    H257045   2.092   0.834   0.154  0.1197 -1.1114  0.5219
11852TIP3   OH257046   0.375   1.325  14.437  0.3612 -0.2685 -0.4037
11852TIP3    H157047   0.400   1.259  14.374  0.3422  0.2507 -0.9593
11852TIP3    H257048   0.374   1.279  14.521  0.8823 -0.8360 -0.7066
11853TIP3   OH257049   2.454   2.728   1.817 -0.6109  0.5434 -0.2287
11853TIP3    H157050   2.532   2.756   1.769 -2.1589 -0.4394 -3.4810
11853TIP3    H257051   2.473   2.638   1.843  0.0065  0.8820  0.4964
11854TIP3   OH257052   7.089   3.678  15.265 -0.0481 -0.4631 -0.2274
11854TIP3    H157053   7.059   3.593  15.296  1.3664 -0.8064  0.2370
11854TIP3    H257054   7.026   3.741  15.301 -2.0490 -1.4494 -1.9356
11855TIP3   OH257055   6.277   4.399   1.103 -0.8135  0.3666  0.0913
11855TIP3    H157056   6.186   4.426   1.095 -1.2276 -0.4142  2.0489
11855TIP3    H257057   6.294   4.351   1.022 -2.8290 -1.4450  0.6922
11856TIP3   OH257058   4.189   4.881  14.518  0.1417 -0.0714 -0.3615
11856TIP3    H157059   4.113   4.828  14.495  0.2255  0.0309 -0.8831
11856TIP3    H257060   4.166   4.922  14.601 -0.5717  0.3318 -0.7493
11857TIP3   OH257061   5.453   4.533   0.046  0.3924 -0.1059 -0.1524
11857TIP3    H157062   5.397   4.611   0.043 -0.0417 -0.3590  1.0308
11857TIP3    H257063   5.411   4.470  -0.012  1.1577  0.8050 -1.7138
11858TIP3   OH257064   7.118   6.135   0.737 -0.2001  0.0172  0.0570
11858TIP3    H157065   7.089   6.210   0.788 -0.2162  0.2922 -0.3531
11858TIP3    H257066   7.070   6.061   0.773  1.4974 -0.1927  1.9890
11859TIP3   OH257067   5.200   4.157   0.604 -0.1303 -0.6759  0.4728
11859TIP3    H157068   5.126   4.097   0.598 -0.9115  0.1421  1.6554
11859TIP3    H257069   5.248   4.127   0.681 -0.3646  0.0309  0.8968
11860TIP3   OH257070   1.039   0.645  15.070  0.2751  0.4789  0.0500
11860TIP3    H157071   1.094   0.699  15.013 -0.5920 -0.9033 -2.1486
11860TIP3    H257072   0.969   0.704  15.099 -1.0795  0.4187 -2.9248
11861TIP3   OH257073   6.421   1.205   2.980  0.3191 -0.0862  0.2791
11861TIP3    H157074   6.331   1.188   2.952  2.1302 -2.0121 -4.8696
11861TIP3    H257075   6.436   1.296   2.955  0.5108 -0.4807 -1.1010
11862TIP3   OH257076   6.037   1.640  15.139 -0.1897 -0.2774  0.1088
11862TIP3    H157077   6.106   1.582  15.107  0.9958  1.8693 -1.3686
11862TIP3    H257078   6.072   1.676  15.220 -0.8067 -1.3867  0.8777
11863TIP3   OH257079   6.401   5.498  15.792  0.6688  0.4958  0.4270
11863TIP3    H157080   6.440   5.491  15.879  0.7254  1.5216  0.4944
11863TIP3    H257081   6.465   5.459  15.733  0.2403 -1.0127  0.9450
11864TIP3   OH257082   6.424   1.528  14.370 -0.0442 -0.1956  0.4658
11864TIP3    H157083   6.510   1.497  14.397  1.4475  3.1874 -0.1749
11864TIP3    H257084   6.395   1.583  14.442  0.0772  1.7909 -0.9703
11865TIP3   OH257085   6.199   3.585   1.348  0.4225 -0.0304 -0.5496
11865TIP3    H157086   6.184   3.533   1.268 -2.1047 -0.2601  0.0372
11865TIP3    H257087   6.268   3.646   1.324  1.2271 -1.5600 -2.2486
11866TIP3   OH257088   3.921   4.380   1.932 -0.0462  0.7969  0.1970
11866TIP3    H157089   3.869   4.393   1.853 -1.3869  1.6183  1.1833
11866TIP3    H257090   3.957   4.292   1.924 -2.4544 -0.1975 -0.0428
11867TIP3   OH257091   0.289   2.007   0.677  0.2090 -0.4914  0.4461
11867TIP3    H157092   0.350   2.078   0.661 -1.1553  0.3201 -1.3815
11867TIP3    H257093   0.324   1.933   0.629  0.7591 -0.5944  0.9983
11868TIP3   OH257094   1.519   2.969   1.372  0.3076  0.1772  0.4273
11868TIP3    H157095   1.567   2.989   1.292 -0.0264  2.3826  0.7449
11868TIP3    H257096   1.586   2.963   1.440  0.5491 -1.2715  0.0697
11869TIP3   OH257097   6.870   3.003   3.576 -0.4175  1.1480 -0.0293
11869TIP3    H157098   6.884   2.999   3.670 -1.0023 -1.5463 -0.0212
11869TIP3    H257099   6.958   3.005   3.539 -0.1216 -0.7544  0.5120
11870TIP3   OH257100   6.259   7.229   2.811 -0.3268  0.1490  0.3852
11870TIP3    H157101   6.213   7.307   2.782  1.9154  0.9753 -1.1309
11870TIP3    H257102   6.238   7.221   2.904 -1.3083  2.0143  0.3364
11871TIP3   OH257103   1.369   4.063  13.027  0.3578  0.0639 -0.4073
11871TIP3    H157104   1.334   4.130  13.086 -0.7331  0.7373 -1.7725
11871TIP3    H257105   1.414   4.113  12.959  1.4305 -0.6925 -0.2582
11872TIP3   OH257106   6.860   3.751   0.784  0.1466 -0.0393  0.1349
11872TIP3    H157107   6.777   3.789   0.811 -0.7280 -1.0999 -0.9904
11872TIP3    H257108   6.837   3.665   0.748  1.6259 -0.0175 -0.9362
11873TIP3   OH257109   5.553   2.862   2.278 -1.0485  0.4203 -0.0055
11873TIP3    H157110   5.520   2.867   2.367 -1.2395  0.3847 -0.0731
11873TIP3    H257111   5.474   2.860   2.223 -0.9339  1.1244 -0.2123
11874TIP3   OH257112   5.524   4.632   2.221 -1.2466 -0.6303 -0.1878
11874TIP3    H157113   5.535   4.713   2.173 -2.4293 -0.2859  0.0896
11874TIP3    H257114   5.613   4.604   2.243 -0.8501  0.7706  0.0258
11875TIP3   OH257115   4.851   1.031  15.809 -0.1777  0.5370 -0.4584
11875TIP3    H157116   4.887   0.964  15.868 -0.4484  1.9975  1.4228
11875TIP3    H257117   4.926   1.087  15.788 -0.3158  0.6701 -0.5967
11876TIP3   OH257118   3.796   2.514   1.617 -0.1577  0.0295  0.4541
11876TIP3    H157119   3.773   2.444   1.555 -0.4926  0.6856 -0.1726
11876TIP3    H257120   3.712   2.541   1.655 -0.1274  0.6594  0.0783
11877TIP3   OH257121   5.628   3.397   0.189  0.1360  0.1326  0.0869
11877TIP3    H157122   5.637   3.467   0.254 -0.9741  0.2280  0.1543
11877TIP3    H257123   5.688   3.421   0.119 -0.1259  1.0755  0.1833
11878TIP3   OH257124   7.024   2.962  15.899 -0.0770 -0.0764 -0.1240
11878TIP3    H157125   7.032   2.932  15.989 -0.7421 -0.6358 -0.2448
11878TIP3    H257126   6.989   3.051  15.906 -2.3667 -0.9617  0.1184
11879TIP3   OH257127   1.092   2.345   1.795 -0.4208  0.3886  0.6150
11879TIP3    H157128   1.172   2.304   1.829 -0.4536  0.2698  0.5498
11879TIP3    H257129   1.021   2.299   1.840 -0.5426 -1.1846 -1.1179
11880TIP3   OH257130   6.690   2.483  15.916 -1.2642  0.0397 -0.3893
11880TIP3    H157131   6.677   2.442  15.831 -3.0681  1.1037 -0.6477
11880TIP3    H257132   6.623   2.445  15.972 -0.5373 -0.1341  0.3848
11881TIP3   OH257133   4.569   3.712   1.143 -0.0074  0.2518 -0.1124
11881TIP3    H157134   4.548   3.620   1.135  0.9337  0.1025 -1.0687
11881TIP3    H257135   4.553   3.748   1.056  1.0347  0.6792 -0.1359
11882TIP3   OH257136   6.232   3.186  15.131  0.0942  0.4006  0.5466
11882TIP3    H157137   6.185   3.269  15.141  0.2940  0.6800 -0.7770
11882TIP3    H257138   6.325   3.210  15.138  0.1424  0.2450  0.4412
11883TIP3   OH257139   0.612   3.419   1.773  0.0457 -0.1840  0.1671
11883TIP3    H157140   0.694   3.468   1.763 -0.2454  0.2560 -0.1162
11883TIP3    H257141   0.544   3.483   1.751 -0.3966 -0.4244  0.8387
11884TIP3   OH257142   6.649   3.933   0.797 -0.3666 -0.4556 -0.2751
11884TIP3    H157143   6.675   4.010   0.847 -1.4989 -0.2227 -0.0201
11884TIP3    H257144   6.567   3.905   0.838  0.7672 -2.6432  0.5492
11885TIP3   OH257145   4.294   1.404   1.729 -0.5870  0.3672 -0.0087
11885TIP3    H157146   4.246   1.322   1.714  0.0729  0.1996 -1.3113
11885TIP3    H257147   4.274   1.427   1.819 -3.0824  0.2780 -0.4924
11886TIP3   OH257148   0.006   3.608  15.264  0.2080  0.1476 -0.0130
11886TIP3    H157149  -0.077   3.653  15.275  0.1689 -0.1259  0.9183
11886TIP3    H257150   0.012   3.550  15.341  0.6184 -0.8446 -0.7799
11887TIP3   OH257151   6.208   4.185  14.511 -0.3875 -0.3459  0.2809
11887TIP3    H157152   6.256   4.226  14.584 -1.7344  3.8466 -1.0407
11887TIP3    H257153   6.126   4.155  14.550 -0.7236  1.1039  0.7526
11888TIP3   OH257154   4.292   1.939   1.003 -0.7076  0.3005 -0.2112
11888TIP3    H157155   4.339   1.994   1.065 -1.5915  1.5120 -0.6033
11888TIP3    H257156   4.360   1.910   0.941 -0.4626  2.0732 -0.8022
11889TIP3   OH257157   6.233   0.505   1.146  0.1508  0.3483  0.7307
11889TIP3    H157158   6.315   0.500   1.195  0.8549  1.5741 -0.3024
11889TIP3    H257159   6.244   0.442   1.074  0.0144  0.2209  0.8195
11890TIP3   OH257160   0.502   0.970  15.170 -0.6205 -0.1640  0.3129
11890TIP3    H157161   0.496   0.888  15.220 -1.3794 -0.1945  0.1872
11890TIP3    H257162   0.438   1.028  15.212 -2.8238 -0.8824 -1.8876
11891TIP3   OH257163   4.487   2.696  15.162 -0.0381  0.1257  0.4606
11891TIP3    H157164   4.405   2.667  15.122 -0.6948 -0.4034  2.1611
11891TIP3    H257165   4.554   2.643  15.118 -0.7654 -0.6115  0.2135
11892TIP3   OH257166   3.870   2.244   0.288  0.3220 -0.6628 -0.0357
11892TIP3    H157167   3.784   2.257   0.247  0.4045  0.0848  0.0343
11892TIP3    H257168   3.932   2.263   0.218  0.4349 -1.3069 -0.1160
11893TIP3   OH257169   6.603   3.335   1.732  0.6381 -0.2908  0.3180
11893TIP3    H157170   6.572   3.345   1.642  1.4584 -1.8600 -0.1499
11893TIP3    H257171   6.698   3.331   1.725  0.8450  1.8691  1.5009
11894TIP3   OH257172   6.145   2.349  14.841 -0.1834  0.0697  0.0856
11894TIP3    H157173   6.084   2.412  14.878 -2.0518 -1.2290 -0.7066
11894TIP3    H257174   6.150   2.279  14.906  0.4050  0.1275  0.1081
11895TIP3   OH257175   0.203   5.938  14.971 -0.1802  0.4491  0.3585
11895TIP3    H157176   0.188   6.023  14.928  0.4819  0.1558 -0.4640
11895TIP3    H257177   0.159   5.946  15.055  0.1056  1.7185  0.4002
11896TIP3   OH257178   7.132   3.149   3.542 -0.3265 -0.5202 -0.0226
11896TIP3    H157179   7.153   3.106   3.625 -0.0516 -0.8507 -0.2637
11896TIP3    H257180   7.132   3.243   3.563  2.2494 -0.4373 -0.1955
11897TIP3   OH257181   4.749   3.997   1.177 -0.5132  0.4973 -0.2442
11897TIP3    H157182   4.766   3.951   1.259 -1.8301  0.1174 -0.1745
11897TIP3    H257183   4.811   3.959   1.115 -0.1541  0.1171  0.3445
11898TIP3   OH257184   4.147   5.009   0.330  0.4163  0.0243 -0.7795
11898TIP3    H157185   4.212   5.058   0.279  0.9603 -0.3984 -0.4799
11898TIP3    H257186   4.192   4.931   0.359 -0.2367 -0.2883 -0.5966
11899TIP3   OH257187   0.088   0.559   1.300 -0.3541 -0.5098  0.5081
11899TIP3    H157188   0.048   0.637   1.261  1.3469 -0.7052 -1.7327
11899TIP3    H257189   0.058   0.487   1.245  0.4655 -1.0424  0.7449
11900TIP3   OH257190   5.749   1.448   1.167  0.3674  0.4905 -0.8421
11900TIP3    H157191   5.655   1.465   1.174  0.2698 -0.2770 -0.2210
11900TIP3    H257192   5.772   1.476   1.078 -0.2175  1.7404 -0.6102
11901TIP3   OH257193   6.910   3.670   1.265  0.3602 -0.1481 -0.1659
11901TIP3    H157194   6.846   3.603   1.290  1.1739 -0.7760  0.2852
11901TIP3    H257195   6.940   3.643   1.179  0.1322  0.0629 -0.3122
11902TIP3   OH257196   0.039   1.077  15.007 -0.6161 -0.2782 -0.2701
11902TIP3    H157197   0.119   1.024  15.000 -0.1863 -0.0139  2.1641
11902TIP3    H257198  -0.029   1.024  14.966  0.7855 -0.5328 -2.3344
11903TIP3   OH257199   6.845   3.136   2.420 -0.1905  0.2362  0.4977
11903TIP3    H157200   6.860   3.045   2.444 -0.1172  0.1429  0.1062
11903TIP3    H257201   6.905   3.152   2.347 -1.9361 -0.1393 -1.0856
11904TIP3   OH257202   6.560   7.197  15.194 -0.1225 -0.6954 -0.1754
11904TIP3    H157203   6.480   7.146  15.184  0.2643 -1.0785 -1.4507
11904TIP3    H257204   6.532   7.288  15.187 -0.3886 -0.8427 -1.0901
11905TIP3   OH257205   6.346   3.100   1.973  0.4433  0.2635  0.2850
11905TIP3    H157206   6.388   3.028   1.925 -0.3569  0.8527 -1.3515
11905TIP3    H257207   6.416   3.139   2.025  1.1745 -0.8557  0.1578
11906TIP3   OH257208   6.021   4.157  15.665 -0.6154 -0.2130 -0.2247
11906TIP3    H157209   6.020   4.094  15.737 -0.2707 -0.8107 -0.7449
11906TIP3    H257210   6.077   4.118  15.599 -1.9260 -0.2444 -1.3394
11907TIP3   OH257211   5.485   3.470   2.855 -0.4406 -0.0673  0.2012
11907TIP3    H157212   5.547   3.536   2.885  1.4874 -0.6474 -2.2925
11907TIP3    H257213   5.404   3.519   2.841  0.0737  1.1548  1.3711
11908TIP3   OH257214   6.292   2.659   2.270  0.0591  0.3643  0.4764
11908TIP3    H157215   6.369   2.711   2.245 -1.4841  2.1585 -0.7021
11908TIP3    H257216   6.268   2.692   2.356 -1.6777  2.6060 -0.8002
11909TIP3   OH257217   6.818   4.779   2.570  0.3956  0.0943 -0.2637
11909TIP3    H157218   6.730   4.801   2.538  0.3309  0.0747 -0.0964
11909TIP3    H257219   6.822   4.683   2.564 -0.0775 -0.0078  1.0068
11910TIP3   OH257220   1.183   3.948   1.163 -0.2146  0.0353  0.0889
11910TIP3    H157221   1.175   3.988   1.249  0.8524 -1.8491  1.1066
11910TIP3    H257222   1.099   3.964   1.121 -0.6276  1.2579  1.3595
11911TIP3   OH257223   1.875   4.477   1.734  0.8510  0.8477  0.7474
11911TIP3    H157224   1.791   4.447   1.769  1.7107  0.1742  2.2597
11911TIP3    H257225   1.930   4.491   1.811  2.0313  1.5981 -0.2165
11912TIP3   OH257226   5.627   1.247  15.383  0.3824  0.0525 -0.1765
11912TIP3    H157227   5.594   1.225  15.296  2.7784 -0.1763 -1.0659
11912TIP3    H257228   5.691   1.316  15.368 -0.5027  1.3045  1.6268
11913TIP3   OH257229   5.799   2.954  14.572 -0.2623 -0.0589  0.7501
11913TIP3    H157230   5.769   2.897  14.644 -1.5733  1.2256  1.2449
11913TIP3    H257231   5.894   2.957  14.583 -0.4802  0.5801  2.8165
11914TIP3   OH257232   7.079   3.931   1.064 -0.0435 -0.5836  0.0972
11914TIP3    H157233   6.999   3.924   1.116  0.0456  1.3013  0.5002
11914TIP3    H257234   7.051   3.911   0.974 -0.8525 -0.4979  0.3309
11915TIP3   OH257235   6.062   4.659   0.692 -0.1087  0.8306 -0.5572
11915TIP3    H157236   5.979   4.650   0.739  0.1780  1.1195  0.0071
11915TIP3    H257237   6.077   4.753   0.687  0.8574  0.7491  0.5429
11916TIP3   OH257238   4.820   0.165   2.453  0.1321 -0.1990  1.0063
11916TIP3    H157239   4.841   0.094   2.513 -0.7762  0.7324  2.4598
11916TIP3    H257240   4.728   0.186   2.472  0.3968  1.3891  0.6396
11917TIP3   OH257241   0.697   2.358   2.576 -0.8495  0.1471 -0.0700
11917TIP3    H157242   0.783   2.357   2.618 -0.7322 -0.1679 -0.3134
11917TIP3    H257243   0.716   2.350   2.483 -1.0910  1.3002 -0.2184
11918TIP3   OH257244   6.516   3.279   1.468  0.8041  0.1833 -0.3157
11918TIP3    H157245   6.587   3.280   1.404 -0.2542  0.4943 -1.5135
11918TIP3    H257246   6.483   3.369   1.468  2.7169  0.9349  2.8859
11919TIP3   OH257247   5.995   5.339   1.961  0.3438  0.1665 -0.1198
11919TIP3    H157248   5.910   5.295   1.962 -0.4910  1.7364 -0.2348
11919TIP3    H257249   5.996   5.391   2.041  1.9178 -1.1342  0.7513
11920TIP3   OH257250   4.442   3.551   0.140 -0.0290 -0.7473 -0.2907
11920TIP3    H157251   4.390   3.516   0.212  1.6325 -0.7479  0.9364
11920TIP3    H257252   4.425   3.645   0.142 -0.0560 -0.7592  0.0378
11921TIP3   OH257253   5.053   4.074   2.347 -0.0415 -0.1936 -0.6454
11921TIP3    H157254   5.107   4.152   2.345  0.0671 -0.2834 -1.3313
11921TIP3    H257255   5.090   4.017   2.279 -1.2011 -0.1070 -1.3734
11922TIP3   OH257256   4.634   5.028  15.261  0.7591  0.1169 -0.2258
11922TIP3    H157257   4.670   4.969  15.328  0.6647 -0.7855 -0.9640
11922TIP3    H257258   4.543   5.002  15.252  0.4493  1.0368  0.1497
11923TIP3   OH257259   6.918   2.914  14.626  0.1977  0.0148  0.2286
11923TIP3    H157260   6.856   2.869  14.682  0.1612 -1.0075 -0.6150
11923TIP3    H257261   6.863   2.956  14.559  0.3802 -0.4199 -0.1913
11924TIP3   OH257262   4.552   3.731  15.801  0.6891 -0.4143 -0.0962
11924TIP3    H157263   4.497   3.659  15.834 -0.1472  0.3130  0.1228
11924TIP3    H257264   4.535   3.803  15.862  2.0568 -0.2460  0.0882
11925TIP3   OH257265   5.462   2.871   2.539 -0.8245  0.1134 -0.2106
11925TIP3    H157266   5.509   2.931   2.596 -0.1943 -0.1047 -0.4911
11925TIP3    H257267   5.370   2.887   2.557 -0.6368  0.4063  0.4930
11926TIP3   OH257268   6.716   2.134  15.634  0.0583 -0.2331 -0.5606
11926TIP3    H157269   6.805   2.144  15.669 -0.4089 -1.5618  1.1090
11926TIP3    H257270   6.664   2.195  15.685 -0.3481 -1.0189 -0.0177
11927TIP3   OH257271   6.342   3.201  15.953 -0.0161  0.2512 -0.6498
11927TIP3    H157272   6.316   3.229  16.041  1.7670 -1.2484  0.3935
11927TIP3    H257273   6.430   3.237  15.942  0.1145 -0.3136 -1.4559
11928TIP3   OH257274   4.453   2.513   1.404  0.0266  0.4852 -0.1816
11928TIP3    H157275   4.409   2.553   1.329  1.5232  2.0016 -0.2879
11928TIP3    H257276   4.491   2.587   1.452  0.4651 -0.5975  1.1724
11929TIP3   OH257277   6.821   1.622   1.802  0.2467  0.3116  0.2051
11929TIP3    H157278   6.767   1.544   1.787  0.9924 -0.0635 -0.5688
11929TIP3    H257279   6.774   1.692   1.758  0.2524  0.0398 -0.2328
11930TIP3   OH257280   1.437   1.878   0.297  0.5734  0.2604  0.1036
11930TIP3    H157281   1.448   1.971   0.276 -0.5047  0.1936 -0.7772
11930TIP3    H257282   1.347   1.871   0.327  1.0550 -0.2685  1.4766
11931TIP3   OH257283   6.337   4.791  15.418 -0.0571  0.0898  0.3759
11931TIP3    H157284   6.366   4.850  15.348  0.1753  0.4380  0.7665
11931TIP3    H257285   6.352   4.839  15.499 -0.6996 -0.1592  0.6525
11932TIP3   OH257286   0.300   2.198  15.643  0.0828 -0.3387  0.0645
11932TIP3    H157287   0.216   2.153  15.637  0.0957 -0.3945  0.2953
11932TIP3    H257288   0.283   2.286  15.611 -0.0075 -0.4240 -0.1218
11933TIP3   OH257289   6.623   0.517   0.461 -0.1179 -0.3789  0.5720
11933TIP3    H157290   6.667   0.528   0.377  0.1680  0.0873  0.7831
11933TIP3    H257291   6.530   0.523   0.439 -0.0176  0.6677  0.4230
11934TIP3   OH257292   0.845   3.022  14.820  0.1600 -0.6107  0.0080
11934TIP3    H157293   0.831   2.928  14.825  0.9731 -0.7934 -1.1064
11934TIP3    H257294   0.823   3.046  14.730  2.0090 -0.0840 -0.3179
11935TIP3   OH257295   5.999   2.609   2.750  0.1583 -0.3316 -0.0568
11935TIP3    H157296   5.941   2.566   2.687  0.2360 -0.4132 -0.0725
11935TIP3    H257297   5.973   2.575   2.835  0.2494 -0.4411 -0.0741
11936TIP3   OH257298   4.582   1.547  14.664 -0.1448 -0.1647 -0.1754
11936TIP3    H157299   4.632   1.559  14.583 -0.4151 -1.0310 -0.4785
11936TIP3    H257300   4.648   1.551  14.734 -0.0191  1.3297 -0.3810
11937TIP3   OH257301   6.962   2.897   4.706  0.3745  0.4066 -0.3369
11937TIP3    H157302   7.014   2.851   4.640  2.9144  2.3378  0.2418
11937TIP3    H257303   6.928   2.827   4.763  0.7349 -1.0323 -1.8478
11938TIP3   OH257304   6.418   3.524  15.128  0.3059 -0.2074  0.1226
11938TIP3    H157305   6.426   3.505  15.221  1.2513 -2.7156 -0.4281
11938TIP3    H257306   6.326   3.548  15.116  0.1868  0.2004  1.6841
11939TIP3   OH257307   7.066   3.351   0.196  0.0240 -0.2222 -0.4802
11939TIP3    H157308   7.104   3.437   0.180  0.9160 -0.5540 -0.2021
11939TIP3    H257309   7.134   3.289   0.170 -0.0929 -0.8204  0.5787
11940TIP3   OH257310   4.340   5.364   4.074  0.0780 -0.3024  0.1738
11940TIP3    H157311   4.293   5.444   4.050 -2.5691 -1.0846  2.5837
11940TIP3    H257312   4.274   5.295   4.071  1.3297 -1.6617  2.3661
11941TIP3   OH257313   4.616   5.608   3.542 -0.1661  0.2142 -0.0803
11941TIP3    H157314   4.603   5.703   3.539  1.7299  0.5333  0.6381
11941TIP3    H257315   4.547   5.577   3.601 -1.8860  0.9069 -1.6781
11942TIP3   OH257316   6.689   4.179   1.266  0.3486 -0.3308 -0.0404
11942TIP3    H157317   6.773   4.224   1.264  0.2643 -0.0663  1.6984
11942TIP3    H257318   6.710   4.087   1.248  1.1510 -0.4365  1.3667
11943TIP3   OH257319   2.213   3.937   2.070 -0.3409 -0.3594  0.8321
11943TIP3    H157320   2.251   3.857   2.033  1.4282  0.4683  0.8459
11943TIP3    H257321   2.280   3.971   2.129 -1.6209  0.4172  1.8667
11944TIP3   OH257322   0.634   3.510   1.275  0.1906 -0.5379  0.6166
11944TIP3    H157323   0.560   3.500   1.335  0.2165  0.1764  0.7753
11944TIP3    H257324   0.711   3.510   1.332  0.3460 -1.7482  0.4093
11945TIP3   OH257325   5.627   4.924   1.619 -0.4309  0.4761 -0.4489
11945TIP3    H157326   5.555   4.927   1.555 -0.0741 -0.1929 -0.8877
11945TIP3    H257327   5.590   4.876   1.693 -1.4519  2.8635  0.6387
11946TIP3   OH257328   7.297   2.350  15.334 -0.2790  0.0713 -0.0759
11946TIP3    H157329   7.386   2.373  15.306 -0.0494 -1.2867 -0.4982
11946TIP3    H257330   7.308   2.268  15.383 -1.1823  0.3966  0.6907
11947TIP3   OH257331   5.260   1.606   1.848  0.4452 -0.1221  0.5222
11947TIP3    H157332   5.305   1.522   1.846  1.3560  0.3788 -1.6405
11947TIP3    H257333   5.171   1.584   1.877  0.7008 -1.8195  0.1079
11948TIP3   OH257334   0.499   4.928   1.129  0.3696  0.5264 -0.0079
11948TIP3    H157335   0.519   5.011   1.170  2.1480 -0.0003  0.2055
11948TIP3    H257336   0.563   4.919   1.059 -0.3967 -0.2308 -0.6259
11949TIP3   OH257337   6.203   4.052   5.332 -0.1454  0.5631  0.0750
11949TIP3    H157338   6.168   4.053   5.242  0.3730  0.4566 -0.1265
11949TIP3    H257339   6.200   4.144   5.359  0.4373  0.7026 -0.3369
11950TIP3   OH257340   6.589   5.682   2.003 -0.5316 -0.1777 -0.0912
11950TIP3    H157341   6.511   5.689   2.058 -0.4618 -1.9517  0.2631
11950TIP3    H257342   6.558   5.642   1.922 -0.2735  0.6027 -0.5796
11951TIP3   OH257343   6.683   4.565   0.513  0.2223 -0.4182 -0.1297
11951TIP3    H157344   6.606   4.521   0.476 -0.1017 -0.3811  0.4927
11951TIP3    H257345   6.752   4.551   0.448  0.0180 -1.4907 -0.1269
11952TIP3   OH257346   1.444   4.344  15.155 -0.5224  0.0963 -0.9768
11952TIP3    H157347   1.452   4.270  15.095 -1.0704  0.0392 -0.9757
11952TIP3    H257348   1.402   4.412  15.103  0.7610  0.7125 -1.2468
11953TIP3   OH257349   6.042   4.139   0.514 -0.0500 -0.4463  0.1727
11953TIP3    H157350   5.985   4.201   0.560  0.9906  0.3629  0.3749
11953TIP3    H257351   6.097   4.193   0.458 -0.3403 -1.3221 -1.0003
11954TIP3   OH257352   3.899   5.655  14.807  0.2027 -0.2622  0.5343
11954TIP3    H157353   3.869   5.746  14.808  1.1482  0.0627 -0.1002
11954TIP3    H257354   3.857   5.616  14.884 -1.9871  0.1171 -0.4143
11955TIP3   OH257355   6.422   2.673   1.118 -0.0027  0.7531 -0.6860
11955TIP3    H157356   6.450   2.734   1.050 -1.4793  1.6535 -0.5291
11955TIP3    H257357   6.329   2.694   1.131 -0.9021 -2.4072 -1.5441
11956TIP3   OH257358   5.186   3.321   0.052 -0.4227 -0.2979  0.0958
11956TIP3    H157359   5.265   3.310   0.106 -0.0657 -1.1050 -0.5693
11956TIP3    H257360   5.159   3.411   0.067  0.3972 -0.1334  0.6494
11957TIP3   OH257361   0.006   2.089   1.630  0.4067  0.1542 -0.0661
11957TIP3    H157362   0.024   2.004   1.590 -3.0467 -0.5579 -0.2882
11957TIP3    H257363  -0.029   2.142   1.559 -2.0517  0.1384  1.0611
11958TIP3   OH257364   5.662   3.512   1.792  0.3455 -0.3751  0.1453
11958TIP3    H157365   5.605   3.443   1.757 -0.1513 -0.9958  2.1076
11958TIP3    H257366   5.751   3.480   1.776  0.1401 -0.5173 -0.7640
11959TIP3   OH257367   4.830   4.423   2.129 -0.0160 -0.1617  0.3500
11959TIP3    H157368   4.747   4.455   2.093 -0.6758 -0.5684  1.4825
11959TIP3    H257369   4.814   4.416   2.223  0.7099 -2.0217  0.3561
11960TIP3   OH257370   5.739   4.373   0.813  0.5514 -0.4740  0.4859
11960TIP3    H157371   5.781   4.298   0.856 -0.2429 -1.6873 -0.7878
11960TIP3    H257372   5.646   4.362   0.831  0.5418  0.8348  1.2316
11961TIP3   OH257373   0.062   0.323   1.080 -0.7212  0.1032 -0.1535
11961TIP3    H157374   0.017   0.255   1.030 -1.8025  1.4440 -1.0496
11961TIP3    H257375   0.155   0.303   1.070 -1.0514 -1.7121  0.2959
11962TIP3   OH257376   5.536   3.374  15.459 -0.1872  0.0604 -0.3678
11962TIP3    H157377   5.462   3.335  15.506  0.8083 -2.8627 -1.0761
11962TIP3    H257378   5.611   3.323  15.488  0.9589  0.4597 -2.5571
11963TIP3   OH257379   7.174   2.274  15.702 -0.4017 -0.1927  0.6459
11963TIP3    H157380   7.098   2.221  15.677  0.3441 -1.4874  1.0604
11963TIP3    H257381   7.172   2.275  15.798  0.9089 -1.4552  0.7032
11964TIP3   OH257382   6.970   2.785  15.051 -0.2249  0.4230 -0.0513
11964TIP3    H157383   6.879   2.761  15.069 -0.0382 -0.5507 -0.3853
11964TIP3    H257384   7.009   2.796  15.138 -0.2131 -0.8921  0.1174
11965TIP3   OH257385   0.605   2.627   1.549 -0.2769 -0.5151 -0.2446
11965TIP3    H157386   0.673   2.695   1.549 -0.4911 -0.2941 -0.9182
11965TIP3    H257387   0.528   2.669   1.586  0.3930 -1.2380  2.0774
11966TIP3   OH257388   0.183   1.772   1.760 -0.1027 -0.2606 -0.0608
11966TIP3    H157389   0.219   1.852   1.797  0.7568  0.5789 -2.6301
11966TIP3    H257390   0.088   1.781   1.773 -0.1107  1.6673 -1.2523
11967TIP3   OH257391   5.028   4.469   1.029 -0.6194 -0.3474 -0.0472
11967TIP3    H157392   5.036   4.446   0.936 -3.0855 -0.3791 -0.2920
11967TIP3    H257393   5.047   4.562   1.033 -0.4913 -0.3477 -0.5937
11968TIP3   OH257394   6.029   5.085  15.703 -0.3144 -0.4967 -0.0353
11968TIP3    H157395   5.960   5.084  15.769  1.6287 -0.8361  2.0397
11968TIP3    H257396   6.050   5.178  15.691  0.4432 -0.5164  1.0511
11969TIP3   OH257397   5.762   2.117  15.517 -1.1026  0.0864 -0.3153
11969TIP3    H157398   5.738   2.192  15.462 -0.5883  0.4537 -0.0415
11969TIP3    H257399   5.745   2.147  15.606 -1.4600 -0.3343 -0.2412
11970TIP3   OH257400   5.107   4.930  15.803 -0.8727 -0.2710 -0.0213
11970TIP3    H157401   5.173   4.999  15.811 -0.3666 -0.7663  0.0598
11970TIP3    H257402   5.025   4.978  15.791 -0.4508  0.3400 -0.5279
11971TIP3   OH257403   0.550   3.251   2.223 -0.1221  0.2314 -0.0275
11971TIP3    H157404   0.583   3.237   2.134 -0.1326  1.8458 -0.2920
11971TIP3    H257405   0.620   3.298   2.267  0.0786 -0.9742  0.9765
11972TIP3   OH257406   6.538   2.884   1.921  0.4710  0.2458 -0.5132
11972TIP3    H157407   6.623   2.867   1.961 -0.6084 -1.9413  0.9404
11972TIP3    H257408   6.516   2.802   1.875 -0.3472  1.1769 -1.8292
11973TIP3   OH257409   6.084   0.729   0.595  0.4405 -0.3072 -0.1294
11973TIP3    H157410   6.135   0.665   0.545  1.7863 -0.3969  1.3219
11973TIP3    H257411   6.098   0.704   0.687 -0.9884  0.6035  0.3437
11974TIP3   OH257412   0.840   3.644   1.064 -0.0897 -0.3380 -0.1260
11974TIP3    H157413   0.933   3.628   1.048 -0.0805 -0.1176 -0.2981
11974TIP3    H257414   0.819   3.590   1.140  0.0002 -0.9593 -0.5372
11975TIP3   OH257415   6.195   2.959   0.092 -0.3802 -0.2336 -0.3134
11975TIP3    H157416   6.251   2.910   0.032 -0.2539  1.1267 -1.3537
11975TIP3    H257417   6.186   2.904   0.169  0.3626 -1.5375 -1.1570
11976TIP3   OH257418   1.445   2.740   1.834 -0.3814  0.3121 -0.3322
11976TIP3    H157419   1.498   2.820   1.825 -0.4939  0.5356  0.8907
11976TIP3    H257420   1.373   2.766   1.892  0.8866 -1.2971  2.0432
11977TIP3   OH257421   1.752   0.375   0.804  0.1062 -0.2007 -0.3072
11977TIP3    H157422   1.763   0.469   0.789 -0.4158 -0.1511 -0.3656
11977TIP3    H257423   1.834   0.336   0.771  1.1675  0.4232  1.5628
11978TIP3   OH257424   5.851   3.284   1.400  0.1092  0.3242 -0.5368
11978TIP3    H157425   5.940   3.315   1.382  0.0271  2.4578  2.4344
11978TIP3    H257426   5.862   3.191   1.421  1.6952  0.6315  0.1103
11979TIP3   OH257427   7.000   1.297   2.084 -0.5396 -0.1707 -0.4339
11979TIP3    H157428   7.067   1.348   2.130 -0.2645  0.4756 -1.5425
11979TIP3    H257429   7.016   1.207   2.112  0.2578  0.0858 -0.0330
11980TIP3   OH257430   4.602   3.974   1.575  0.2305 -0.3891  0.5050
11980TIP3    H157431   4.679   3.946   1.624  1.4990  2.1153  0.0451
11980TIP3    H257432   4.562   4.041   1.630  0.6794  1.1878 -1.0311
11981TIP3   OH257433   1.129   4.261   1.324 -0.3035 -0.0977 -0.2657
11981TIP3    H157434   1.196   4.196   1.345 -0.5562  0.0326  1.0132
11981TIP3    H257435   1.174   4.323   1.266  0.9040  0.3440  1.0798
11982TIP3   OH257436   4.987   0.986   1.147  0.0340 -0.0166 -0.5559
11982TIP3    H157437   4.906   0.935   1.147  1.1058 -1.7454  0.0726
11982TIP3    H257438   5.021   0.977   1.058 -0.5667  0.8958 -0.8842
11983TIP3   OH257439   5.329   2.492   0.421 -0.7755 -0.2265 -0.1803
11983TIP3    H157440   5.287   2.476   0.336 -0.2837  0.6742 -0.6088
11983TIP3    H257441   5.296   2.424   0.478 -1.2901 -0.7088 -1.0477
11984TIP3   OH257442   6.140   4.047  15.398 -0.4649  0.1365  0.6195
11984TIP3    H157443   6.202   4.014  15.463  1.2616 -2.4161 -2.1762
11984TIP3    H257444   6.174   4.133  15.373  0.6832 -0.2606  0.7904
11985TIP3   OH257445   7.174   2.844   2.775  0.0360  0.6882  0.3916
11985TIP3    H157446   7.267   2.857   2.790  0.2087  1.6066 -1.4260
11985TIP3    H257447   7.169   2.772   2.713 -0.4165  1.4625 -0.4778
11986TIP3   OH257448   5.786   1.233   0.812  0.1857  0.7714 -0.3784
11986TIP3    H157449   5.756   1.307   0.866  0.1983  1.3850 -1.2017
11986TIP3    H257450   5.860   1.197   0.861 -0.9808  0.1391  0.9582
11987TIP3   OH257451   6.508   3.907   2.768 -0.0944  0.1409 -0.3426
11987TIP3    H157452   6.580   3.875   2.822 -0.2734  2.4154  1.3332
11987TIP3    H257453   6.432   3.905   2.826 -1.0673 -0.7098 -1.6104
11988TIP3   OH257454   6.294   4.688  15.867 -0.6955  0.7559  0.7872
11988TIP3    H157455   6.332   4.613  15.820  0.0548  0.2550  2.1487
11988TIP3    H257456   6.200   4.682  15.850 -0.4624  0.4909 -0.4899
11989TIP3   OH257457   0.236   3.118   1.125 -0.0025  0.2993 -0.4372
11989TIP3    H157458   0.306   3.184   1.125  0.4584 -0.1803 -0.1564
11989TIP3    H257459   0.156   3.168   1.113  0.3242  0.9400 -0.0022
11990TIP3   OH257460   0.381   4.234   3.226  0.4485  0.3732 -0.5621
11990TIP3    H157461   0.308   4.175   3.244  2.0405 -1.3113  0.3912
11990TIP3    H257462   0.346   4.295   3.160 -1.5132 -0.9748 -0.8012
11991TIP3   OH257463   6.676   3.260   0.584 -0.4821 -0.2186  1.2707
11991TIP3    H157464   6.599   3.203   0.586 -0.0717 -0.8341  0.2746
11991TIP3    H257465   6.750   3.200   0.572 -0.0419  0.5137  0.1535
11992TIP3   OH257466   4.951   3.247   2.345  0.6270 -0.2848  0.4835
11992TIP3    H157467   4.924   3.249   2.436 -0.7924 -1.9333  0.1262
11992TIP3    H257468   5.045   3.266   2.347  0.7240 -0.8772  2.3411
11993TIP3   OH257469   4.986   4.905   1.848 -0.2486  0.1659 -0.0440
11993TIP3    H157470   5.054   4.838   1.856 -0.2200  0.1649 -0.2889
11993TIP3    H257471   4.904   4.856   1.848 -0.3119  0.2587  1.5466
11994TIP3   OH257472   6.820   3.511   0.615 -0.5011  0.7776 -0.1430
11994TIP3    H157473   6.791   3.423   0.593 -0.2373  0.8037 -0.5879
11994TIP3    H257474   6.833   3.555   0.531  2.6884  0.1750 -0.0305
11995TIP3   OH257475   6.355   6.748   2.262  0.0094  0.5291  0.4392
11995TIP3    H157476   6.323   6.734   2.351  1.4511  1.1492  1.0741
11995TIP3    H257477   6.414   6.823   2.269  0.6900  0.1357 -0.9090
11996TIP3   OH257478   5.945   4.032   2.912 -0.1854  0.8886  0.0157
11996TIP3    H157479   5.904   4.118   2.904 -0.8896  0.6946  1.3262
11996TIP3    H257480   5.983   4.015   2.826 -2.8771  1.0726 -1.2671
11997TIP3   OH257481   3.864   4.466  15.667  0.0052  0.6687 -0.1618
11997TIP3    H157482   3.832   4.497  15.752  0.3171 -1.8869  0.9396
11997TIP3    H257483   3.808   4.392  15.646  0.3927  0.8408 -1.8680
11998TIP3   OH257484   6.772   3.929   2.459 -0.1977 -0.4582  0.4251
11998TIP3    H157485   6.741   3.838   2.467  0.8147 -0.8809 -0.3724
11998TIP3    H257486   6.865   3.924   2.480 -0.1457  0.4112  0.4028
11999TIP3   OH257487   5.600   2.820  15.535 -0.1369 -0.0998 -0.3069
11999TIP3    H157488   5.548   2.761  15.480 -1.2299  1.0564 -0.5627
11999TIP3    H257489   5.557   2.818  15.620 -0.6559  0.8863 -0.5277
12000TIP3   OH257490   1.182   3.449  15.791  0.7538  0.0534  0.8896
12000TIP3    H157491   1.164   3.404  15.709  1.3055 -0.0283  0.8101
12000TIP3    H257492   1.111   3.512  15.800  0.3729 -0.3411  0.6444
12001TIP3   OH257493   0.901   3.475  14.355  0.1906  0.5764  0.3005
12001TIP3    H157494   0.811   3.475  14.321  0.2280 -0.4845  0.1607
12001TIP3    H257495   0.956   3.485  14.277  0.2372 -0.6573  0.1508
12002TIP3   OH257496   5.233   2.389   2.341 -0.0707  0.1096  0.4254
12002TIP3    H157497   5.253   2.428   2.427  1.0455  0.6360 -0.0595
12002TIP3    H257498   5.319   2.362   2.307 -0.4604  0.3143 -0.7259
12003TIP3   OH257499   0.099   0.833  13.737  0.0303 -0.4049 -0.2944
12003TIP3    H157500   0.049   0.768  13.688  1.4799 -1.8474  0.0930
12003TIP3    H257501   0.182   0.790  13.756  1.9894  2.4019 -2.0676
12004TIP3   OH257502   7.161   1.273   0.144 -0.3712 -0.8980 -0.1928
12004TIP3    H157503   7.131   1.363   0.155  0.4949 -0.7106  0.6232
12004TIP3    H257504   7.127   1.227   0.222  0.1743 -1.0238 -0.0315
12005TIP3   OH257505   6.772   2.954   0.282 -0.2975  0.2957 -0.2939
12005TIP3    H157506   6.684   2.986   0.301  0.2822  1.4329  0.4848
12005TIP3    H257507   6.786   2.977   0.190 -1.8871 -2.4155 -1.2716
12006TIP3   OH257508   6.136   2.621  12.722  0.7416  0.1865  0.3767
12006TIP3    H157509   6.179   2.603  12.639  1.8284 -1.4289  1.2538
12006TIP3    H257510   6.108   2.535  12.753  1.5666  0.5926  2.3232
12007TIP3   OH257511   6.606   1.380   0.755  0.6386 -0.1744  0.8185
12007TIP3    H157512   6.624   1.362   0.847 -0.6003  0.5572  1.2187
12007TIP3    H257513   6.541   1.450   0.757  0.9629  0.1744 -0.6194
12008TIP3   OH257514   0.040   4.253  14.902 -0.5063  0.3840  0.1244
12008TIP3    H157515   0.071   4.342  14.885 -1.3092  0.4954 -0.7870
12008TIP3    H257516   0.100   4.220  14.969 -0.7506  1.9090  1.1287
12009TIP3   OH257517   6.855   3.474   1.752 -0.3735 -0.6276  0.2448
12009TIP3    H157518   6.930   3.483   1.693 -0.5181 -0.5416  0.0724
12009TIP3    H257519   6.812   3.560   1.750  0.0925 -0.3742  1.1191
12010TIP3   OH257520   6.481   2.784   0.178  0.6552  0.0838 -0.6774
12010TIP3    H157521   6.523   2.700   0.161  1.9397  0.9895 -2.0490
12010TIP3    H257522   6.442   2.809   0.094 -0.0241  0.6948 -0.1874
12011TIP3   OH257523   6.550   2.363  15.718  0.4262 -0.0716 -0.2918
12011TIP3    H157524   6.467   2.320  15.738 -0.1601  1.2603  0.1818
12011TIP3    H257525   6.528   2.432  15.656  1.1994  0.2076 -0.2634
12012TIP3   OH257526   6.040   2.644   0.995 -0.3042  0.0918  0.2629
12012TIP3    H157527   6.038   2.732   1.032 -1.9871  0.3435 -0.3592
12012TIP3    H257528   6.020   2.657   0.902  2.7535 -0.6308 -0.5531
12013TIP3   OH257529   0.349   6.473   0.993  0.5774  0.0559  0.0424
12013TIP3    H157530   0.317   6.531   0.924 -0.5886 -0.6182  0.0072
12013TIP3    H257531   0.369   6.532   1.066 -2.0632  0.3841  0.5579
12014TIP3   OH257532   1.778   2.461   3.109  0.2264 -0.0330 -1.0283
12014TIP3    H157533   1.687   2.475   3.083  0.2952 -0.3336 -1.4475
12014TIP3    H257534   1.828   2.473   3.028  0.4989 -0.4426 -0.9256
12015TIP3   OH257535   0.951   3.923   1.001 -0.4672 -0.4405 -0.0813
12015TIP3    H157536   0.888   3.941   1.071 -0.2956  1.4512 -0.3855
12015TIP3    H257537   0.908   3.856   0.947 -0.8357 -1.4901  1.4936
12016TIP3   OH257538   2.008   5.503   0.195 -0.2982  0.0228 -0.3970
12016TIP3    H157539   1.913   5.493   0.197 -0.1799 -1.0735  0.4241
12016TIP3    H257540   2.028   5.557   0.272 -0.2825  0.4493 -0.7032
12017TIP3   OH257541   7.006   4.582   0.847  0.2000  0.0958  0.0264
12017TIP3    H157542   6.940   4.521   0.816  1.3545 -0.8016 -0.6663
12017TIP3    H257543   6.974   4.668   0.818 -0.0477 -0.4538 -1.3686
12018TIP3   OH257544   0.323   6.064   1.577  0.1826 -0.2527  0.0585
12018TIP3    H157545   0.317   5.973   1.606  0.1732 -0.5270 -0.7797
12018TIP3    H257546   0.400   6.065   1.520 -0.2610  0.0961 -0.5387
12019TIP3   OH257547   0.696   3.076   1.791 -0.1048  0.1192 -0.0238
12019TIP3    H157548   0.603   3.056   1.804  0.0079 -0.6136 -0.3682
12019TIP3    H257549   0.738   2.991   1.779  0.4308  0.5186 -1.0586
12020TIP3   OH257550   6.916   6.798   0.871  0.3460 -0.1433 -0.0104
12020TIP3    H157551   6.971   6.765   0.943  2.6233 -0.8700 -2.0051
12020TIP3    H257552   6.924   6.732   0.803  0.9234  2.1022 -2.1834
12021TIP3   OH257553   7.321   2.536   0.751 -0.0321 -0.2926 -0.0692
12021TIP3    H157554   7.367   2.562   0.671  0.2868  0.0245  0.2181
12021TIP3    H257555   7.389   2.498   0.807 -0.3751 -1.1473 -0.2234
12022TIP3   OH257556   1.920   4.055   0.839 -0.2440  0.2090 -0.0185
12022TIP3    H157557   1.889   3.965   0.846  1.3790 -0.4443 -1.1221
12022TIP3    H257558   1.839   4.107   0.833 -1.1844 -1.4097 -2.2452
12023TIP3   OH257559   0.004   5.768  15.484 -0.2230 -0.1168  0.1564
12023TIP3    H157560  -0.080   5.722  15.485 -0.4885  0.3744  1.2829
12023TIP3    H257561   0.001   5.825  15.561  0.2660  1.4978 -0.9987
12024TIP3   OH257562   1.320   2.661   3.259  0.3029 -0.2253  0.1913
12024TIP3    H157563   1.263   2.606   3.205  0.8618  0.1731 -0.8343
12024TIP3    H257564   1.270   2.742   3.272  0.8245  0.3293 -1.1499
12025TIP3   OH257565   1.802   4.222  13.840  0.7428 -0.4105  0.4990
12025TIP3    H157566   1.739   4.293  13.854  0.7713 -0.4868  1.0240
12025TIP3    H257567   1.887   4.266  13.838  0.4749  0.1246 -3.4187
12026TIP3   OH257568   5.981   3.614   0.321 -0.0053 -0.1606  0.0318
12026TIP3    H157569   5.961   3.702   0.353 -2.3997 -0.9249  0.7472
12026TIP3    H257570   5.934   3.608   0.238  2.3243  0.1365 -1.3525
12027TIP3   OH257571   1.171   2.657   1.142  0.1791  0.1339  0.2482
12027TIP3    H157572   1.163   2.603   1.222 -0.0488 -0.8824 -0.4472
12027TIP3    H257573   1.201   2.742   1.174 -0.6156 -0.0374  1.5033
12028TIP3   OH257574   4.307   3.503   2.168 -0.4728  0.2664 -0.0942
12028TIP3    H157575   4.270   3.575   2.118  0.0798  2.7299  2.9148
12028TIP3    H257576   4.244   3.489   2.239  0.7798 -0.3928  0.8984
12029TIP3   OH257577   6.104   2.978   0.470  0.2569  0.3899 -0.3398
12029TIP3    H157578   6.083   2.915   0.401 -0.5976  1.2081 -0.8337
12029TIP3    H257579   6.175   3.030   0.434  1.5443 -0.8218  0.3980
12030TIP3   OH257580   1.473   5.334   0.918  0.4271  0.0764 -0.5414
12030TIP3    H157581   1.390   5.287   0.915  0.5751 -0.2201 -0.0706
12030TIP3    H257582   1.531   5.284   0.860  0.3361  0.1643 -0.7074
12031TIP3   OH257583   0.260   3.265   2.231  0.0675 -0.0801  0.2930
12031TIP3    H157584   0.336   3.216   2.261  0.6941 -0.0836 -1.2610
12031TIP3    H257585   0.295   3.346   2.195 -0.7132  0.2060  0.1486
12032TIP3   OH257586   0.641   5.583  15.421  0.3096  0.0093 -0.1443
12032TIP3    H157587   0.714   5.527  15.395  1.3157  0.8442  0.9015
12032TIP3    H257588   0.647   5.588  15.516  0.9652  2.9096 -0.3091
12033TIP3   OH257589   1.583   5.795  15.977 -0.0319  0.4177 -0.4101
12033TIP3    H157590   1.615   5.836  15.897  1.6968 -1.9502 -0.9795
12033TIP3    H257591   1.661   5.764  16.022 -1.2884 -3.1724 -0.5451
12034TIP3   OH257592   1.196   3.142   0.389 -0.4866 -0.4370  0.3164
12034TIP3    H157593   1.214   3.087   0.313 -0.1577 -0.2971  0.2908
12034TIP3    H257594   1.279   3.188   0.405 -1.0289  0.7407 -0.2251
12035TIP3   OH257595   4.723   4.835   1.824  0.2502 -0.2697 -0.3349
12035TIP3    H157596   4.691   4.920   1.854 -0.8046 -0.9064  0.3495
12035TIP3    H257597   4.646   4.790   1.791  0.6087 -1.4198  0.3798
12036TIP3   OH257598   0.751   4.514  14.660 -0.1153  0.1777 -0.4392
12036TIP3    H157599   0.768   4.457  14.734  0.4049  1.6036  0.5691
12036TIP3    H257600   0.832   4.512  14.609 -0.5648 -1.0063 -1.1167
12037TIP3   OH257601   5.775   5.391  15.450  0.6348 -0.1137  0.2167
12037TIP3    H157602   5.773   5.457  15.381  1.7959  1.5066  1.7073
12037TIP3    H257603   5.836   5.324  15.418  1.3131  0.7199 -0.2471
12038TIP3   OH257604   0.077   5.719   4.195  0.2893 -0.3104 -0.1788
12038TIP3    H157605   0.004   5.770   4.231 -2.7441 -2.4646 -2.9472
12038TIP3    H257606   0.107   5.769   4.119  0.7991 -0.0973  0.1602
12039TIP3   OH257607   0.381   2.790  15.433  0.3606  0.3122 -0.4513
12039TIP3    H157608   0.434   2.766  15.509 -0.0850 -2.5584 -0.9911
12039TIP3    H257609   0.290   2.780  15.462  0.1864 -1.7273 -1.5785
12040TIP3   OH257610   2.673   4.946  15.798  0.4568 -0.3471  0.1220
12040TIP3    H157611   2.673   5.035  15.761 -2.3316  0.6148  2.2241
12040TIP3    H257612   2.761   4.935  15.834  1.0349  1.3117 -0.7058
12041TIP3   OH257613   0.183   5.362   0.727 -0.3085  0.1512  0.2888
12041TIP3    H157614   0.186   5.290   0.663  0.1487  0.1395  0.3154
12041TIP3    H257615   0.152   5.322   0.808 -0.3215  0.0380  0.2277
12042TIP3   OH257616   6.647   5.956   0.938  0.1983 -0.7841 -0.4459
12042TIP3    H157617   6.716   5.952   1.004 -0.3836 -0.1357  0.2104
12042TIP3    H257618   6.621   6.048   0.936 -1.9417 -1.3480  0.6564
12043TIP3   OH257619   1.179   2.582   0.241 -0.0196  0.3031 -0.2566
12043TIP3    H157620   1.209   2.635   0.316  1.0951  1.5320 -1.5465
12043TIP3    H257621   1.091   2.615   0.222 -1.5108 -1.9766  2.2963
12044TIP3   OH257622   0.387   5.339  15.615  0.1302  0.2263  0.7284
12044TIP3    H157623   0.446   5.403  15.654 -0.6214  1.3970  0.0029
12044TIP3    H257624   0.320   5.392  15.572 -0.5393 -1.0583  0.1549
12045TIP3   OH257625   0.454   3.340   2.556  0.1995  0.1892  0.1960
12045TIP3    H157626   0.374   3.317   2.603  0.3680 -0.7372  0.0347
12045TIP3    H257627   0.514   3.369   2.625 -0.1987  0.6725  0.3413
12046TIP3   OH257628   3.042   4.420   0.664 -0.0213  0.0307 -0.1373
12046TIP3    H157629   3.125   4.406   0.709  1.0324  1.4709 -1.5941
12046TIP3    H257630   3.065   4.430   0.572 -1.8681 -0.1463 -0.6457
12047TIP3   OH257631   1.384   5.240   0.483  0.1059  0.2348  0.0811
12047TIP3    H157632   1.380   5.309   0.549 -0.6716  0.8388 -0.5814
12047TIP3    H257633   1.298   5.199   0.487  0.4943 -0.5692  0.3255
12048TIP3   OH257634   7.289   2.555   1.852 -0.0394 -0.4384  0.3165
12048TIP3    H157635   7.252   2.607   1.924  1.3414  0.4096  0.4405
12048TIP3    H257636   7.359   2.611   1.817 -0.1677 -1.1933 -1.1535
12049TIP3   OH257637   1.093   5.644   0.519  0.6592 -0.1876 -0.2809
12049TIP3    H157638   1.166   5.610   0.467 -0.1612 -0.8912 -0.9863
12049TIP3    H257639   1.076   5.731   0.483  1.3908  0.1359  0.1382
12050TIP3   OH257640   0.707   4.628   0.884  0.6618 -0.4867 -0.5998
12050TIP3    H157641   0.621   4.611   0.921  0.1272  1.5069 -0.8225
12050TIP3    H257642   0.742   4.700   0.937  1.4668 -0.1444 -1.5764
12051TIP3   OH257643   6.250   3.754  15.483 -0.0465 -0.1802  0.4380
12051TIP3    H157644   6.285   3.808  15.412 -2.0472  2.1368  1.1161
12051TIP3    H257645   6.260   3.664  15.452 -0.3013  0.7367 -2.5341
12052TIP3   OH257646   5.941   3.875   0.328  0.3350  0.3908 -0.5823
12052TIP3    H157647   5.894   3.948   0.369  1.8098  2.0813 -1.8035
12052TIP3    H257648   6.023   3.914   0.297  1.3852 -1.9108 -0.8167
12053TIP3   OH257649   0.749   2.940   0.063 -0.1801  0.0337  0.0074
12053TIP3    H157650   0.842   2.959   0.059 -0.4068  1.0343 -0.7799
12053TIP3    H257651   0.711   3.016   0.107 -0.7371  0.0826 -0.5494
12054TIP3   OH257652   1.912   4.351   0.016  0.0630  0.0302 -0.3308
12054TIP3    H157653   1.902   4.430  -0.037 -0.7993  0.5131  0.5634
12054TIP3    H257654   1.838   4.352   0.077  0.4935 -1.0459  0.2279
12055TIP3   OH257655   6.741   4.396   4.919  0.4086  0.1335 -0.1941
12055TIP3    H157656   6.733   4.489   4.896 -0.9102 -0.1891 -1.0792
12055TIP3    H257657   6.768   4.397   5.011 -0.3465  1.3959  0.0290
12056TIP3   OH257658   6.358   5.795   1.098  0.1713 -0.1452 -0.2445
12056TIP3    H157659   6.329   5.841   1.177 -2.2884 -0.1030 -1.1317
12056TIP3    H257660   6.341   5.703   1.117  1.1333 -0.3023 -0.1065
12057TIP3   OH257661   2.899   4.806   1.945  0.3155  0.1486  0.8470
12057TIP3    H157662   2.951   4.758   1.880  0.0751  0.0144  0.7552
12057TIP3    H257663   2.962   4.866   1.985  0.1460  1.2487 -0.5079
12058TIP3   OH257664   1.656   3.917  15.225 -0.4457 -0.5176  0.6594
12058TIP3    H157665   1.701   3.890  15.305 -1.7418  0.1999  1.6423
12058TIP3    H257666   1.631   3.835  15.182 -0.2618 -0.9013  1.2820
12059TIP3   OH257667   0.131   5.109   0.849  0.2935  0.7112  0.0391
12059TIP3    H157668   0.100   5.115   0.939  2.1324 -2.2805  0.9317
12059TIP3    H257669   0.081   5.036   0.811  1.4962  0.1607 -0.5124
12060TIP3   OH257670   1.603   5.415  15.654  0.3037 -0.1334 -0.0931
12060TIP3    H157671   1.597   5.324  15.686 -1.1447  0.3475  1.0720
12060TIP3    H257672   1.551   5.465  15.716  0.0340  1.3224 -1.4703
12061TIP3   OH257673   0.812   2.401   0.172 -0.4133 -0.2373  0.2252
12061TIP3    H157674   0.885   2.389   0.111  0.4622 -0.4699  1.2961
12061TIP3    H257675   0.739   2.427   0.117  0.9819  1.9928 -0.6431
12062TIP3   OH257676   6.525   5.841   0.384  0.0775  0.2162 -0.4069
12062TIP3    H157677   6.498   5.874   0.298 -1.8761 -1.5523 -0.5064
12062TIP3    H257678   6.445   5.843   0.436  1.0147  0.2232  1.0383
12063TIP3   OH257679   1.348   3.048   1.772 -0.0904  0.0275 -0.3196
12063TIP3    H157680   1.343   3.131   1.724  1.4935  0.4879  0.2932
12063TIP3    H257681   1.441   3.028   1.776 -0.2577 -0.4468  1.8146
12064TIP3   OH257682   0.489   3.005   2.777 -0.5941 -0.5967  1.0719
12064TIP3    H157683   0.520   3.096   2.782 -0.9889 -0.3960  0.0644
12064TIP3    H257684   0.482   2.987   2.683 -0.7473 -1.5964  1.2680
12065TIP3   OH257685   6.718   5.417   1.215  0.0883  0.2543 -0.1528
12065TIP3    H157686   6.625   5.395   1.226  0.1665 -0.3554 -0.6927
12065TIP3    H257687   6.718   5.484   1.146  0.3020 -2.1462 -2.5861
12066TIP3   OH257688   0.955   5.361  14.679 -0.2558 -0.5046 -0.2949
12066TIP3    H157689   0.980   5.278  14.638 -1.1345 -0.0065 -1.8865
12066TIP3    H257690   0.881   5.392  14.627  0.7898  1.8487 -0.4620
12067TIP3   OH257691   6.906   6.116   1.140  0.3520  0.0114  0.1407
12067TIP3    H157692   6.931   6.201   1.105  3.9101 -0.7216  0.7243
12067TIP3    H257693   6.938   6.117   1.230 -2.0843 -0.9266  1.0724
12068TIP3   OH257694   7.000   4.320  15.609 -0.8001 -0.0415 -0.3909
12068TIP3    H157695   7.047   4.388  15.561 -0.6188 -0.3078 -0.5934
12068TIP3    H257696   7.051   4.241  15.593 -0.7721 -0.1375  0.1975
12069TIP3   OH257697   2.927   3.892   4.708  0.3883 -0.2869 -0.8130
12069TIP3    H157698   2.855   3.948   4.679 -0.2991 -0.0139  1.2897
12069TIP3    H257699   2.984   3.884   4.632 -2.1006 -0.8978 -2.6719
12070TIP3   OH257700   7.004   6.091   0.238 -0.5943  0.8158  0.1020
12070TIP3    H157701   7.015   6.122   0.328  1.2549  2.2343 -0.5796
12070TIP3    H257702   7.063   6.146   0.186 -1.5435 -0.0599 -1.9700
12071TIP3   OH257703   0.356   3.836  15.445 -0.1335 -0.3410  0.2748
12071TIP3    H157704   0.428   3.839  15.382 -0.4423 -0.8220 -0.1027
12071TIP3    H257705   0.296   3.905  15.417  0.8188  0.9837  1.3807
12072TIP3   OH257706   2.952   5.261   2.955 -0.1225 -0.3286 -0.2493
12072TIP3    H157707   2.982   5.299   2.872 -0.4725  1.1159  0.2764
12072TIP3    H257708   2.859   5.285   2.960 -0.5264 -1.8741 -0.2504
12073TIP3   OH257709   2.640   5.781   2.729  0.4816 -0.1186 -0.5171
12073TIP3    H157710   2.653   5.840   2.804 -1.1528  1.1395 -1.2004
12073TIP3    H257711   2.707   5.713   2.740  0.7706  0.4880  1.6535
12074TIP3   OH257712   2.013   4.387  13.906 -0.2910  0.2385  0.0620
12074TIP3    H157713   2.103   4.375  13.874 -0.7227 -1.1164 -0.6830
12074TIP3    H257714   1.992   4.477  13.881  0.3562  0.0997 -1.0625
12075TIP3   OH257715   2.560   4.914  14.735  0.5418 -0.1553 -0.4802
12075TIP3    H157716   2.601   4.997  14.756  1.2917 -0.8210  0.7739
12075TIP3    H257717   2.486   4.907  14.795  1.0752 -0.8339  0.1115
12076TIP3   OH257718   7.228   4.786   1.852  0.2136  0.6854 -0.3286
12076TIP3    H157719   7.166   4.741   1.910  0.1192  0.3851 -0.6659
12076TIP3    H257720   7.260   4.718   1.793  1.1155  0.7707  0.0524
12077TIP3   OH257721   1.020   4.406   2.169  0.2443  0.0628 -0.1824
12077TIP3    H157722   0.971   4.339   2.216  1.3661 -0.6660 -0.0412
12077TIP3    H257723   1.073   4.448   2.236 -0.6380  1.2809 -0.2238
12078TIP3   OH257724   4.449   5.694   2.391  0.1645  0.5572 -0.9180
12078TIP3    H157725   4.476   5.644   2.468 -0.1708  0.4432 -0.8730
12078TIP3    H257726   4.355   5.707   2.403  0.0117  0.0790 -1.5641
12079TIP3   OH257727   3.703   4.587   1.522  0.9269 -0.1764 -0.4331
12079TIP3    H157728   3.754   4.616   1.447  0.6510  1.4065 -0.0311
12079TIP3    H257729   3.744   4.631   1.597 -0.2884  0.1688  0.0388
12080TIP3   OH257730   1.216   2.904   3.346 -0.8966 -0.8893  0.3471
12080TIP3    H157731   1.136   2.933   3.391 -0.2155 -0.1178  1.0980
12080TIP3    H257732   1.264   2.985   3.329 -0.1927 -1.3640  0.0600
12081TIP3   OH257733   6.870   2.297   0.982  0.2838  0.0780  0.3026
12081TIP3    H157734   6.804   2.311   0.914  1.5630 -0.4804 -1.0763
12081TIP3    H257735   6.950   2.336   0.946  0.8277  0.3179  1.7456
12082TIP3   OH257736   0.684   5.315   0.947 -0.2041 -0.1807 -0.0164
12082TIP3    H157737   0.779   5.309   0.944 -0.2684 -1.5357  0.1338
12082TIP3    H257738   0.654   5.226   0.929 -1.4307  0.1338  0.4181
12083TIP3   OH257739   5.853   3.219   1.025  0.3762  0.2755  0.5231
12083TIP3    H157740   5.795   3.268   1.083 -0.0889 -0.9907  1.1406
12083TIP3    H257741   5.938   3.223   1.067 -0.0863 -1.1560  1.6291
12084TIP3   OH257742   0.118   5.754   0.709 -0.0984  0.3294  0.1624
12084TIP3    H157743   0.189   5.742   0.772 -1.3386 -0.7582  1.4233
12084TIP3    H257744   0.076   5.836   0.736 -0.5678 -0.0844  0.6958
12085TIP3   OH257745   6.019   2.876   2.829  1.0114  0.3777  0.2093
12085TIP3    H157746   6.002   2.801   2.771  1.5332  1.2698 -1.0946
12085TIP3    H257747   6.107   2.860   2.863  0.2089 -0.8298  1.8322
12086TIP3   OH257748   6.744   2.209   1.228  0.5237  0.3534  0.6535
12086TIP3    H157749   6.778   2.242   1.145  1.8226  0.3757  1.1657
12086TIP3    H257750   6.659   2.250   1.238  0.5962  0.7721 -0.4113
12087TIP3   OH257751   6.228   5.675  15.687 -0.4348 -0.5802  0.1766
12087TIP3    H157752   6.303   5.631  15.728  1.6136  1.7319 -0.9184
12087TIP3    H257753   6.247   5.672  15.593 -1.8741 -0.2201 -0.1399
12088TIP3   OH257754   1.465   3.561   0.950  0.0718 -0.0209  0.5207
12088TIP3    H157755   1.393   3.612   0.987 -0.0232  0.4430 -0.3128
12088TIP3    H257756   1.430   3.526   0.868  0.5291 -0.4512  0.5099
12089TIP3   OH257757   1.673   4.905  15.196  0.7197  0.1593  0.4613
12089TIP3    H157758   1.748   4.904  15.137  0.5140  1.5818  0.1571
12089TIP3    H257759   1.681   4.988  15.244 -1.5976  1.1745 -0.8325
12090TIP3   OH257760   0.469   3.340   1.124  0.2309  0.3884  0.3993
12090TIP3    H157761   0.506   3.312   1.041 -2.7039  1.3614 -1.2953
12090TIP3    H257762   0.543   3.378   1.171  2.3647 -1.9742 -0.8884
12091TIP3   OH257763   2.056   7.230   0.951  1.2338  0.1989 -0.2151
12091TIP3    H157764   2.141   7.191   0.972 -0.7827 -3.0243  2.5318
12091TIP3    H257765   2.004   7.157   0.918 -0.4655  2.1426 -1.9263
12092TIP3   OH257766   7.115   4.674   2.065 -0.5389  0.5197  0.2515
12092TIP3    H157767   7.130   4.672   2.159 -1.8000  0.0283  0.4442
12092TIP3    H257768   7.098   4.583   2.041 -0.7007  0.7123 -0.3779
12093TIP3   OH257769   1.217   4.944   1.007  0.0999  0.8557  0.0758
12093TIP3    H157770   1.284   4.882   0.978 -0.9916  0.2856 -1.2920
12093TIP3    H257771   1.222   4.942   1.102  1.8864  0.6802 -0.0031
12094TIP3   OH257772   0.998   4.474  14.047  0.0374  0.7433  0.0629
12094TIP3    H157773   1.021   4.529  14.121 -1.0452  0.4260  0.6425
12094TIP3    H257774   0.902   4.479  14.041 -0.0545 -0.8176 -0.0716
12095TIP3   OH257775   2.683   5.280  15.349  0.1399  0.6005  0.6603
12095TIP3    H157776   2.690   5.374  15.363  1.6612  0.5069  0.6343
12095TIP3    H257777   2.678   5.242  15.437 -3.3925  0.8676  0.6444
12096TIP3   OH257778   0.556   5.042   3.029 -0.0809  0.4114 -0.2954
12096TIP3    H157779   0.564   5.110   2.961  1.2380  0.7246  0.1440
12096TIP3    H257780   0.545   5.091   3.110 -0.2809  0.0737 -0.1186
12097TIP3   OH257781   3.443   3.735  15.591 -0.5274 -0.1982 -0.0344
12097TIP3    H157782   3.485   3.730  15.505  0.8267 -0.6663  0.6469
12097TIP3    H257783   3.381   3.662  15.592  0.0550 -0.6952 -0.2877
12098TIP3   OH257784   6.849   4.885   2.844  0.1127 -0.2433 -0.3209
12098TIP3    H157785   6.908   4.824   2.890  1.1631  1.1210  0.1828
12098TIP3    H257786   6.830   4.842   2.761  1.9650 -0.6247 -0.5590
12099TIP3   OH257787   1.277   2.829   3.646  0.0618 -0.4076  0.0567
12099TIP3    H157788   1.279   2.742   3.607 -0.6689  0.1124 -1.1682
12099TIP3    H257789   1.303   2.888   3.575  1.8635  0.2633  1.2339
12100TIP3   OH257790   1.432   5.008  14.647 -0.0454  0.7411 -0.4610
12100TIP3    H157791   1.496   4.984  14.715 -2.0957  0.0437  1.2720
12100TIP3    H257792   1.444   4.941  14.579  0.6471  0.2638  0.1179
12101TIP3   OH257793   0.050   4.795   1.516  0.8074  0.1660 -0.0786
12101TIP3    H157794   0.014   4.712   1.545  1.0607  0.4982  1.2276
12101TIP3    H257795   0.053   4.788   1.421 -0.0750 -0.9385 -0.0370
12102TIP3   OH257796   2.086   5.411  14.772 -0.2221 -0.4383  0.7332
12102TIP3    H157797   2.144   5.358  14.717  0.0041  0.0376  0.5020
12102TIP3    H257798   2.002   5.366  14.769  0.1119 -1.0951  1.0056
12103TIP3   OH257799   6.777   7.028   1.022  0.2024 -0.1192 -0.2150
12103TIP3    H157800   6.837   7.102   1.019  2.0942 -1.4765  2.3285
12103TIP3    H257801   6.819   6.960   0.968 -0.2750 -0.2083 -0.4757
12104TIP3   OH257802   0.419   4.476   0.831 -0.5033  0.4132  0.1857
12104TIP3    H157803   0.380   4.437   0.910 -0.0570  0.9417  0.6697
12104TIP3    H257804   0.502   4.429   0.821 -1.1578 -0.5588 -0.7173
12105TIP3   OH257805   0.892   3.563   1.821  0.2923 -0.1986  0.1272
12105TIP3    H157806   0.885   3.647   1.866 -1.7101 -0.5346  0.4851
12105TIP3    H257807   0.966   3.520   1.863  1.5679  1.5075 -0.2897
12106TIP3   OH257808   0.532   3.169   0.634  0.2898  0.2092  0.1173
12106TIP3    H157809   0.551   3.231   0.564  3.4487  1.0072  1.5933
12106TIP3    H257810   0.602   3.104   0.628 -0.2075 -0.4849  1.6657
12107TIP3   OH257811   1.600   5.152  15.740  0.4208 -0.0806 -0.4485
12107TIP3    H157812   1.584   5.153  15.834  1.7079  1.9158 -0.2157
12107TIP3    H257813   1.654   5.074  15.725 -1.2911 -1.4214  0.1611
12108TIP3   OH257814   2.088   6.470   1.543  0.2077  0.1740 -0.1205
12108TIP3    H157815   2.077   6.521   1.463  0.2397  0.3961  0.0184
12108TIP3    H257816   2.000   6.439   1.565  0.2894 -0.3819 -0.5732
12109TIP3   OH257817   1.840   5.436  15.825 -0.1904  0.5390 -0.2773
12109TIP3    H157818   1.774   5.475  15.767  0.7239  1.3482 -0.7915
12109TIP3    H257819   1.919   5.489  15.810  1.0225 -1.3838 -0.8473
12110TIP3   OH257820   0.473   6.463   0.533 -0.2595 -0.4418 -0.3350
12110TIP3    H157821   0.462   6.385   0.478  3.3330 -0.2461 -1.4553
12110TIP3    H257822   0.423   6.531   0.489  0.3432 -0.9896 -1.8968
12111TIP3   OH257823   0.292   2.486   0.357 -0.3088 -0.3719  0.7775
12111TIP3    H157824   0.378   2.510   0.390 -0.6602 -0.2226  1.5893
12111TIP3    H257825   0.282   2.393   0.380 -0.2543 -0.4593  0.4474
12112TIP3   OH257826   2.424   5.148  15.346 -0.1081  0.5392 -0.0138
12112TIP3    H157827   2.428   5.235  15.305  0.0222  0.2080 -0.7065
12112TIP3    H257828   2.423   5.166  15.440  0.0349  1.2913 -0.1519
12113TIP3   OH257829   1.483   5.459   0.160 -0.0948  0.7177 -0.3974
12113TIP3    H157830   1.458   5.372   0.190  0.4097  1.1398  1.3260
12113TIP3    H257831   1.577   5.453   0.146 -0.4305  0.3272 -2.6652
12114TIP3   OH257832   0.795   0.439  15.583 -0.1989  0.2429 -0.1551
12114TIP3    H157833   0.763   0.455  15.671  0.2864  1.8996 -0.2649
12114TIP3    H257834   0.822   0.525  15.551 -0.9428 -0.2325 -2.1496
12115TIP3   OH257835   0.836   3.300   0.246  0.0931 -0.1672 -0.0163
12115TIP3    H157836   0.906   3.350   0.287  0.5495 -1.5115  0.8570
12115TIP3    H257837   0.813   3.351   0.168  3.1694 -0.5324 -1.2465
12116TIP3   OH257838   6.216   5.992  15.649 -0.2652 -0.6956  0.0043
12116TIP3    H157839   6.289   6.045  15.617  1.0358 -0.7376  2.8131
12116TIP3    H257840   6.250   5.902  15.648 -0.3393 -0.7384  1.1494
12117TIP3   OH257841   3.054   4.545   1.529 -0.2072 -0.0722  0.6692
12117TIP3    H157842   3.089   4.614   1.585 -0.8132  0.8910 -0.1226
12117TIP3    H257843   3.061   4.580   1.440  0.5998 -1.5129  0.1443
12118TIP3   OH257844   1.412   6.269   0.862 -0.1014 -0.1054  0.2209
12118TIP3    H157845   1.441   6.243   0.949  1.9216  0.5221 -0.2330
12118TIP3    H257846   1.374   6.356   0.875  1.0355  0.3776  0.3283
12119TIP3   OH257847   7.239   4.139   0.401  0.0447  0.1568 -0.2524
12119TIP3    H157848   7.324   4.124   0.443  0.1273  0.8286 -0.1665
12119TIP3    H257849   7.259   4.200   0.330 -0.3326  0.1490 -0.3641
12120TIP3   OH257850   6.770   6.053   0.520  0.0929 -0.3945 -0.5631
12120TIP3    H157851   6.691   6.021   0.563  1.2322 -1.6064  0.7072
12120TIP3    H257852   6.808   6.115   0.582  1.0151 -1.1055 -0.3951
12121TIP3   OH257853   5.963   6.254   2.110 -0.1856 -0.0784  0.1043
12121TIP3    H157854   6.006   6.236   2.026  1.9377  0.7137  0.9678
12121TIP3    H257855   6.032   6.239   2.175 -1.7975 -0.6989  1.7200
12122TIP3   OH257856   6.576   4.945   0.814  0.4773 -0.0075 -0.2486
12122TIP3    H157857   6.587   5.022   0.759  0.2334 -0.3715 -0.8211
12122TIP3    H257858   6.515   4.889   0.765  1.5803 -1.0889 -0.4115
12123TIP3   OH257859   5.687   5.469   2.349 -0.0786  0.3640  0.0656
12123TIP3    H157860   5.627   5.544   2.356 -0.1248  0.2106  1.4001
12123TIP3    H257861   5.646   5.411   2.285  0.9982  2.4356 -2.6282
12124TIP3   OH257862   7.152   3.001   0.721  0.6700  0.3584  0.2482
12124TIP3    H157863   7.207   3.055   0.665  0.4238 -0.9282 -1.2666
12124TIP3    H257864   7.159   2.913   0.685 -2.1470  0.1103  0.1873
12125TIP3   OH257865   0.396   4.347   1.266 -0.5080  0.1033  0.7995
12125TIP3    H157866   0.477   4.392   1.245 -0.7794  0.6521  0.9183
12125TIP3    H257867   0.345   4.348   1.185  0.1674 -1.4658  0.3321
12126TIP3   OH257868   1.987   4.873   0.927  0.1868 -0.2540 -0.1839
12126TIP3    H157869   2.072   4.830   0.911  0.0331 -0.1442 -1.2772
12126TIP3    H257870   1.963   4.912   0.843 -0.8409 -0.0846  0.1846
12127TIP3   OH257871   1.079   4.977   2.635 -0.4501 -0.2807 -0.2739
12127TIP3    H157872   0.998   4.964   2.585 -0.3304  2.6127 -1.3400
12127TIP3    H257873   1.133   5.032   2.577  1.4933 -0.5939  1.2182
12128TIP3   OH257874   3.789   4.796  15.531 -0.2180  0.1144  0.6059
12128TIP3    H157875   3.747   4.720  15.491  0.4994  1.1972 -2.3173
12128TIP3    H257876   3.717   4.855  15.554 -0.5659  0.2333 -0.7420
12129TIP3   OH257877   1.100   2.458   1.349 -0.0304  0.1322  0.3828
12129TIP3    H157878   1.063   2.535   1.391 -0.4367 -0.8424  1.8382
12129TIP3    H257879   1.166   2.426   1.410 -0.4527 -1.1511  0.1851
12130TIP3   OH257880   3.171   6.101   1.504  1.1987 -0.2833  0.6061
12130TIP3    H157881   3.177   6.136   1.415 -1.3468  1.3645  1.0355
12130TIP3    H257882   3.171   6.006   1.493 -1.1536 -0.0885 -1.3323
12131TIP3   OH257883   0.260   1.032  13.942  0.2537 -0.0446  0.3758
12131TIP3    H157884   0.275   0.938  13.938  0.9960  0.1183 -1.2003
12131TIP3    H257885   0.341   1.067  13.980  0.1192 -0.0017  0.6268
12132TIP3   OH257886   1.372   4.794   1.381 -0.2663 -0.5344  0.0138
12132TIP3    H157887   1.397   4.827   1.468 -1.6223 -1.0285  0.6011
12132TIP3    H257888   1.394   4.701   1.384 -0.1605 -0.5167 -0.2330
12133TIP3   OH257889   0.701   6.367   1.805  0.2130 -0.3925 -0.3158
12133TIP3    H157890   0.657   6.282   1.812 -0.4449 -0.0319 -0.0331
12133TIP3    H257891   0.706   6.399   1.895 -1.3428  0.7766 -0.6388
12134TIP3   OH257892   0.389   6.609  14.082 -0.1407  0.5870  0.1860
12134TIP3    H157893   0.363   6.691  14.122  1.1335  1.4647 -0.7241
12134TIP3    H257894   0.444   6.635  14.008  0.6661 -1.0886  0.1691
12135TIP3   OH257895   0.181   3.703   0.043  0.2263 -0.6849  0.2574
12135TIP3    H157896   0.135   3.724  -0.038  0.9411 -1.1627 -0.2801
12135TIP3    H257897   0.119   3.726   0.113 -0.0171  0.6805 -0.3877
12136TIP3   OH257898   2.341   0.002   0.852 -0.4708 -0.1224  0.1414
12136TIP3    H157899   2.288  -0.017   0.774  0.8701 -0.2091 -0.7618
12136TIP3    H257900   2.355  -0.084   0.892  0.0595 -0.2540 -0.3230
12137TIP3   OH257901   0.856   3.868   0.276 -0.4185  0.0668  0.0375
12137TIP3    H157902   0.919   3.939   0.262 -1.2143  0.5064 -1.4638
12137TIP3    H257903   0.899   3.790   0.241  0.1881 -0.0800  1.0823
12138TIP3   OH257904   0.446   4.400   0.235  0.3872  0.5334  0.7020
12138TIP3    H157905   0.396   4.482   0.230 -0.1041  0.1694 -0.4044
12138TIP3    H257906   0.491   4.405   0.320 -2.0038  0.5872  2.0134
12139TIP3   OH257907   1.398   3.072   3.782  0.1052  0.9095 -0.1819
12139TIP3    H157908   1.377   2.995   3.729  2.0170  0.0524  0.2679
12139TIP3    H257909   1.465   3.119   3.732  1.3663  0.5004  1.0953
12140TIP3   OH257910   7.168   3.610   1.657  0.2337  0.0056  0.6716
12140TIP3    H157911   7.186   3.525   1.695  0.8386 -0.0497  0.2705
12140TIP3    H257912   7.224   3.615   1.579 -0.8987  0.1586 -0.1641
12141TIP3   OH257913   0.775   3.181   2.600 -0.4784 -0.6502 -0.0586
12141TIP3    H157914   0.856   3.162   2.551  1.1915 -1.0386  2.7665
12141TIP3    H257915   0.803   3.238   2.671 -2.9942  0.4245  0.1105
12142TIP3   OH257916   0.429   4.302  15.245  0.3128  0.3857 -0.0365
12142TIP3    H157917   0.408   4.231  15.305  1.9487 -0.6305 -0.6355
12142TIP3    H257918   0.500   4.349  15.288 -0.4750  1.4237  0.1582
12143TIP3   OH257919   1.060   5.593   0.823 -0.2748 -0.1381  0.2731
12143TIP3    H157920   1.143   5.622   0.862 -0.2874 -0.1973  0.3471
12143TIP3    H257921   1.080   5.581   0.731 -0.2210 -0.0759  0.2763
12144TIP3   OH257922   5.408   4.099   2.732 -0.3224 -0.0936 -0.2236
12144TIP3    H157923   5.395   4.033   2.665 -0.3674 -1.4586  1.1001
12144TIP3    H257924   5.339   4.083   2.796  0.9636 -0.1770  1.1864
12145TIP3   OH257925   0.663   5.727   0.446 -0.1087 -0.1903 -0.0541
12145TIP3    H157926   0.661   5.822   0.457  1.3070 -0.1149 -0.2954
12145TIP3    H257927   0.633   5.712   0.357  1.0152  0.1462 -0.5018
12146TIP3   OH257928   1.235   4.040   2.804 -0.2156 -0.1157  0.1143
12146TIP3    H157929   1.205   4.098   2.874 -0.7912 -1.2201  0.7921
12146TIP3    H257930   1.305   3.988   2.844 -0.7759 -0.9817 -0.0325
12147TIP3   OH257931   0.575   3.310   4.301  0.4714  0.4662 -0.8626
12147TIP3    H157932   0.569   3.266   4.386 -4.2669  2.2940 -0.1171
12147TIP3    H257933   0.630   3.386   4.318  1.2467 -0.2835  0.0596
12148TIP3   OH257934   0.154   4.016  15.620 -1.2355 -0.1262 -0.2959
12148TIP3    H157935   0.146   4.019  15.525 -1.7260  0.3766 -0.2410
12148TIP3    H257936   0.134   3.926  15.643  0.5675 -0.6739 -0.8158
12149TIP3   OH257937   1.104   4.026   0.345 -0.8051 -0.1838  0.3954
12149TIP3    H157938   1.186   3.976   0.349 -0.9941 -0.5516 -0.3909
12149TIP3    H257939   1.062   4.008   0.429  0.2400  0.5524  1.0857
12150TIP3   OH257940   5.785   3.449   0.875  0.2018  0.4485 -0.3450
12150TIP3    H157941   5.805   3.370   0.926 -1.3569 -0.8167 -1.6561
12150TIP3    H257942   5.762   3.416   0.788 -0.6765  2.3415 -0.8384
12151TIP3   OH257943   3.266   4.953  13.999  0.2305  0.0771  0.6262
12151TIP3    H157944   3.279   4.860  13.979 -1.5164  0.0402 -0.4471
12151TIP3    H257945   3.197   4.953  14.066 -1.7493  0.6991 -1.3619
12152TIP3   OH257946   1.666   3.235   3.022  0.1692  0.1767  0.1576
12152TIP3    H157947   1.710   3.318   3.001  0.4636  0.3658  1.4630
12152TIP3    H257948   1.603   3.223   2.951 -1.0800  2.3941  0.8412
12153TIP3   OH257949   0.610   6.541  14.924  0.3457  0.2615 -0.3287
12153TIP3    H157950   0.651   6.482  14.988 -2.1952 -1.3226 -0.1098
12153TIP3    H257951   0.577   6.614  14.976  0.7698  0.3720 -0.2102
12154TIP3   OH257952   0.339   3.918   0.200  0.1671  0.3684 -0.6208
12154TIP3    H157953   0.263   3.970   0.226 -0.8369 -0.9103 -0.9598
12154TIP3    H257954   0.314   3.827   0.218  1.9096 -0.0206 -0.0026
12155TIP3   OH257955   6.938   3.729  15.028 -0.1913  0.0323  0.2830
12155TIP3    H157956   6.975   3.708  15.114  2.8495  1.0847 -0.7065
12155TIP3    H257957   6.936   3.645  14.982  1.4082  0.0126  0.2178
12156TIP3   OH257958   2.765   3.447   4.502  0.6352  0.3925 -0.0879
12156TIP3    H157959   2.796   3.531   4.537 -1.3061  0.7758  0.7946
12156TIP3    H257960   2.814   3.435   4.421  3.5134  0.6431  1.5391
12157TIP3   OH257961   0.977   3.130   2.417  0.2419 -0.0077 -0.4319
12157TIP3    H157962   0.959   3.168   2.330  0.3941  1.1379  0.0322
12157TIP3    H257963   1.034   3.056   2.399  0.4531  0.3580 -1.3041
12158TIP3   OH257964   3.272   3.932   2.204  0.5076  0.3257 -0.0577
12158TIP3    H157965   3.203   3.904   2.264  0.1585  1.3553  0.0191
12158TIP3    H257966   3.252   4.023   2.185  1.9800  0.6960  0.1383
12159TIP3   OH257967   1.054   3.804   1.664 -0.4564 -0.0291 -0.3161
12159TIP3    H157968   0.977   3.860   1.673 -0.7697 -0.5749  0.4960
12159TIP3    H257969   1.079   3.783   1.755  1.1903  0.8889 -0.5283
12160TIP3   OH257970   1.292   2.178   0.537 -0.1043  0.5214  0.1240
12160TIP3    H157971   1.259   2.192   0.626  1.1276 -1.5373  0.9456
12160TIP3    H257972   1.383   2.210   0.540 -0.4173  1.5226 -0.7348
12161TIP3   OH257973   0.956   4.730   1.579  0.0913 -0.1144  0.0189
12161TIP3    H157974   0.998   4.647   1.559 -0.0448 -0.4305  1.0146
12161TIP3    H257975   0.985   4.750   1.668 -0.7172  0.3772  0.1699
12162TIP3   OH257976   1.183   2.531   3.052 -0.2584  0.4053  0.0575
12162TIP3    H157977   1.112   2.470   3.072  0.2291 -0.1399  0.1391
12162TIP3    H257978   1.256   2.475   3.026  0.2145  0.9517  0.1950
12163TIP3   OH257979   2.060   1.972   1.936  0.4070 -0.4616 -0.5279
12163TIP3    H157980   2.027   2.018   1.859 -0.1767  1.0912  0.6406
12163TIP3    H257981   2.154   1.961   1.919  0.9931  3.0430  0.0802
12164TIP3   OH257982   6.912   4.959   0.755 -0.2431 -0.0301 -0.1421
12164TIP3    H157983   6.862   4.879   0.771  0.0994 -0.0350  0.9880
12164TIP3    H257984   6.952   4.946   0.669 -0.9754 -0.6588 -0.3889
12165TIP3   OH257985   1.768   4.972   1.345 -0.3118 -0.1722  0.9093
12165TIP3    H157986   1.845   5.010   1.301 -0.0136  0.4814  1.9646
12165TIP3    H257987   1.778   4.878   1.333  1.5296 -0.2187  2.3756
12166TIP3   OH257988   0.180   4.456   3.925  0.5291 -0.3333 -0.1229
12166TIP3    H157989   0.152   4.517   3.857  1.4427 -0.4473 -0.6093
12166TIP3    H257990   0.099   4.425   3.965  0.0719  2.5215  1.3071
12167TIP3   OH257991   0.464   4.855   0.167 -0.0195  0.1449  0.5928
12167TIP3    H157992   0.525   4.919   0.205 -2.0778  1.9674  0.9196
12167TIP3    H257993   0.483   4.856   0.074 -2.4909  4.1180 -0.0035
12168TIP3   OH257994   1.198   3.472  14.858  0.2638 -0.3022  0.6731
12168TIP3    H157995   1.233   3.559  14.837  0.2554  0.0983  2.1974
12168TIP3    H257996   1.137   3.453  14.787 -0.0672  1.1505  0.5421
12169TIP3   OH257997   4.343   6.926   0.374 -0.2588  0.0349 -0.3785
12169TIP3    H157998   4.372   6.851   0.425 -1.7010 -0.1989  0.1286
12169TIP3    H257999   4.413   6.941   0.310  0.2412 -1.4648 -0.1900
12170TIP3   OH258000   7.242   6.076  15.919 -0.5265  0.0683 -0.1070
12170TIP3    H158001   7.266   5.991  15.957 -0.6050  0.1599  0.1458
12170TIP3    H258002   7.321   6.103  15.871  0.7863  1.5628  2.8272
12171TIP3   OH258003   1.514   4.411   1.204 -0.2222 -0.3236 -0.2270
12171TIP3    H158004   1.460   4.335   1.184 -2.3218  0.5140  1.9589
12171TIP3    H258005   1.534   4.402   1.297  2.6825 -0.1329 -0.7920
12172TIP3   OH258006   5.084   6.242   2.641 -0.0670  0.5594  0.0828
12172TIP3    H158007   5.176   6.250   2.618 -0.4312  2.4186 -0.7774
12172TIP3    H258008   5.037   6.258   2.560 -1.1515 -0.6556  0.4567
12173TIP3   OH258009   1.996   4.765  15.372  0.0382  0.4832  0.4062
12173TIP3    H158010   2.038   4.767  15.458  0.5250 -1.7610  0.2549
12173TIP3    H258011   2.069   4.758  15.310 -0.4338 -1.8170  0.0580
12174TIP3   OH258012   2.217   6.480   0.714  0.7842 -0.2247  0.8912
12174TIP3    H158013   2.224   6.509   0.623  0.0514 -0.3749  0.7912
12174TIP3    H258014   2.150   6.536   0.752 -0.8301 -1.9538  0.6308
12175TIP3   OH258015   0.825   6.047  15.982 -0.0517 -0.5260 -0.2237
12175TIP3    H158016   0.910   6.090  15.990 -1.0774  1.2596  1.3046
12175TIP3    H258017   0.846   5.953  15.981  1.8718 -0.1194  0.9035
12176TIP3   OH258018   2.313   6.046  14.126 -0.3151 -0.0087 -0.0360
12176TIP3    H158019   2.307   5.959  14.167 -1.7059  0.5445  0.9752
12176TIP3    H258020   2.391   6.041  14.072 -0.1921 -1.7979  0.2608
12177TIP3   OH258021   1.327   5.639   3.907  0.3001  0.4323 -0.2833
12177TIP3    H158022   1.363   5.658   3.820  1.6561 -0.2915  0.1037
12177TIP3    H258023   1.350   5.547   3.922  0.3083  0.6360  0.9573
12178TIP3   OH258024   4.221   5.338  14.909 -0.5833  0.4452  0.3481
12178TIP3    H158025   4.176   5.272  14.962  1.8488 -1.5209  0.0221
12178TIP3    H258026   4.192   5.422  14.947 -1.0177 -0.8550  3.0130
12179TIP3   OH258027   0.946   2.625   2.859  0.0650  0.4927 -0.0934
12179TIP3    H158028   0.886   2.695   2.833  1.0533  0.9456 -1.1469
12179TIP3    H258029   0.939   2.622   2.955 -0.8031  1.2752 -0.1258
12180TIP3   OH258030   2.123   4.944   1.466  0.1721 -0.2669  0.3175
12180TIP3    H158031   2.064   5.018   1.480  0.1677 -0.2633  0.2811
12180TIP3    H258032   2.090   4.876   1.525  0.3851 -0.1183  0.6135
12181TIP3   OH258033   1.972   5.043   2.653 -0.3121 -0.2200 -0.2460
12181TIP3    H158034   1.897   4.984   2.647  1.0688 -2.0574  0.0320
12181TIP3    H258035   2.041   5.000   2.603  0.6093  1.3712 -0.3875
12182TIP3   OH258036   1.671   2.372   0.857 -0.0268  0.7856 -0.2241
12182TIP3    H158037   1.659   2.371   0.952 -1.6962  3.0849 -0.3670
12182TIP3    H258038   1.588   2.405   0.823  0.4159 -0.3905 -2.5257
12183TIP3   OH258039   1.635   5.353   2.037  0.0246  0.2444  0.3978
12183TIP3    H158040   1.697   5.312   2.098 -0.4902 -2.2677 -0.7487
12183TIP3    H258041   1.550   5.318   2.061 -0.1702 -0.8897 -1.8400
12184TIP3   OH258042   0.040   4.222   0.774 -0.4932  0.1322 -0.0600
12184TIP3    H158043   0.025   4.149   0.833  1.1341 -1.6828 -1.8044
12184TIP3    H258044  -0.037   4.224   0.717 -0.3322 -0.5404 -0.3067
12185TIP3   OH258045   0.847   4.267  15.168 -0.2431 -0.0371 -0.1259
12185TIP3    H158046   0.813   4.220  15.244  0.4222 -0.1517  0.1081
12185TIP3    H258047   0.882   4.349  15.205 -0.1551  0.0226 -0.3443
12186TIP3   OH258048   2.124   2.833  14.744  0.3781  0.1464 -0.2614
12186TIP3    H158049   2.088   2.916  14.714 -0.5238 -0.3759 -0.6476
12186TIP3    H258050   2.068   2.807  14.817  1.0762  0.2080  0.3110
12187TIP3   OH258051   6.487   3.049   0.635  0.6428  0.0025 -0.4199
12187TIP3    H158052   6.423   3.112   0.670  1.0080  0.3907 -0.4484
12187TIP3    H258053   6.435   2.992   0.578  0.3451  0.4335 -0.5888
12188TIP3   OH258054   3.895   4.454   0.589  0.0494 -0.7730  0.0326
12188TIP3    H158055   3.804   4.429   0.577 -0.2986 -0.7155  2.3307
12188TIP3    H258056   3.911   4.444   0.683  1.9882  0.6336 -0.1061
12189TIP3   OH258057   0.451   3.251  15.482 -0.2033  0.7613  0.1150
12189TIP3    H158058   0.492   3.210  15.406 -1.3085 -1.6294  0.7485
12189TIP3    H258059   0.477   3.196  15.556 -0.4478  2.1301  1.2348
12190TIP3   OH258060   6.470   3.653   0.751 -0.1794 -0.2064 -0.4292
12190TIP3    H158061   6.511   3.650   0.664  1.4102 -0.4657  0.2991
12190TIP3    H258062   6.482   3.564   0.786 -2.9794 -0.8085 -0.8821
12191TIP3   OH258063   7.161   4.304   2.229 -0.3400 -0.7363 -0.0904
12191TIP3    H158064   7.223   4.371   2.257  0.1103 -2.1799  2.5365
12191TIP3    H258065   7.155   4.314   2.134  1.6626  1.3376 -0.0194
12192TIP3   OH258066   2.139   5.814   2.656 -0.0662  0.1327  0.6822
12192TIP3    H158067   2.199   5.863   2.713  1.0056 -0.6981  0.2880
12192TIP3    H258068   2.194   5.785   2.584 -1.1181 -0.0302 -0.0630
12193TIP3   OH258069   1.926   3.267   0.858  0.0342  0.0908 -0.0507
12193TIP3    H158070   1.870   3.334   0.897 -0.9134  0.4968 -2.0391
12193TIP3    H258071   1.868   3.215   0.803  1.4285 -0.0303 -1.4560
12194TIP3   OH258072   7.340   4.579  13.702 -0.7518 -0.6481 -0.0923
12194TIP3    H158073   7.298   4.505  13.744 -0.1381 -1.4285 -0.8357
12194TIP3    H258074   7.360   4.549  13.613 -0.5261  0.4121 -0.4164
12195TIP3   OH258075   2.227   4.191   0.720 -0.0827 -0.2666  0.6479
12195TIP3    H158076   2.162   4.254   0.690  0.9178  1.7244  2.5065
12195TIP3    H258077   2.309   4.241   0.723  1.4704 -2.5800 -1.1837
12196TIP3   OH258078   6.865   3.192   0.094  0.0413 -1.0710 -0.0761
12196TIP3    H158079   6.893   3.282   0.110 -0.0444 -1.0126 -0.2549
12196TIP3    H258080   6.924   3.138   0.147 -1.5688 -0.7572  2.1210
12197TIP3   OH258081   7.082   2.483   0.911  0.1330 -0.1324 -0.2829
12197TIP3    H158082   7.140   2.415   0.944  0.5421  1.1191  1.6301
12197TIP3    H258083   7.139   2.542   0.861 -0.2571 -1.2732 -2.1283
12198TIP3   OH258084   0.533   4.515   2.466 -0.3361  0.1994 -0.3567
12198TIP3    H158085   0.493   4.584   2.413 -0.5517  1.3401  1.2576
12198TIP3    H258086   0.467   4.495   2.533  0.1394 -0.8442 -0.1935
12199TIP3   OH258087   7.014   3.038   1.058 -0.1492  0.2346  0.0347
12199TIP3    H158088   6.992   3.114   1.112 -2.2215 -1.1582  1.2459
12199TIP3    H258089   7.085   2.995   1.106  0.3663  0.8814 -0.1458
12200TIP3   OH258090   6.534   4.166   1.009  0.0931  0.5261 -0.0961
12200TIP3    H158091   6.445   4.144   0.982 -0.5328  2.0185  0.6585
12200TIP3    H258092   6.546   4.257   0.981  1.1437  0.5502  0.3839
12201TIP3   OH258093   1.777   3.172   1.976  0.2827 -0.3625 -0.0659
12201TIP3    H158094   1.848   3.135   2.029  2.2392  0.7455 -1.8631
12201TIP3    H258095   1.753   3.102   1.916  0.2433 -0.5495  0.1670
12202TIP3   OH258096   0.404   5.501   3.313  0.3855 -0.1788 -0.0134
12202TIP3    H158097   0.355   5.582   3.302  0.8608  0.2702  1.0372
12202TIP3    H258098   0.361   5.457   3.386  1.5761  0.2650  0.9855
12203TIP3   OH258099   4.474   5.521   0.748  0.3623 -0.4994  0.1684
12203TIP3    H158100   4.441   5.432   0.736  1.4458 -0.8158 -0.5342
12203TIP3    H258101   4.489   5.529   0.842  2.2240 -1.7819 -0.0050
12204TIP3   OH258102   0.036   3.224  15.617 -0.6519 -0.0921  0.1503
12204TIP3    H158103  -0.047   3.178  15.608 -0.3426 -0.8641  1.1194
12204TIP3    H258104   0.103   3.158  15.601 -0.2123  0.7329 -1.5642
12205TIP3   OH258105   0.238   5.711   1.469 -0.4288 -0.4422 -0.2652
12205TIP3    H158106   0.184   5.640   1.436  1.2751 -2.4826  1.2348
12205TIP3    H258107   0.326   5.692   1.438  0.7577 -1.0696  3.2174
12206TIP3   OH258108   1.486   4.324  15.595  0.6654  0.3146  0.2424
12206TIP3    H158109   1.448   4.386  15.533 -0.0425 -0.7080 -0.3727
12206TIP3    H258110   1.553   4.278  15.543  2.4471  1.7978  1.1901
12207TIP3   OH258111   1.252   5.560  15.552  0.6055  0.5748  0.1180
12207TIP3    H158112   1.206   5.476  15.544  0.8950  0.3169  1.0681
12207TIP3    H258113   1.340   5.542  15.518  1.2366 -0.0069  1.9886
12208TIP3   OH258114   1.883   3.788   0.804  0.3374  0.0557 -0.4561
12208TIP3    H158115   1.977   3.774   0.796  0.4669  1.5118 -1.5823
12208TIP3    H258116   1.845   3.724   0.743  0.6114 -0.2191 -0.3419
12209TIP3   OH258117   1.276   5.011  14.920  0.4216 -0.2957 -0.1837
12209TIP3    H158118   1.297   5.101  14.896 -0.6913  0.0918  0.2883
12209TIP3    H258119   1.283   5.009  15.015 -0.5677 -0.4510 -0.1139
12210TIP3   OH258120   1.628   4.173   1.282 -0.2102  0.0379  0.6396
12210TIP3    H158121   1.712   4.128   1.279  0.3901  1.2054 -1.0467
12210TIP3    H258122   1.566   4.111   1.246 -0.0734 -0.8104  1.8335
12211TIP3   OH258123   1.980   4.954   0.121  0.1764  0.5754  0.0224
12211TIP3    H158124   1.937   4.964   0.036  0.6494 -3.0373 -0.7321
12211TIP3    H258125   2.070   4.927   0.099  0.9447  1.6996  1.6653
12212TIP3   OH258126   0.240   6.329   2.258  0.4238 -0.4564 -0.0798
12212TIP3    H158127   0.227   6.280   2.176  0.7475  1.8703 -1.5778
12212TIP3    H258128   0.321   6.377   2.244  0.7902 -0.4886  1.8634
12213TIP3   OH258129   0.812   1.016  14.953 -0.3647 -0.6157 -0.4109
12213TIP3    H158130   0.829   0.930  14.992 -3.0974 -0.7944  0.4481
12213TIP3    H258131   0.879   1.073  14.992 -1.0711 -1.4853  2.1532
12214TIP3   OH258132   7.071   1.342   1.813  0.5281 -0.2661 -0.2839
12214TIP3    H158133   7.044   1.296   1.893  1.3180 -0.7056 -0.2734
12214TIP3    H258134   7.029   1.293   1.742 -2.2939  1.6324  0.0086
12215TIP3   OH258135   0.840   4.100  14.953  0.5773  0.0911 -0.3902
12215TIP3    H158136   0.825   4.169  15.018 -0.2632  0.1344 -0.6294
12215TIP3    H258137   0.910   4.047  14.991 -0.1264 -0.0703  0.7034
12216TIP3   OH258138   0.043   3.914   0.956 -0.4027  0.2041  0.4225
12216TIP3    H158139   0.003   3.910   0.869  0.6943  2.7290 -0.2541
12216TIP3    H258140   0.137   3.915   0.939 -0.1456 -0.7759  1.7389
12217TIP3   OH258141   1.985   4.496  14.563 -0.1062  0.6233  0.3330
12217TIP3    H158142   1.949   4.408  14.575  1.3159 -0.1599 -0.9084
12217TIP3    H258143   2.010   4.499  14.470 -0.2157  2.3660  0.3471
12218TIP3   OH258144   6.263   4.709  14.981 -0.0064  0.7377  0.3506
12218TIP3    H158145   6.317   4.676  15.053  0.2966  0.0781 -0.1771
12218TIP3    H258146   6.174   4.682  15.004  0.4235 -1.8246 -0.8220
12219TIP3   OH258147   0.405   3.076  14.795  0.2835 -0.2262  0.2888
12219TIP3    H158148   0.435   3.144  14.855 -0.9140  0.2707  0.3172
12219TIP3    H258149   0.480   3.016  14.789  1.6440  1.5008 -0.3762
12220TIP3   OH258150   0.699   4.850  13.879  0.5209 -0.0513  0.1188
12220TIP3    H158151   0.720   4.814  13.966  0.8507  0.9472  0.4580
12220TIP3    H258152   0.603   4.845  13.874  0.5272 -0.4998  0.3693
12221TIP3   OH258153   1.952   4.999   0.400 -0.9467  0.3029  0.0785
12221TIP3    H158154   2.043   4.969   0.411 -0.5279  0.8129 -1.7596
12221TIP3    H258155   1.913   4.935   0.341 -1.3241  0.9592 -0.3847
12222TIP3   OH258156   2.488   0.763   1.874  0.9187 -0.2673  0.1103
12222TIP3    H158157   2.579   0.779   1.898  1.0499 -1.1516  0.2459
12222TIP3    H258158   2.464   0.836   1.817  2.0817 -0.6493 -0.8846
12223TIP3   OH258159   1.260   3.129  15.655  0.5633 -0.1876 -0.2415
12223TIP3    H158160   1.195   3.198  15.646 -0.1967 -0.6479  1.4819
12223TIP3    H258161   1.326   3.149  15.588 -0.4160  1.3237 -0.7743
12224TIP3   OH258162   1.256   4.027   1.420 -0.4691 -0.4841  0.3457
12224TIP3    H158163   1.343   3.998   1.447 -0.4898 -0.3513  0.5542
12224TIP3    H258164   1.202   3.948   1.421 -0.6563 -0.3515  1.4168
12225TIP3   OH258165   7.196   4.468   0.634 -0.3730 -0.0414 -0.1558
12225TIP3    H158166   7.168   4.466   0.542  2.0614  2.1747 -1.0270
12225TIP3    H258167   7.126   4.517   0.679 -0.8140  0.2631 -1.1497
12226TIP3   OH258168   2.497   3.950   3.281 -0.1799  0.1495 -0.7236
12226TIP3    H158169   2.449   3.870   3.302  0.3324  0.4371  1.5888
12226TIP3    H258170   2.516   3.991   3.365  1.0379  1.8608 -1.7816
12227TIP3   OH258171   2.714   4.447   2.962  0.3102  0.1196  0.2479
12227TIP3    H158172   2.686   4.370   2.912  0.1111  0.9192 -0.8743
12227TIP3    H258173   2.807   4.455   2.943  0.1475  0.6685 -0.3381
12228TIP3   OH258174   3.359   7.236   1.702  0.5931 -0.4174  0.7900
12228TIP3    H158175   3.389   7.158   1.748  0.5706  0.3355  2.0930
12228TIP3    H258176   3.435   7.265   1.651  1.1443 -0.2617  1.6987
12229TIP3   OH258177   1.542   5.473   0.632 -0.6298  0.5184 -0.3237
12229TIP3    H158178   1.601   5.548   0.632 -0.8260  0.6736 -1.3723
12229TIP3    H258179   1.573   5.418   0.560 -1.9083  0.7151 -1.0350
12230TIP3   OH258180   0.404   3.597  15.955 -0.0745 -0.3556  0.3185
12230TIP3    H158181   0.398   3.554  15.870 -0.8854 -1.1071  0.7513
12230TIP3    H258182   0.319   3.640  15.967 -0.1071 -0.5769  0.9178
12231TIP3   OH258183   2.254   4.784   0.903 -0.0945 -0.6964  0.0737
12231TIP3    H158184   2.271   4.741   0.987 -1.4090  0.6592  1.0486
12231TIP3    H258185   2.309   4.862   0.905  0.7222 -1.2383 -0.8177
12232TIP3   OH258186   7.029   5.597  15.131  0.3416  0.4317  0.0616
12232TIP3    H158187   6.989   5.646  15.059  0.2698  0.3582  0.0509
12232TIP3    H258188   7.088   5.535  15.088 -1.0824 -0.8916 -0.0392
12233TIP3   OH258189   0.576   3.520   2.077 -0.9234  0.3381 -0.1312
12233TIP3    H158190   0.533   3.603   2.098  0.6861  1.2441 -0.3521
12233TIP3    H258191   0.612   3.533   1.989  0.1220 -0.2709  0.2035
12234TIP3   OH258192   2.523   6.416  15.448  0.2391  0.2388  0.2641
12234TIP3    H158193   2.441   6.373  15.471 -0.6740  1.2815 -1.0056
12234TIP3    H258194   2.566   6.355  15.387  0.6153 -0.4970  1.2551
12235TIP3   OH258195   2.900   5.904   0.170 -0.0237 -0.0283 -0.2866
12235TIP3    H158196   2.891   5.996   0.143 -1.5357 -0.4102 -1.1263
12235TIP3    H258197   2.986   5.878   0.137 -0.1818  0.6773 -1.2818
12236TIP3   OH258198   3.119   4.276  15.643  0.0759  0.4164 -0.4652
12236TIP3    H158199   3.123   4.200  15.585 -1.5394 -0.1914  0.1846
12236TIP3    H258200   3.026   4.293  15.653  0.3491  0.8997  1.4347
12237TIP3   OH258201   4.434   3.048   0.078  0.0951 -0.0777  0.3018
12237TIP3    H158202   4.394   3.076  -0.004  0.0641  1.5744  0.8610
12237TIP3    H258203   4.395   3.105   0.145  0.9984 -0.6041  1.2961
12238TIP3   OH258204   2.701   2.811  14.593  0.0220  0.4912 -0.4465
12238TIP3    H158205   2.728   2.862  14.516  2.4232  1.9074  1.2719
12238TIP3    H258206   2.634   2.865  14.635 -1.9650 -0.7000 -1.9582
12239TIP3   OH258207   2.894   3.847  14.955 -0.0601 -0.1967  0.0296
12239TIP3    H158208   2.845   3.800  14.888 -1.3953  3.9396 -2.0629
12239TIP3    H258209   2.986   3.836  14.930 -0.4138 -0.7059 -1.0720
12240TIP3   OH258210   1.440   4.790   0.849  0.2733  0.7752 -0.4663
12240TIP3    H158211   1.497   4.826   0.781 -0.3311  3.4662  0.3820
12240TIP3    H258212   1.500   4.766   0.920  0.8261 -1.3138 -1.6116
12241TIP3   OH258213   0.572   3.648   0.192  0.0872  0.6896  0.0386
12241TIP3    H158214   0.662   3.643   0.159 -0.3692 -0.0212 -1.1258
12241TIP3    H258215   0.518   3.650   0.113 -0.8413  3.0195  0.6994
12242TIP3   OH258216   4.192   5.508  15.844  0.1529  0.1071 -0.1792
12242TIP3    H158217   4.178   5.474  15.755 -0.1382 -1.5847  0.5027
12242TIP3    H258218   4.273   5.465  15.873 -0.2518 -0.0397  0.7264
12243TIP3   OH258219   5.129   4.505   0.442 -0.2297 -0.1491  0.6000
12243TIP3    H158220   5.076   4.431   0.472 -2.4023  1.2017  0.2018
12243TIP3    H258221   5.220   4.477   0.457 -0.9687 -3.0542  0.0317
12244TIP3   OH258222   0.473   2.408   3.404 -0.0342  0.0286  0.4159
12244TIP3    H158223   0.479   2.444   3.316  0.0990  0.1083  0.4571
12244TIP3    H258224   0.508   2.477   3.461 -2.0237  0.8055  0.7485
12245TIP3   OH258225   1.951   4.478   3.263  0.0231  0.5445  0.2654
12245TIP3    H158226   1.880   4.437   3.312 -0.8254  0.3081 -1.1538
12245TIP3    H258227   2.016   4.500   3.330  0.3634 -2.7694  1.1063
12246TIP3   OH258228   5.371   3.230  14.964  0.4850 -0.0485  0.3926
12246TIP3    H158229   5.303   3.215  15.030 -0.6013  0.5124 -0.5674
12246TIP3    H258230   5.358   3.321  14.936 -0.2746 -0.8174 -1.8980
12247TIP3   OH258231   2.085   3.742   0.123 -0.1881 -0.5811 -0.3899
12247TIP3    H158232   2.043   3.822   0.155  1.9687  0.7171 -0.6909
12247TIP3    H258233   2.169   3.739   0.168  0.0752 -2.2882 -0.9546
12248TIP3   OH258234   4.513   4.193  15.829 -0.5664  0.0031 -0.2341
12248TIP3    H158235   4.588   4.250  15.844 -1.5937  1.3282 -0.0374
12248TIP3    H258236   4.445   4.227  15.887 -0.5089 -2.8365  1.6094
12249TIP3   OH258237   2.631   5.031   1.588 -0.0907  0.0096  0.0784
12249TIP3    H158238   2.539   5.055   1.576 -0.2224 -0.8404 -0.6715
12249TIP3    H258239   2.661   5.087   1.660 -1.1252  0.4647  0.1700
12250TIP3   OH258240   0.422   3.624   1.701 -0.5139 -0.0211 -0.1719
12250TIP3    H158241   0.425   3.707   1.748 -1.6863  0.7625 -1.4603
12250TIP3    H258242   0.329   3.599   1.703 -0.7286  0.4360 -2.7479
12251TIP3   OH258243   4.945   6.102   1.299 -0.4837 -0.1920 -0.1901
12251TIP3    H158244   4.857   6.115   1.263 -0.7668 -1.9291 -0.1692
12251TIP3    H258245   4.931   6.047   1.376  0.6879 -1.1625 -0.6501
12252TIP3   OH258246   2.838   2.506   1.845  0.7681 -0.4529  0.0296
12252TIP3    H158247   2.849   2.412   1.833  0.4786 -0.4302 -0.4097
12252TIP3    H258248   2.811   2.515   1.936 -2.0389 -1.0365 -0.6931
12253TIP3   OH258249   0.541   4.626   1.148  0.0634  0.3780 -0.1314
12253TIP3    H158250   0.514   4.717   1.134 -0.9248  0.0457 -0.3848
12253TIP3    H258251   0.563   4.622   1.241 -2.5044  0.1984  0.4788
12254TIP3   OH258252   4.192   5.820   2.201 -0.2043  0.0986  0.2955
12254TIP3    H158253   4.223   5.827   2.291 -1.6333  0.0649  0.8038
12254TIP3    H258254   4.138   5.740   2.201 -1.9984  1.2704 -0.0244
12255TIP3   OH258255   3.520   5.957  15.135  0.1765 -0.0967  0.2122
12255TIP3    H158256   3.544   5.871  15.170 -1.9832  0.2602  2.7006
12255TIP3    H258257   3.590   6.016  15.167 -0.7167 -0.1430  2.3708
12256TIP3   OH258258   3.130   5.502   1.572 -0.0688  0.8565 -0.4613
12256TIP3    H158259   3.182   5.535   1.499  0.5161  1.1528  0.0884
12256TIP3    H258260   3.184   5.434   1.612 -0.8053 -0.0069 -0.9077
12257TIP3   OH258261   2.983   5.763  14.906 -0.0651 -0.3406 -0.4997
12257TIP3    H158262   2.904   5.783  14.957  0.8533  1.7497  0.1806
12257TIP3    H258263   2.960   5.786  14.816 -0.2165  0.3934 -0.2810
12258TIP3   OH258264   4.864   5.063  15.758 -0.0585 -0.1714 -0.4967
12258TIP3    H158265   4.841   5.004  15.830  1.7147 -0.2433  0.0217
12258TIP3    H258266   4.798   5.133  15.762 -0.6521 -0.7727  0.4636
12259TIP3   OH258267   1.041   4.917  14.769  0.0194  0.6594 -0.6094
12259TIP3    H158268   1.000   4.989  14.816 -0.1180 -1.0723  2.0447
12259TIP3    H258269   1.134   4.924  14.790 -0.1461 -0.5779  0.5775
12260TIP3   OH258270   4.878   4.613  15.713  0.0061  0.3498  0.0298
12260TIP3    H158271   4.800   4.567  15.682  1.7126 -1.1750 -2.2222
12260TIP3    H258272   4.900   4.570  15.796  0.2172 -1.4003 -0.8920
12261TIP3   OH258273   3.231   2.519   1.990 -0.0981 -0.5853 -0.3317
12261TIP3    H158274   3.168   2.533   2.061 -1.1087 -0.4284 -1.2560
12261TIP3    H258275   3.243   2.606   1.952  0.0609 -0.7600 -0.6819
12262TIP3   OH258276   2.519   3.654  15.496  0.0218 -0.5546  0.1242
12262TIP3    H158277   2.520   3.748  15.514  1.2655 -0.7448  1.1252
12262TIP3    H258278   2.484   3.647  15.407  0.3222  0.8846 -0.1240
12263TIP3   OH258279   2.287   5.436   1.021 -0.6271  0.0958 -0.4115
12263TIP3    H158280   2.341   5.376   0.970 -1.5116 -0.0325 -1.2068
12263TIP3    H258281   2.244   5.382   1.087 -0.0166  0.1496  0.0293
12264TIP3   OH258282   5.148   4.463  14.792 -0.2274  0.0704 -0.4694
12264TIP3    H158283   5.133   4.502  14.707  2.2928 -0.1608 -1.0717
12264TIP3    H258284   5.191   4.532  14.843 -1.5798  0.1582  0.5770
12265TIP3   OH258285   3.152   1.795   1.517  0.2520 -0.4223 -0.9370
12265TIP3    H158286   3.177   1.882   1.485 -0.1911  0.2891  0.6097
12265TIP3    H258287   3.061   1.805   1.545 -0.0717 -1.6139 -1.5039
12266TIP3   OH258288   2.491   2.445   0.760 -0.3607 -0.1764 -0.1007
12266TIP3    H158289   2.496   2.362   0.711  0.4413  0.0301 -0.3873
12266TIP3    H258290   2.438   2.424   0.837 -1.9755 -0.3954 -1.2533
12267TIP3   OH258291   7.074   7.010   0.337 -0.0778  0.0693  0.1732
12267TIP3    H158292   7.032   6.962   0.265  0.6994 -2.8816  1.6000
12267TIP3    H258293   7.013   7.000   0.411  0.6852  0.2016  0.8315
12268TIP3   OH258294   7.310   5.746  15.975 -0.4326  0.0156  0.0115
12268TIP3    H158295   7.344   5.782  16.057  1.2802 -1.2864 -0.1043
12268TIP3    H258296   7.261   5.668  16.000 -0.7241  0.1514 -0.1237
12269TIP3   OH258297   2.809   5.006   2.194  0.1866  0.2437  0.0070
12269TIP3    H158298   2.811   5.052   2.278 -0.9109 -2.1658  1.3806
12269TIP3    H258299   2.899   4.979   2.179  0.3751  0.6399  0.4284
12270TIP3   OH258300   2.016   3.190   1.496  0.0105 -0.1462  0.2151
12270TIP3    H158301   1.927   3.224   1.503 -0.3972 -1.3800  1.1149
12270TIP3    H258302   2.068   3.249   1.552 -0.1587  0.8061 -0.6173
12271TIP3   OH258303   4.210   2.940  15.391 -0.1848  0.2098  0.1510
12271TIP3    H158304   4.184   2.940  15.299 -0.0414 -0.2309  0.1085
12271TIP3    H258305   4.139   2.987  15.436  0.0909  1.0397 -0.2740
12272TIP3   OH258306   1.096   3.320  15.575  0.0607 -0.1376 -0.2317
12272TIP3    H158307   1.089   3.405  15.532 -0.1489  0.4567  0.9314
12272TIP3    H258308   1.005   3.290  15.583  0.1462 -0.5232 -0.7614
12273TIP3   OH258309   1.525   5.977  15.724 -0.0063 -0.3094 -0.1718
12273TIP3    H158310   1.462   6.046  15.746  0.4983  0.8820 -2.3266
12273TIP3    H258311   1.494   5.941  15.641  0.8127 -1.3692 -0.0245
12274TIP3   OH258312   2.414   3.204   1.839 -0.3142  0.4108  0.2100
12274TIP3    H158313   2.355   3.233   1.908 -0.6220 -0.1500  0.1870
12274TIP3    H258314   2.414   3.275   1.775  0.3351  1.1377  1.0062
12275TIP3   OH258315   0.365   4.134  15.740  0.4544 -0.2701  0.0838
12275TIP3    H158316   0.280   4.120  15.699  0.7353  1.7842 -1.2943
12275TIP3    H258317   0.351   4.207  15.800  0.2949 -2.6053  3.0205
12276TIP3   OH258318   3.765   5.005   2.942  0.1899  0.3263  0.4238
12276TIP3    H158319   3.800   4.945   2.876  0.8476  1.3131 -0.1462
12276TIP3    H258320   3.736   4.949   3.013 -1.3072 -0.8204 -1.0678
12277TIP3   OH258321   2.159   6.382  15.976 -0.7251 -0.0437 -0.4005
12277TIP3    H158322   2.251   6.379  15.952 -0.8022  0.6381 -0.7974
12277TIP3    H258323   2.114   6.410  15.896 -1.3194 -0.7508 -0.3212
12278TIP3   OH258324   1.387   4.716   0.374 -0.2545 -0.2960  0.2713
12278TIP3    H158325   1.317   4.750   0.429 -0.4459 -0.8749  0.3876
12278TIP3    H258326   1.467   4.755   0.409 -0.3420 -0.8819  1.1387
12279TIP3   OH258327   3.099   5.500  15.701 -0.4224 -0.1791 -0.0769
12279TIP3    H158328   3.106   5.595  15.699  0.4104 -0.2407 -0.2954
12279TIP3    H258329   3.177   5.470  15.747 -0.0058 -0.8113 -1.1505
12280TIP3   OH258330   1.808   4.713  14.645  0.3102 -0.2483  0.6132
12280TIP3    H158331   1.883   4.663  14.613  0.3989 -0.3759  1.0147
12280TIP3    H258332   1.783   4.669  14.726  0.9902  0.9054  1.4689
12281TIP3   OH258333   1.120   5.118   0.521  0.1717  0.2431 -0.2394
12281TIP3    H158334   1.076   5.034   0.505 -0.6940  0.4564  0.8890
12281TIP3    H258335   1.056   5.184   0.493  0.1008  0.5440  0.6182
12282TIP3   OH258336   3.360   5.594   0.339 -0.1706  0.0944  0.3979
12282TIP3    H158337   3.294   5.565   0.277  1.2331 -2.7998  0.1422
12282TIP3    H258338   3.317   5.588   0.424 -1.0963  0.9735  0.0042
12283TIP3   OH258339   1.626   4.519   1.891  0.2661 -0.0566 -0.1323
12283TIP3    H158340   1.660   4.559   1.970  0.1979 -0.6782  0.2196
12283TIP3    H258341   1.629   4.588   1.825  1.2314  0.1797  0.1622
12284TIP3   OH258342   1.011   3.942  15.113 -0.0409 -0.1322 -0.0676
12284TIP3    H158343   1.096   3.929  15.071 -0.1111  1.1167 -0.6131
12284TIP3    H258344   1.031   3.989  15.193  0.0145 -1.8899  0.9881
12285TIP3   OH258345   1.414   4.051  15.600  0.0207 -0.1191  0.1642
12285TIP3    H158346   1.505   4.032  15.620  0.2865 -0.5018 -1.3690
12285TIP3    H258347   1.414   4.144  15.576 -0.0892  0.0186  0.6885
12286TIP3   OH258348   6.756   4.732   0.856  0.5324 -0.1204  0.5019
12286TIP3    H158349   6.738   4.671   0.928 -0.6991  0.0841  0.3837
12286TIP3    H258350   6.669   4.757   0.823  1.0554  0.6210 -0.3559
12287TIP3   OH258351   4.755   5.106   0.277  0.2002  0.6555 -0.1016
12287TIP3    H158352   4.837   5.134   0.236  0.7456  0.8656  1.1279
12287TIP3    H258353   4.723   5.185   0.321 -1.0231  0.7618 -1.1502
12288TIP3   OH258354   4.602   3.561  15.067 -0.7661 -0.1052 -0.0449
12288TIP3    H158355   4.531   3.561  15.131 -2.0048  0.8272 -1.4218
12288TIP3    H258356   4.588   3.639  15.014  1.9480  0.7449  0.3795
12289TIP3   OH258357   1.702   5.371   0.422 -0.0261 -0.3359 -0.4943
12289TIP3    H158358   1.697   5.451   0.370  1.5065  0.5408  0.6818
12289TIP3    H258359   1.754   5.311   0.369 -1.5589 -0.7416 -1.5820
12290TIP3   OH258360   0.389   4.647  15.362 -0.2740  0.2341 -0.3753
12290TIP3    H158361   0.484   4.644  15.350 -0.1608  0.1046  0.4965
12290TIP3    H258362   0.371   4.578  15.427 -1.0407 -0.1998 -1.0437
12291TIP3   OH258363   4.046   5.606  13.747 -0.2238 -0.3578 -0.1892
12291TIP3    H158364   4.090   5.645  13.822  0.7854  0.4649 -1.2028
12291TIP3    H258365   4.053   5.672  13.678 -1.2950 -1.0371 -0.9583
12292TIP3   OH258366   1.475   4.579   1.540  0.0324 -0.1982 -0.4775
12292TIP3    H158367   1.548   4.634   1.566  0.0607  0.7304 -2.4331
12292TIP3    H258368   1.515   4.496   1.515  0.6146  0.8642 -3.1505
12293TIP3   OH258369   3.305   5.254  13.456  0.6219  0.1442  0.6268
12293TIP3    H158370   3.301   5.349  13.469  0.5174  0.0985  0.9387
12293TIP3    H258371   3.226   5.233  13.406 -1.2011 -0.2303  3.5086
12294TIP3   OH258372   3.505   4.301   1.333  0.3285 -0.2986  0.0573
12294TIP3    H158373   3.484   4.341   1.249 -0.3154 -2.0585 -0.6234
12294TIP3    H258374   3.423   4.304   1.383  0.6268  0.4521  0.5109
12295TIP3   OH258375   1.946   4.163   1.367  0.2106  0.3367  0.2570
12295TIP3    H158376   1.910   4.236   1.318  1.5468  2.1981  1.9852
12295TIP3    H258377   2.027   4.140   1.321  0.7184  1.1482  0.7228
12296TIP3   OH258378   0.944   3.836   2.515 -0.2478 -0.6721  0.4999
12296TIP3    H158379   0.905   3.831   2.602  0.3395 -1.1591  0.7321
12296TIP3    H258380   1.011   3.904   2.522 -0.2485 -0.6620  0.4083
12297TIP3   OH258381   0.676   5.793  15.827  0.3493 -0.1878 -0.2000
12297TIP3    H158382   0.656   5.709  15.786 -0.5305 -0.6310  1.1221
12297TIP3    H258383   0.767   5.786  15.855 -0.0751 -1.1383  0.9573
12298TIP3   OH258384   5.535   3.643  14.983  0.2910  0.2885 -0.1316
12298TIP3    H158385   5.441   3.662  14.984  0.5722  1.6992  1.1790
12298TIP3    H258386   5.546   3.582  14.910 -1.0122  3.3487 -3.0386
12299TIP3   OH258387   0.635   4.298   2.284 -0.5219 -0.3739  0.6681
12299TIP3    H158388   0.606   4.385   2.311 -0.3326 -0.3358  0.7501
12299TIP3    H258389   0.596   4.286   2.197  0.4658  0.2946  0.1361
12300TIP3   OH258390   6.442   4.590  15.642 -0.2487 -0.1939 -0.3368
12300TIP3    H158391   6.490   4.667  15.671  0.8669 -0.7349 -0.6928
12300TIP3    H258392   6.391   4.619  15.567 -0.7655  0.4768  0.2706
12301TIP3   OH258393   3.503   5.015  15.829 -0.7131  0.4525  0.1792
12301TIP3    H158394   3.564   5.029  15.901  0.0567 -1.3643 -0.0858
12301TIP3    H258395   3.446   4.944  15.860 -0.5609 -0.1422 -0.8853
12302TIP3   OH258396   3.221   5.411   0.831  0.3271 -0.4920 -0.1891
12302TIP3    H158397   3.195   5.404   0.922  1.2390  1.6366  0.2549
12302TIP3    H258398   3.218   5.504   0.811 -0.5379 -0.9753 -2.5509
12303TIP3   OH258399   3.588   3.556  15.000 -0.3680  0.7786  0.0312
12303TIP3    H158400   3.625   3.474  14.968 -0.1011  0.8712  0.1021
12303TIP3    H258401   3.647   3.583  15.070  0.0281  1.4833 -0.5757
12304TIP3   OH258402   2.337   6.624   2.351 -0.1647 -0.3437 -0.2838
12304TIP3    H158403   2.357   6.531   2.360 -1.2069 -0.4336  1.3380
12304TIP3    H258404   2.270   6.627   2.282 -0.7277 -0.8924  0.2296
12305TIP3   OH258405   3.619   6.537   3.439 -0.3040  0.3568  0.0296
12305TIP3    H158406   3.546   6.568   3.385 -0.4875  0.0308  0.0868
12305TIP3    H258407   3.601   6.443   3.452 -0.4395  0.5037  0.9357
12306TIP3   OH258408   1.677   5.701   0.672  0.4427 -0.0407  0.3110
12306TIP3    H158409   1.631   5.779   0.702 -1.5384 -1.3550  0.7886
12306TIP3    H258410   1.761   5.734   0.639 -0.6650  2.3648 -0.2319
12307TIP3   OH258411   0.403   2.211   1.293  0.7383  0.1490 -0.5218
12307TIP3    H158412   0.462   2.230   1.366 -1.6432  1.4368  1.1293
12307TIP3    H258413   0.372   2.122   1.309  1.0024  0.0494 -0.5509
12308TIP3   OH258414   6.096   4.269  14.915 -0.0435  0.3965 -0.0096
12308TIP3    H158415   6.099   4.354  14.959 -2.1168  1.0814 -1.1379
12308TIP3    H258416   6.155   4.281  14.840  2.2873 -0.2832  1.6483
12309TIP3   OH258417   1.488   3.782  15.808 -0.5364  0.3429  0.3034
12309TIP3    H158418   1.520   3.699  15.775  1.6490  1.7040 -1.1127
12309TIP3    H258419   1.396   3.784  15.783 -0.7850 -1.9174  0.9470
12310TIP3   OH258420   1.680   4.891  14.470  0.4454 -0.2120  0.1843
12310TIP3    H158421   1.731   4.877  14.550  1.2045 -0.5655 -0.3525
12310TIP3    H258422   1.606   4.832  14.478 -1.6061  2.4814  2.4112
12311TIP3   OH258423   2.611   4.809   1.318  0.8141  0.0074  0.2575
12311TIP3    H158424   2.577   4.772   1.400  0.2967 -0.4696 -0.1677
12311TIP3    H258425   2.586   4.746   1.251  0.9144  0.5776 -0.3232
12312TIP3   OH258426   3.312   5.497   2.124 -0.1967 -0.4607 -0.1192
12312TIP3    H158427   3.335   5.475   2.034  2.2010  0.4955  0.2234
12312TIP3    H258428   3.341   5.587   2.136 -2.7495  0.2925  0.8889
12313TIP3   OH258429   3.619   5.868  15.787  0.0099  0.2729  0.3760
12313TIP3    H158430   3.677   5.799  15.820  0.0684 -0.4300 -1.1477
12313TIP3    H258431   3.576   5.903  15.865  1.0173 -0.5386  1.3130
12314TIP3   OH258432   1.106   5.259   2.703  0.5140 -0.2956 -0.3774
12314TIP3    H158433   1.181   5.315   2.682  0.8496 -0.8098 -0.5528
12314TIP3    H258434   1.144   5.174   2.722 -0.0214 -0.5428 -0.4004
12315TIP3   OH258435   2.978   5.746   0.494 -0.2487  0.0889  0.0584
12315TIP3    H158436   2.932   5.810   0.441 -0.5914 -0.7990 -0.7214
12315TIP3    H258437   2.969   5.663   0.447  3.6370  0.1858 -1.0540
12316TIP3   OH258438   2.574   4.860   2.362  0.0280  0.2860 -0.2128
12316TIP3    H158439   2.482   4.846   2.339 -0.1719  0.5736  0.4043
12316TIP3    H258440   2.619   4.862   2.278 -0.3120 -1.4121 -0.4512
12317TIP3   OH258441   2.132   5.884   3.483  0.0699  0.5756 -0.3485
12317TIP3    H158442   2.042   5.910   3.463  0.5159  1.3174 -1.4463
12317TIP3    H258443   2.180   5.895   3.400  1.5006  1.6925  0.5834
12318TIP3   OH258444   0.375   3.236   1.392  0.8161 -0.7761  0.6666
12318TIP3    H158445   0.396   3.307   1.452 -0.3014  0.1646 -0.0262
12318TIP3    H258446   0.377   3.277   1.305  0.8765 -1.7530  0.2001
12319TIP3   OH258447   2.207   3.814  15.565  0.0554  0.2756  0.0233
12319TIP3    H158448   2.186   3.844  15.476 -0.0203 -1.6820 -0.6523
12319TIP3    H258449   2.277   3.872  15.594  0.5145  0.5579 -1.5717
12320TIP3   OH258450   2.781   3.334   1.628  0.3514 -0.0621  0.3438
12320TIP3    H158451   2.823   3.280   1.560  1.1136  0.6143  0.2718
12320TIP3    H258452   2.761   3.417   1.584 -0.3424 -0.0887  0.5975
12321TIP3   OH258453   4.120   4.692   1.904 -0.3610  0.6933  0.3071
12321TIP3    H158454   4.080   4.613   1.868 -1.4057  1.2638  0.1926
12321TIP3    H258455   4.198   4.661   1.950 -0.0576 -0.2535 -0.8257
12322TIP3   OH258456   2.722   6.522  13.929  0.3666 -0.1735  0.0746
12322TIP3    H158457   2.729   6.430  13.957  1.4989  0.3387  1.5494
12322TIP3    H258458   2.782   6.569  13.987 -0.9556  1.6532 -0.0054
12323TIP3   OH258459   1.354   4.758  15.568 -0.2214  0.0070 -0.7767
12323TIP3    H158460   1.435   4.763  15.619  0.1767 -0.2828 -1.3765
12323TIP3    H258461   1.319   4.847  15.570  1.6306  0.8415 -2.9792
12324TIP3   OH258462   2.768   4.526   0.003 -0.8936 -0.3531 -0.0848
12324TIP3    H158463   2.836   4.532   0.069 -0.4897  0.8611 -0.5813
12324TIP3    H258464   2.776   4.438  -0.033 -0.3744 -0.6254  0.6936
12325TIP3   OH258465   4.393   5.226  12.160  0.4183 -0.6260 -0.1157
12325TIP3    H158466   4.341   5.165  12.212 -1.3692  1.0856  0.1513
12325TIP3    H258467   4.460   5.171  12.118 -0.0541 -2.4803  1.4958
12326TIP3   OH258468   3.787   5.789   3.590  0.2311 -0.1700 -0.0355
12326TIP3    H158469   3.760   5.714   3.643 -1.0917 -0.6925 -1.4297
12326TIP3    H258470   3.739   5.863   3.627  0.6999 -0.1910  0.6359
12327TIP3   OH258471   2.949   5.208   1.036 -0.5349  0.2060  0.0599
12327TIP3    H158472   2.860   5.243   1.029  0.5011  3.0558  0.5666
12327TIP3    H258473   2.936   5.117   1.063 -3.3254  0.1327 -1.2679
12328TIP3   OH258474   1.059   6.210   0.124  0.1250  0.8374 -0.3679
12328TIP3    H158475   1.141   6.242   0.161  0.7556  0.7057 -1.6236
12328TIP3    H258476   1.003   6.195   0.200  1.8944 -0.8965  0.6354
12329TIP3   OH258477   2.033   6.095   0.298 -0.0017  0.0578 -0.1490
12329TIP3    H158478   2.066   6.008   0.321 -0.6534  0.1163  1.0270
12329TIP3    H258479   2.111   6.146   0.277  0.5147 -0.3171  0.8604
12330TIP3   OH258480   2.644   4.127   0.888  0.1211 -0.8399 -0.1390
12330TIP3    H158481   2.639   4.037   0.920 -2.8815 -0.5938  0.2864
12330TIP3    H258482   2.655   4.119   0.793 -3.6066 -1.7577 -0.5683
12331TIP3   OH258483   3.790   5.559   0.087  0.0130  0.1734 -0.5402
12331TIP3    H158484   3.866   5.505   0.110 -0.3734 -0.2766 -0.3196
12331TIP3    H258485   3.828   5.644   0.066  0.4865  0.3120  0.7581
12332TIP3   OH258486   0.160   4.966   0.170  0.0220  0.3613  0.0821
12332TIP3    H158487   0.249   4.945   0.140  0.2779 -0.2393  1.2089
12332TIP3    H258488   0.166   4.962   0.266 -1.5642 -1.1206  0.1461
12333TIP3   OH258489   1.711   4.237  15.814  0.3526 -0.5672  0.0851
12333TIP3    H158490   1.658   4.315  15.831  1.9734  0.3681  0.9100
12333TIP3    H258491   1.734   4.243  15.721  0.7819  0.1401  0.2344
12334TIP3   OH258492   1.474   3.511  15.712  0.2885  0.4701  0.3631
12334TIP3    H158493   1.523   3.432  15.737  0.4611  1.3664  2.9717
12334TIP3    H258494   1.385   3.495  15.743  0.0569  0.8391 -0.1066
12335TIP3   OH258495   1.010   5.191  14.878  0.5944 -0.2710 -0.4191
12335TIP3    H158496   1.105   5.199  14.872  0.5696 -1.0398 -2.2698
12335TIP3    H258497   0.976   5.245  14.807 -0.3148 -0.7100 -0.3351
12336TIP3   OH258498   0.285   5.980   1.040 -0.3000 -0.1215 -1.0250
12336TIP3    H158499   0.366   5.932   1.023 -0.1198  0.6065 -2.2941
12336TIP3    H258500   0.217   5.912   1.044  0.2216 -0.6405 -0.9433
12337TIP3   OH258501   3.271   3.762   0.532  0.5009  0.2705  0.3249
12337TIP3    H158502   3.186   3.721   0.549  0.0222  0.8600 -0.6288
12337TIP3    H258503   3.283   3.823   0.605 -0.6208  1.3174 -0.3349
12338TIP3   OH258504   4.867   4.603   0.353  0.6461 -0.2302  0.1265
12338TIP3    H158505   4.834   4.644   0.434  0.2716  0.3792 -0.3284
12338TIP3    H258506   4.958   4.579   0.374  0.8033  0.6451  0.4788
12339TIP3   OH258507   0.615   2.823   0.329  0.0639  0.5158  0.3977
12339TIP3    H158508   0.639   2.767   0.403  1.0684 -0.5388 -0.7088
12339TIP3    H258509   0.692   2.879   0.316 -0.3707  1.1546  0.5718
12340TIP3   OH258510   2.419   5.263  14.501 -0.1412 -0.0232  0.3531
12340TIP3    H158511   2.347   5.314  14.463  0.8614  1.9863  1.1398
12340TIP3    H258512   2.375   5.194  14.551 -1.5259  1.4991  1.2550
12341TIP3   OH258513   3.569   3.850   1.875 -0.2849  0.1321 -0.5321
12341TIP3    H158514   3.496   3.887   1.924 -0.2224 -0.5412  0.0987
12341TIP3    H258515   3.528   3.787   1.815 -0.1683 -0.9056  0.4504
12342TIP3   OH258516   4.805   3.037   1.853 -0.1957  0.2763 -0.0247
12342TIP3    H158517   4.808   2.986   1.934 -0.9477  0.4833  0.1312
12342TIP3    H258518   4.897   3.045   1.827 -0.1681 -2.6055 -0.9680
12343TIP3   OH258519   3.647   2.932  14.265 -0.4584  0.3792 -0.0669
12343TIP3    H158520   3.575   2.883  14.304  1.1482 -0.2941  2.1232
12343TIP3    H258521   3.709   2.946  14.337  1.9558  0.2894 -2.0598
12344TIP3   OH258522   2.336   4.707   2.498  0.1985 -0.5303 -0.0034
12344TIP3    H158523   2.373   4.633   2.450  0.3591 -0.9754  0.8108
12344TIP3    H258524   2.380   4.706   2.583 -0.3799  0.0198  0.3085
12345TIP3   OH258525   2.043   3.148   3.123 -0.4610 -0.1460  0.3094
12345TIP3    H158526   1.995   3.100   3.055 -1.4508  1.0210  0.1627
12345TIP3    H258527   2.027   3.098   3.203  0.1830 -1.1703 -0.1852
12346TIP3   OH258528   2.875   7.152  15.373  0.6289 -0.2650 -0.4040
12346TIP3    H158529   2.786   7.168  15.404  0.4735 -0.9295 -0.4950
12346TIP3    H258530   2.864   7.088  15.302  1.1503 -0.1100 -0.6245
12347TIP3   OH258531   3.794   2.969   0.174  0.1133 -0.2295  0.4085
12347TIP3    H158532   3.860   2.902   0.157  1.0126  0.6533  0.3466
12347TIP3    H258533   3.720   2.921   0.210 -0.0106 -1.5049 -1.4925
12348TIP3   OH258534   1.909   4.955  14.989 -0.2954  0.5991  0.1601
12348TIP3    H158535   1.966   4.919  14.920  0.5050  0.8142  0.7038
12348TIP3    H258536   1.966   5.015  15.038 -0.6589 -0.1163  1.4723
12349TIP3   OH258537   3.390   0.509   1.276  0.0525  0.2953  0.5106
12349TIP3    H158538   3.343   0.485   1.356 -0.3758  2.1452  0.8345
12349TIP3    H258539   3.330   0.483   1.205 -0.6672  0.9560  0.8661
12350TIP3   OH258540   7.199   5.247   0.529 -0.4498 -0.3794 -0.4062
12350TIP3    H158541   7.148   5.189   0.474 -1.3444  0.3451 -0.3497
12350TIP3    H258542   7.192   5.210   0.617 -0.6081 -0.4638 -0.4544
12351TIP3   OH258543   1.266   3.793  15.018  0.3007  0.5308  0.0010
12351TIP3    H158544   1.361   3.784  15.022  0.1412 -1.3689  0.2506
12351TIP3    H258545   1.235   3.704  15.003 -1.3935  1.2708 -1.0447
12352TIP3   OH258546   2.359   3.983   0.815  0.1728 -0.1585  0.0102
12352TIP3    H158547   2.296   4.055   0.825 -0.1181 -0.3875 -0.1708
12352TIP3    H258548   2.412   4.008   0.740 -0.9458 -0.8776 -1.0449
12353TIP3   OH258549   2.984   6.319   2.457 -0.3137  0.7057 -0.5415
12353TIP3    H158550   3.075   6.293   2.442 -0.6435  0.1569 -1.5724
12353TIP3    H258551   2.982   6.343   2.550  0.7492  0.1933 -0.3746
12354TIP3   OH258552   0.259   5.954   0.437 -0.4074  0.3749 -0.2493
12354TIP3    H158553   0.304   5.923   0.359 -0.9586 -0.8372 -0.1081
12354TIP3    H258554   0.169   5.923   0.427 -0.1062 -1.2567  1.6170
12355TIP3   OH258555   1.616   3.269   1.608  0.8070  0.3453 -0.1044
12355TIP3    H158556   1.679   3.336   1.637  2.7157 -1.3993 -0.1196
12355TIP3    H258557   1.642   3.190   1.655  0.7768 -1.2592 -2.6598
12356TIP3   OH258558   1.660   4.902   0.192  0.4281 -0.8367  0.1786
12356TIP3    H158559   1.755   4.905   0.177  0.6501 -0.5915  1.5443
12356TIP3    H258560   1.652   4.869   0.282 -0.7802 -0.7877  0.0877
12357TIP3   OH258561   0.931   4.268   2.590  0.5826  0.9324  0.4968
12357TIP3    H158562   0.848   4.286   2.635  0.1806  1.4762 -0.4633
12357TIP3    H258563   0.998   4.300   2.650  0.1507 -0.2270  1.6390
12358TIP3   OH258564   4.699   4.393  15.803 -0.5272 -0.6812  0.6153
12358TIP3    H158565   4.724   4.435  15.886 -0.3866 -1.2473  0.8584
12358TIP3    H258566   4.778   4.348  15.774 -0.3495  0.1393 -0.2124
12359TIP3   OH258567   1.311   1.068   1.291  0.4535 -0.1060 -0.3429
12359TIP3    H158568   1.246   1.132   1.320 -0.7997 -1.8203  0.7236
12359TIP3    H258569   1.297   1.061   1.196  0.0791  0.6274 -0.3421
12360TIP3   OH258570   3.665   7.283  13.458  0.3135  0.4102  0.2836
12360TIP3    H158571   3.701   7.222  13.522  0.2247  0.2106  0.1445
12360TIP3    H258572   3.687   7.370  13.491  0.5585  0.2979  0.4112
12361TIP3   OH258573   1.847   2.547  15.953 -0.7454  0.6493  0.2891
12361TIP3    H158574   1.780   2.487  15.920 -1.1239  0.3019  1.6801
12361TIP3    H258575   1.928   2.495  15.951 -0.6538  0.8178 -0.6366
12362TIP3   OH258576   1.866   5.340  15.410  0.1734 -0.2729  0.4296
12362TIP3    H158577   1.832   5.425  15.434 -0.1075 -0.2716  0.0284
12362TIP3    H258578   1.801   5.303  15.350  1.2526  0.0802 -0.9903
12363TIP3   OH258579   0.512   5.060  14.637  0.3860  0.5138  0.2663
12363TIP3    H158580   0.539   5.103  14.718  3.9853  0.8054 -1.0027
12363TIP3    H258581   0.498   4.969  14.661  0.8374  0.7218  1.3227
12364TIP3   OH258582   1.291   5.871  14.696  0.1960  0.1748  0.0548
12364TIP3    H158583   1.232   5.907  14.630 -0.9719 -3.8531 -1.2435
12364TIP3    H258584   1.244   5.880  14.779 -1.3469 -0.9897 -0.6691
12365TIP3   OH258585   1.456   1.104   2.289  0.2532  0.4488  0.0458
12365TIP3    H158586   1.550   1.090   2.301  0.5065  0.6148 -1.6562
12365TIP3    H258587   1.450   1.195   2.261 -0.4363  0.5010  0.3777
12366TIP3   OH258588   2.770   4.053   0.439  0.8548  0.5890  0.3848
12366TIP3    H158589   2.866   4.046   0.436  0.9052  1.3010  0.2765
12366TIP3    H258590   2.740   3.993   0.371  1.2524  1.0407 -0.1914
12367TIP3   OH258591   0.675   7.100   1.144 -0.0018 -0.3115 -0.1811
12367TIP3    H158592   0.712   7.138   1.223  0.9630 -0.2978 -0.6303
12367TIP3    H258593   0.582   7.088   1.164  0.1003  0.3275  0.7004
12368TIP3   OH258594   1.595   0.258   0.289  0.1162 -0.0014 -0.2235
12368TIP3    H158595   1.502   0.253   0.311  0.4908  0.7078  1.6217
12368TIP3    H258596   1.597   0.297   0.202 -1.3184 -0.0250 -0.2755
12369TIP3   OH258597   2.458   4.327   0.823  0.0126 -0.1267 -0.0918
12369TIP3    H158598   2.505   4.280   0.893 -0.2574 -0.3446 -0.0531
12369TIP3    H258599   2.521   4.390   0.790  0.2753 -0.2952  0.0819
12370TIP3   OH258600   4.135   5.188   1.888 -0.3746 -0.1422 -0.7272
12370TIP3    H158601   4.199   5.254   1.913 -1.1561  0.6391 -0.7914
12370TIP3    H258602   4.188   5.114   1.857  0.4877  0.5339 -0.8760
12371TIP3   OH258603   5.956   0.182   3.071 -0.4842  0.0425  0.5762
12371TIP3    H158604   6.033   0.237   3.081 -0.7187  0.3742  0.5450
12371TIP3    H258605   5.894   0.235   3.020  0.5457 -1.4757 -2.3933
12372TIP3   OH258606   1.972   3.948  15.414 -0.6352 -0.0680 -0.4354
12372TIP3    H158607   1.919   4.021  15.445  3.2354  2.1094  1.4237
12372TIP3    H258608   1.916   3.871  15.425 -3.1613  2.0055  2.0170
12373TIP3   OH258609   4.559   4.736   3.076  0.3868  0.0313  0.2190
12373TIP3    H158610   4.471   4.700   3.064  0.2003  0.0254  1.4475
12373TIP3    H258611   4.610   4.702   3.003 -0.6307  0.0229 -0.4957
12374TIP3   OH258612   2.034   4.019   1.732 -0.1891  0.7625 -0.1482
12374TIP3    H158613   2.003   3.935   1.698  1.5939  0.8318 -2.0295
12374TIP3    H258614   2.101   4.047   1.670  1.7940  1.8684  2.4013
12375TIP3   OH258615   1.909   4.376  14.953 -0.7052  0.2965 -0.1550
12375TIP3    H158616   1.876   4.312  14.890  0.3654 -1.2659  0.8294
12375TIP3    H258617   1.858   4.360  15.033 -0.4433  0.6631  0.0876
12376TIP3   OH258618   2.213   5.257   0.216  0.3262  0.0094 -0.0755
12376TIP3    H158619   2.202   5.282   0.124 -1.5077 -0.0239  0.1045
12376TIP3    H258620   2.164   5.322   0.264  0.2885 -0.6576  0.7968
12377TIP3   OH258621   2.575   4.578  15.497  0.8954 -0.2719  0.3898
12377TIP3    H158622   2.666   4.608  15.495  1.1916 -1.2082 -0.8882
12377TIP3    H258623   2.535   4.628  15.569  1.7053  2.1707 -0.7781
12378TIP3   OH258624   1.246   4.409   2.365 -0.1559  1.0311  0.2546
12378TIP3    H158625   1.317   4.408   2.302 -0.0903 -2.1262  0.3286
12378TIP3    H258626   1.289   4.426   2.449 -0.0092  3.2118 -0.2361
12379TIP3   OH258627   1.135   5.836   0.138 -0.5982  0.0306 -0.7136
12379TIP3    H158628   1.193   5.769   0.175 -0.4859 -0.5550 -1.9134
12379TIP3    H258629   1.194   5.900   0.099 -0.7454 -0.3166 -1.5134
12380TIP3   OH258630   3.199   4.126  15.090 -0.4603 -0.3473  0.4836
12380TIP3    H158631   3.231   4.071  15.018 -1.3831 -0.0565 -0.1663
12380TIP3    H258632   3.152   4.066  15.148 -0.7516 -0.3924  0.2048
12381TIP3   OH258633   5.942   2.356  15.497 -0.3433 -0.7704  0.4217
12381TIP3    H158634   5.973   2.415  15.566  1.0785 -0.6975 -0.2742
12381TIP3    H258635   5.888   2.412  15.440  0.4347 -0.2911  0.1512
12382TIP3   OH258636   0.456   1.979  15.533  0.2397  0.6832  0.2638
12382TIP3    H158637   0.445   2.002  15.441  0.2466  1.5730  0.4769
12382TIP3    H258638   0.416   2.053  15.580 -2.0840 -0.9559  0.9467
12383TIP3   OH258639   1.019   3.007   1.402  0.0447  0.0461  0.6928
12383TIP3    H158640   0.981   3.031   1.318  0.2251  1.2216  0.9290
12383TIP3    H258641   1.103   2.968   1.381  0.7012  1.5838  0.3759
12384TIP3   OH258642   4.760   5.365   0.441 -0.1417 -0.0499  0.1855
12384TIP3    H158643   4.726   5.444   0.398 -3.1945 -0.0543  2.4475
12384TIP3    H258644   4.796   5.397   0.524  0.1612 -0.8310  0.3581
12385TIP3   OH258645   0.326   6.600   1.586  0.3788 -0.4010 -1.0116
12385TIP3    H158646   0.322   6.560   1.673 -1.3560  1.5857 -0.1056
12385TIP3    H258647   0.419   6.615   1.570  0.6902 -0.3876  0.7276
12386TIP3   OH258648   4.381   4.510   1.098 -0.3604 -0.4393  0.3168
12386TIP3    H158649   4.464   4.478   1.064 -0.3686 -0.0754 -0.0454
12386TIP3    H258650   4.345   4.564   1.028 -0.6647 -0.1869  0.6649
12387TIP3   OH258651   4.223   5.543   0.387 -0.4454 -0.2704  0.4963
12387TIP3    H158652   4.282   5.616   0.406 -1.2109  0.2123  1.0752
12387TIP3    H258653   4.262   5.500   0.311 -0.1301  0.9263 -0.0435
12388TIP3   OH258654   3.632   4.019   0.048  0.0585  0.5912 -0.4078
12388TIP3    H158655   3.635   3.951  -0.019  0.4039  2.3814 -2.2688
12388TIP3    H258656   3.542   4.052   0.044  0.0412  0.6023  0.1133
12389TIP3   OH258657   2.830   5.583   2.851 -0.1181 -0.0918 -0.3702
12389TIP3    H158658   2.815   5.500   2.804 -0.8648 -0.4163  0.4150
12389TIP3    H258659   2.900   5.626   2.802 -0.2346 -0.8500 -1.2298
12390TIP3   OH258660   6.400   3.437   0.507  0.3481  0.8608 -0.5672
12390TIP3    H158661   6.357   3.390   0.579 -1.1632  1.4310 -1.0825
12390TIP3    H258662   6.334   3.442   0.438  1.1712  1.9729 -1.3010
12391TIP3   OH258663   4.181   4.515   0.843 -0.3158  0.2716  1.1844
12391TIP3    H158664   4.126   4.588   0.812 -0.5467  0.4501  2.0060
12391TIP3    H258665   4.136   4.437   0.811  1.2450  0.5375 -1.8434
12392TIP3   OH258666   4.112   4.934  13.361 -0.0700 -0.0532 -0.0894
12392TIP3    H158667   4.062   4.982  13.295  1.6914  1.4443 -0.3742
12392TIP3    H258668   4.144   5.002  13.421  0.9576 -1.0518  0.5166
12393TIP3   OH258669   2.483   5.353   0.842  0.1156  0.0600 -0.3078
12393TIP3    H158670   2.450   5.323   0.758  1.9299  0.6877 -1.2660
12393TIP3    H258671   2.545   5.422   0.820  0.1813  0.6265  1.5835
12394TIP3   OH258672   2.028   2.903   0.976 -0.1254  0.4313 -0.1542
12394TIP3    H158673   2.106   2.950   0.947 -0.3703  1.7067  1.1980
12394TIP3    H258674   2.052   2.811   0.969  1.4400  0.8061  0.0703
12395TIP3   OH258675   4.082   2.637   0.381  0.3667 -0.0192 -0.4815
12395TIP3    H158676   4.092   2.545   0.405  0.3743 -0.6394 -2.7951
12395TIP3    H258677   3.996   2.643   0.340 -1.1215  1.7062  2.6967
12396TIP3   OH258678   4.628   6.605   2.267  0.2469  0.0253  0.6955
12396TIP3    H158679   4.669   6.533   2.219  0.9209  2.0638 -1.9093
12396TIP3    H258680   4.677   6.610   2.349  0.0336 -2.5983  1.0402
12397TIP3   OH258681   1.818   3.708   1.847  0.1953  0.0552  0.2413
12397TIP3    H158682   1.805   3.734   1.938  0.5042 -1.4205  0.7214
12397TIP3    H258683   1.732   3.676   1.818 -0.6585  3.1673 -0.9111
12398TIP3   OH258684   0.477   6.406  15.545  0.3480  0.0272 -0.1833
12398TIP3    H158685   0.532   6.381  15.620 -0.4830  0.0256  0.4381
12398TIP3    H258686   0.535   6.399  15.469  1.3752  0.6551  0.5368
12399TIP3   OH258687   2.427   6.582   1.412 -0.5483 -0.2748 -0.3011
12399TIP3    H158688   2.409   6.554   1.501  0.0461  0.0280 -0.0803
12399TIP3    H258689   2.431   6.677   1.417  0.4701 -0.3037 -0.4558
12400TIP3   OH258690   1.454   3.686   1.311 -0.9513 -0.1177 -0.3087
12400TIP3    H158691   1.439   3.635   1.231 -1.7979 -0.7251  0.2262
12400TIP3    H258692   1.367   3.692   1.352 -0.4949  0.0456  0.6468
12401TIP3   OH258693   2.039   5.317   2.643 -0.0040 -0.7879  0.1803
12401TIP3    H158694   2.020   5.230   2.677  0.6336 -0.6700  0.8517
12401TIP3    H258695   2.014   5.377   2.713  0.2002 -0.4699 -0.0137
12402TIP3   OH258696   4.708   5.303  15.726 -0.6173  0.2516 -0.2130
12402TIP3    H158697   4.768   5.377  15.722  1.5201 -1.4745 -0.7234
12402TIP3    H258698   4.639   5.324  15.663  0.9988  0.9275 -1.7904
12403TIP3   OH258699   4.793   4.536   1.192  0.3609  0.3727 -0.2156
12403TIP3    H158700   4.762   4.545   1.101  0.6862  1.9397 -0.1851
12403TIP3    H258701   4.877   4.582   1.193 -0.1133  1.2411  1.1158
12404TIP3   OH258702   0.964   4.523  15.150 -0.6409 -0.0036 -0.0368
12404TIP3    H158703   1.053   4.528  15.185 -0.2154  0.6035 -1.1884
12404TIP3    H258704   0.960   4.594  15.086 -1.7818 -0.3780 -0.3822
12405TIP3   OH258705   4.543   2.670   2.237  0.0166  0.5682 -0.4335
12405TIP3    H158706   4.616   2.607   2.228 -2.1366 -1.8276 -1.8213
12405TIP3    H258707   4.533   2.708   2.150  0.6340  2.1331  0.1578
12406TIP3   OH258708   4.408   3.556  15.251  0.7923  0.6310 -0.3082
12406TIP3    H158709   4.361   3.478  15.279 -0.7213  1.0362 -1.6516
12406TIP3    H258710   4.477   3.568  15.317  0.1771 -1.0329  0.6541
12407TIP3   OH258711   1.645   3.775   1.006 -0.1649  0.2491  0.8519
12407TIP3    H158712   1.574   3.713   0.990 -0.3741  0.5749  0.5144
12407TIP3    H258713   1.706   3.762   0.933  0.0193  0.1138  1.0299
12408TIP3   OH258714   3.677   4.310   0.535  0.5826 -0.0306  0.0060
12408TIP3    H158715   3.606   4.302   0.598 -0.3483 -0.4180 -1.0765
12408TIP3    H258716   3.740   4.242   0.560  0.1648 -0.2640  0.4313
12409TIP3   OH258717   2.261   4.675   0.622  0.5795  0.5946  0.1335
12409TIP3    H158718   2.302   4.590   0.604 -0.7063 -0.1607  0.7157
12409TIP3    H258719   2.277   4.690   0.715 -0.8784  0.0467  0.4907
12410TIP3   OH258720   3.574   5.407   0.355 -0.3684  0.3512 -0.1512
12410TIP3    H158721   3.608   5.435   0.440 -0.6874  1.1694 -0.2915
12410TIP3    H258722   3.517   5.478   0.327  0.2808  0.3971 -1.3781
12411TIP3   OH258723   1.021   0.304   0.975 -0.0424 -0.0836 -0.0844
12411TIP3    H158724   0.941   0.269   1.014 -0.6792  2.2346  0.7520
12411TIP3    H258725   1.042   0.242   0.905 -2.3414 -0.9227 -0.0881
12412TIP3   OH258726   0.250   4.879  15.896 -0.1339  0.4702  0.0680
12412TIP3    H158727   0.160   4.880  15.862  0.7224 -0.8048 -2.3394
12412TIP3    H258728   0.277   4.971  15.895 -0.4933  0.5841 -1.8292
12413TIP3   OH258729   3.584   6.355  15.019 -0.5630 -0.2643 -0.1676
12413TIP3    H158730   3.559   6.264  15.037  0.1774 -0.7291 -1.4339
12413TIP3    H258731   3.515   6.388  14.963  0.3196 -0.7524 -1.5576
12414TIP3   OH258732   2.630   2.215   1.550  0.1633  0.0917 -0.0193
12414TIP3    H158733   2.549   2.226   1.601 -2.5081 -0.5259 -3.9353
12414TIP3    H258734   2.681   2.294   1.569 -1.5263  0.7204  2.1738
12415TIP3   OH258735   1.785   6.389   2.165 -0.0310 -0.0468  0.4464
12415TIP3    H158736   1.713   6.351   2.214  0.5733 -0.3664  1.0898
12415TIP3    H258737   1.860   6.333   2.184 -0.4242 -1.9240 -3.1415
12416TIP3   OH258738   3.936   4.644   0.099  0.9656 -0.1094  0.6633
12416TIP3    H158739   3.944   4.598   0.183  0.7971  2.0777  1.9141
12416TIP3    H258740   4.023   4.636   0.060  0.7634 -2.0162  0.5591
12417TIP3   OH258741   3.712   3.441   1.367  0.4994  0.1518 -0.3419
12417TIP3    H158742   3.642   3.428   1.430 -0.1956  0.2484 -1.0747
12417TIP3    H258743   3.785   3.475   1.418 -0.5961  1.8216  0.1545
12418TIP3   OH258744   1.816   6.477   0.937 -0.0602 -0.0487 -0.8498
12418TIP3    H158745   1.890   6.536   0.927  1.2439 -1.7248 -1.2894
12418TIP3    H258746   1.846   6.410   0.999 -1.0575 -0.9433 -1.3050
12419TIP3   OH258747   4.492   5.514   2.625  0.0425  0.6010 -0.5130
12419TIP3    H158748   4.397   5.507   2.633  0.3927 -2.1032  2.1569
12419TIP3    H258749   4.521   5.547   2.711  1.8362 -3.0891  0.3788
12420TIP3   OH258750   7.311   6.084  15.436  0.1690 -0.1012  0.5611
12420TIP3    H158751   7.255   6.022  15.482 -2.1018  1.0971 -0.5248
12420TIP3    H258752   7.320   6.158  15.496  1.2761 -0.6216  1.0561
12421TIP3   OH258753   1.835   4.972  15.727 -0.0342  0.2423 -0.1832
12421TIP3    H158754   1.860   4.999  15.638  2.6388  2.6641  1.2052
12421TIP3    H258755   1.914   4.932  15.763 -1.4901 -1.9413  0.7122
12422TIP3   OH258756   4.249   6.144   2.786  0.0507 -0.2229  0.0679
12422TIP3    H158757   4.248   6.149   2.691 -2.6367  0.0433  0.0701
12422TIP3    H258758   4.279   6.055   2.806  0.2818 -0.3904 -1.0197
12423TIP3   OH258759   1.374   4.505  15.821 -0.2465 -0.2134 -0.2022
12423TIP3    H158760   1.344   4.415  15.829 -1.1509  0.0284 -0.7655
12423TIP3    H258761   1.467   4.498  15.802 -0.6422 -1.0764 -1.8862
12424TIP3   OH258762   1.804   2.914  15.168 -0.4645  0.3110 -0.0590
12424TIP3    H158763   1.736   2.897  15.233  0.6285 -1.3981  0.6990
12424TIP3    H258764   1.768   2.882  15.085 -0.2034 -1.5462  0.5298
12425TIP3   OH258765   2.183   3.441   1.097 -0.4811  0.1435 -0.1305
12425TIP3    H158766   2.131   3.482   1.166 -0.7636 -1.5656  0.6930
12425TIP3    H258767   2.159   3.348   1.101  0.6575 -0.2199 -1.5007
12426TIP3   OH258768   3.423   4.970   1.534  0.5440  0.0197  0.0591
12426TIP3    H158769   3.329   4.985   1.533  0.5098 -0.1040  1.3099
12426TIP3    H258770   3.436   4.894   1.478 -0.4281 -1.7445  2.1563
12427TIP3   OH258771   1.278   2.754   0.017  0.2524  0.2478 -0.3506
12427TIP3    H158772   1.198   2.729  -0.028  0.2871  1.0982 -0.8968
12427TIP3    H258773   1.346   2.699  -0.022 -0.3201 -1.7871  1.3665
12428TIP3   OH258774   2.873   3.355   0.572 -0.6171  0.3805 -0.0687
12428TIP3    H158775   2.908   3.396   0.493 -0.3374 -0.7265 -0.5243
12428TIP3    H258776   2.937   3.376   0.640 -0.8928  1.3934 -0.1167
12429TIP3   OH258777   1.882   1.818   2.518 -0.0646  0.5852  0.5587
12429TIP3    H158778   1.872   1.774   2.602  0.5912  0.2174  0.4490
12429TIP3    H258779   1.946   1.765   2.471 -1.5080 -0.0366 -0.7386
12430TIP3   OH258780   4.156   3.847   1.619 -0.2665  0.2410 -0.2217
12430TIP3    H158781   4.154   3.939   1.592 -0.0256  0.3671  0.1744
12430TIP3    H258782   4.246   3.819   1.603 -0.4383 -0.0405 -0.7076
12431TIP3   OH258783   6.052   6.703   1.211  0.5945 -0.2783  0.3364
12431TIP3    H158784   6.054   6.636   1.143 -1.9908  0.6495 -0.7174
12431TIP3    H258785   6.008   6.661   1.285 -2.0694  0.5570 -0.7265
12432TIP3   OH258786   1.256   2.155  14.518  0.1092  0.7233 -0.2649
12432TIP3    H158787   1.292   2.139  14.431 -0.0623  2.7807 -0.7538
12432TIP3    H258788   1.161   2.151  14.505  0.0289  3.1883 -0.6588
12433TIP3   OH258789   0.407   5.448   0.042 -0.2893 -0.1126  0.2446
12433TIP3    H158790   0.385   5.392   0.116  1.7531  0.4699  1.3188
12433TIP3    H258791   0.481   5.404   0.000  0.7522  1.3258  0.5691
12434TIP3   OH258792   2.297   6.399  13.506 -0.0232 -0.6453 -0.5950
12434TIP3    H158793   2.205   6.386  13.533  0.1682 -1.0766 -0.1312
12434TIP3    H258794   2.301   6.490  13.477 -0.2840 -0.2040  0.6990
12435TIP3   OH258795   5.308   3.983  14.715  0.3228 -0.0193  0.2571
12435TIP3    H158796   5.262   3.931  14.781 -1.4762  2.7689  1.2473
12435TIP3    H258797   5.299   3.932  14.634 -0.9774 -1.4711  1.2959
12436TIP3   OH258798   0.087   3.610   1.533 -0.4940 -0.2085  0.5142
12436TIP3    H158799   0.054   3.700   1.529 -0.6024 -0.2257  0.9997
12436TIP3    H258800   0.112   3.598   1.624 -2.5552 -1.4045  0.9485
12437TIP3   OH258801   2.979   1.322   2.936 -0.7610 -0.1507 -0.5067
12437TIP3    H158802   2.924   1.345   2.861 -0.1412  0.9373 -0.6270
12437TIP3    H258803   3.069   1.325   2.903 -0.5486 -0.7250  0.0022
12438TIP3   OH258804   3.084   5.535  14.770 -0.0908 -0.2915 -0.4722
12438TIP3    H158805   3.016   5.478  14.807  0.7241 -1.9630 -1.4933
12438TIP3    H258806   3.072   5.619  14.815 -2.6160 -0.6549 -0.4088
12439TIP3   OH258807   1.650   4.794   0.436 -0.0784 -0.4294  0.1782
12439TIP3    H158808   1.683   4.704   0.445  2.1749  0.4231  0.7097
12439TIP3    H258809   1.646   4.828   0.525  0.4804  0.4851 -0.1382
12440TIP3   OH258810   3.052   4.573   2.104 -0.0011  0.0621  0.3246
12440TIP3    H158811   3.120   4.505   2.105  0.0296  0.0727 -0.8035
12440TIP3    H258812   3.068   4.621   2.023 -0.1606  1.2816  1.0077
12441TIP3   OH258813   4.596   3.042   0.975 -0.4185 -0.1497 -0.2258
12441TIP3    H158814   4.504   3.035   0.948 -0.1892 -5.0246 -0.3300
12441TIP3    H258815   4.644   3.047   0.893 -0.4878  0.2663 -0.2408
12442TIP3   OH258816   4.794   3.910  15.973 -0.2204  0.2150 -0.1113
12442TIP3    H158817   4.705   3.933  16.000 -0.1018 -0.6542  1.0605
12442TIP3    H258818   4.811   3.826  16.015  1.6310  0.9982  0.7739
12443TIP3   OH258819   3.140   5.802   3.181 -0.0395  0.5903 -0.4324
12443TIP3    H158820   3.177   5.864   3.243  0.2762  0.5199 -0.5499
12443TIP3    H258821   3.213   5.778   3.124 -0.5177  1.3203 -1.3771
12444TIP3   OH258822   4.275   6.001   1.777 -0.6119  0.8259 -0.5067
12444TIP3    H158823   4.329   6.016   1.855 -0.3157 -2.9899  0.1523
12444TIP3    H258824   4.227   6.083   1.764  0.3407  2.0021  2.8989
12445TIP3   OH258825   4.322   4.724   2.728 -0.3142  0.1960 -0.7374
12445TIP3    H158826   4.300   4.676   2.649 -0.0517  0.2046 -0.8163
12445TIP3    H258827   4.390   4.786   2.701 -0.5993  0.5660 -0.6207
12446TIP3   OH258828   0.859   1.532  15.408  0.5508  0.4830  0.0572
12446TIP3    H158829   0.919   1.518  15.482  1.1540  2.1714 -0.1053
12446TIP3    H258830   0.776   1.554  15.449  1.0290  1.9919  0.2522
12447TIP3   OH258831   6.372   5.751   0.595  0.0602 -0.4173 -0.0923
12447TIP3    H158832   6.316   5.763   0.672 -1.5107  0.3486 -1.3056
12447TIP3    H258833   6.372   5.656   0.581 -1.9401 -0.3520 -0.7580
12448TIP3   OH258834   4.638   5.012   1.450  0.4934  0.0579  0.4188
12448TIP3    H158835   4.589   5.057   1.382  0.5966 -0.5133 -0.0358
12448TIP3    H258836   4.712   4.973   1.404  0.5323 -0.3742  0.8480
12449TIP3   OH258837   3.214   5.378   0.504  0.3032 -0.0581  0.3522
12449TIP3    H158838   3.137   5.322   0.489  1.4354 -1.5584 -0.0167
12449TIP3    H258839   3.286   5.316   0.516  0.9326  1.2116  3.8783
12450TIP3   OH258840   3.595   6.154   2.742 -0.3105 -0.2625  0.3745
12450TIP3    H158841   3.554   6.208   2.675 -1.2139 -0.3061  0.8852
12450TIP3    H258842   3.596   6.066   2.705 -1.7722 -0.4857  0.8246
12451TIP3   OH258843   3.186   3.879   0.092 -0.4406  0.2823 -0.0899
12451TIP3    H158844   3.094   3.853   0.105  0.0609 -0.9804  1.1251
12451TIP3    H258845   3.196   3.885  -0.003 -1.1078 -2.1580 -0.3421
12452TIP3   OH258846   3.376   3.442  14.796 -0.3235  0.6835  0.0500
12452TIP3    H158847   3.429   3.493  14.859  1.5549  0.6305 -1.4390
12452TIP3    H258848   3.411   3.467  14.711 -1.0790 -1.2347 -0.8329
12453TIP3   OH258849   4.929   5.038  15.467 -0.1305 -0.6162  0.2803
12453TIP3    H158850   4.896   4.949  15.458 -1.5213 -0.1764  0.9393
12453TIP3    H258851   4.916   5.060  15.559  1.3854 -0.1741  0.4183
12454TIP3   OH258852   2.991   4.574   0.190  0.0057 -0.3728 -0.7712
12454TIP3    H158853   2.986   4.507   0.258  0.0160  0.3343 -0.0673
12454TIP3    H258854   3.075   4.617   0.205 -0.2085  0.1065 -0.9371
12455TIP3   OH258855   1.668   5.179  15.291  0.0489 -0.1550 -0.0556
12455TIP3    H158856   1.627   5.175  15.205  0.8123 -1.6362 -0.3661
12455TIP3    H258857   1.594   5.177  15.352 -0.4197 -1.2450 -0.6425
12456TIP3   OH258858   3.633   3.606   2.005  0.1169  0.4726 -0.5221
12456TIP3    H158859   3.664   3.662   2.076 -0.4889 -0.8971  0.8705
12456TIP3    H258860   3.598   3.666   1.939  0.7846  1.7728  0.2998
12457TIP3   OH258861   5.390   4.886   1.435  0.6046 -0.5780 -0.5824
12457TIP3    H158862   5.397   4.815   1.372 -1.7085 -0.7119 -0.7424
12457TIP3    H258863   5.302   4.877   1.472  1.0656  0.9028  0.9514
12458TIP3   OH258864   5.294   6.393   1.424  0.0961 -0.3586  0.4746
12458TIP3    H158865   5.276   6.486   1.431 -0.3746 -0.4823  0.9068
12458TIP3    H258866   5.209   6.351   1.437  0.4210 -0.8761  0.9454
12459TIP3   OH258867   5.138   2.988   2.223 -0.2166  0.3759  0.0698
12459TIP3    H158868   5.122   2.999   2.316 -0.0784  1.8895 -0.0714
12459TIP3    H258869   5.138   3.078   2.188  0.1932 -0.1471 -1.2985
12460TIP3   OH258870   1.672   4.006   3.421  0.2118 -0.3613 -0.2751
12460TIP3    H158871   1.603   3.943   3.401 -0.3375  0.0024  0.4291
12460TIP3    H258872   1.640   4.088   3.383 -0.5870  0.2118  1.5643
12461TIP3   OH258873   4.566   6.310  15.540 -0.1474 -0.3913 -0.2284
12461TIP3    H158874   4.628   6.381  15.558 -0.8972 -0.0299  0.9651
12461TIP3    H258875   4.516   6.340  15.465 -0.6085  0.4545  0.4064
12462TIP3   OH258876   4.016   5.733  15.826 -0.2552  0.2598  0.3274
12462TIP3    H158877   4.016   5.767  15.916  0.0716 -0.2670  0.5319
12462TIP3    H258878   4.079   5.661  15.828  1.5717  1.7862 -0.9218
12463TIP3   OH258879   2.729   5.275   1.830  0.0559  0.6625 -0.2403
12463TIP3    H158880   2.689   5.238   1.909 -1.9462  1.2567 -0.9498
12463TIP3    H258881   2.760   5.362   1.857  1.7165 -0.1442  0.5388
12464TIP3   OH258882   6.677   6.897   3.349  0.4519 -0.3326  0.8633
12464TIP3    H158883   6.687   6.989   3.325 -0.2626  0.2105  2.6149
12464TIP3    H258884   6.763   6.859   3.331  1.4132  1.1557  2.1365
12465TIP3   OH258885   4.623   7.047   3.944 -0.0618 -0.0515 -0.0241
12465TIP3    H158886   4.631   7.137   3.976 -0.4492  0.2998 -0.8979
12465TIP3    H258887   4.538   7.044   3.900 -0.0352 -0.8384 -0.0390
12466TIP3   OH258888   3.913   3.701  14.957 -0.4752  0.2199 -0.0396
12466TIP3    H158889   3.978   3.636  14.929 -0.5643  0.6984 -1.3749
12466TIP3    H258890   3.907   3.762  14.884  0.7847  2.6622  1.8349
12467TIP3   OH258891   4.822   6.959   2.257  0.4708  0.5860 -0.4101
12467TIP3    H158892   4.845   6.977   2.348  1.4936 -2.0674 -0.1114
12467TIP3    H258893   4.870   7.025   2.206  0.9922  1.2022  0.8744
12468TIP3   OH258894   5.958   4.769   2.113 -0.2953  0.3291  0.0147
12468TIP3    H158895   6.004   4.786   2.031 -1.3404 -0.4676 -0.7471
12468TIP3    H258896   5.920   4.682   2.102 -1.8761  0.9181  0.6712
12469TIP3   OH258897   4.540   7.282   2.139 -0.6601  0.1242  0.2001
12469TIP3    H158898   4.509   7.237   2.061 -0.3397 -0.0339  0.1658
12469TIP3    H258899   4.519   7.223   2.211  0.6522 -0.5276  0.0601
12470TIP3   OH258900   4.696   4.705   2.568 -0.4428 -0.5112  0.2879
12470TIP3    H158901   4.624   4.768   2.567 -0.3680 -0.4215 -0.9100
12470TIP3    H258902   4.674   4.642   2.499  0.6720 -0.4153 -0.1690
12471TIP3   OH258903   4.918   5.223   0.983  0.3809  0.1439 -0.0865
12471TIP3    H158904   4.838   5.176   0.959  0.3965 -0.2349  0.5819
12471TIP3    H258905   4.974   5.156   1.023  0.4972  0.6867  0.6732
12472TIP3   OH258906   4.400   5.519   1.306  0.0033  0.1129  0.4911
12472TIP3    H158907   4.387   5.603   1.350 -0.5086  0.6854 -0.7459
12472TIP3    H258908   4.318   5.472   1.319 -0.1332  0.2652  0.1647
12473TIP3   OH258909   6.256   3.721  14.320 -0.8416  0.9489  0.0903
12473TIP3    H158910   6.208   3.662  14.261  1.1261 -0.7953  0.2022
12473TIP3    H258911   6.230   3.809  14.292 -3.7598  0.0645 -0.1394
12474TIP3   OH258912   5.946   4.505   2.426  0.6064 -0.1167 -0.5799
12474TIP3    H158913   5.933   4.534   2.516 -0.5962 -0.2459 -0.6993
12474TIP3    H258914   6.000   4.426   2.433 -0.0638 -0.5189  0.0766
12475TIP3   OH258915   5.478   4.346   0.707 -0.1268  0.0699  0.2337
12475TIP3    H158916   5.483   4.251   0.721 -0.2102  0.0765  0.3032
12475TIP3    H258917   5.467   4.355   0.612 -2.7408 -0.0896  0.5036
12476TIP3   OH258918   5.877   6.199   2.549  0.0733  0.0488 -0.5385
12476TIP3    H158919   5.860   6.226   2.640 -1.9361  0.5842 -1.0447
12476TIP3    H258920   5.904   6.279   2.505 -1.2911  0.2855 -0.9564
12477TIP3   OH258921   3.967   5.772   0.857 -0.1313 -0.0548 -0.0842
12477TIP3    H158922   3.926   5.710   0.797  0.1616 -0.8438  0.5271
12477TIP3    H258923   4.041   5.808   0.807 -0.4756  0.0297 -0.5402
12478TIP3   OH258924   5.807   5.012   2.476 -0.2189 -0.4400  0.5851
12478TIP3    H158925   5.799   4.994   2.382  0.9317  0.9101  0.1976
12478TIP3    H258926   5.889   4.970   2.502 -0.5518 -0.8383  0.9900
12479TIP3   OH258927   5.843   4.558   1.955 -0.2667  0.0846  0.1831
12479TIP3    H158928   5.748   4.549   1.940  0.2506 -0.8652 -2.8656
12479TIP3    H258929   5.879   4.473   1.931  1.3168  0.2612  1.8893
12480TIP3   OH258930   4.727   5.896   1.188  0.4194 -0.5636  0.0161
12480TIP3    H158931   4.719   5.937   1.275  0.3148  0.1153 -0.3136
12480TIP3    H258932   4.753   5.806   1.207  1.2623 -0.1768  0.7179
12481TIP3   OH258933   5.231   4.974  14.029  0.2309 -0.5414  0.4435
12481TIP3    H158934   5.228   4.907  13.961 -0.4356 -0.3676  0.2909
12481TIP3    H258935   5.182   4.936  14.102 -1.1378  0.2049 -0.0520
12482TIP3   OH258936   5.588   3.403  14.828  0.1304 -0.5141 -0.4476
12482TIP3    H158937   5.671   3.367  14.796  0.4032 -0.4827  0.2064
12482TIP3    H258938   5.541   3.428  14.749 -0.0882 -2.3659 -0.9403
12483TIP3   OH258939   5.790   5.687   2.907  0.1507 -0.4904  0.0467
12483TIP3    H158940   5.885   5.702   2.905 -0.3458  3.2096  0.5287
12483TIP3    H258941   5.771   5.671   2.999  0.0736  0.6721  0.2400
12484TIP3   OH258942   4.750   3.141  15.750 -0.4628 -0.3307  0.2177
12484TIP3    H158943   4.772   3.131  15.657  0.1346 -0.4474  0.3757
12484TIP3    H258944   4.669   3.194  15.749 -0.2783 -0.0489 -0.3520
12485TIP3   OH258945   2.312   6.315   3.023 -0.2877 -0.2422 -0.1686
12485TIP3    H158946   2.372   6.377   3.064 -1.2039 -0.0461  0.8868
12485TIP3    H258947   2.361   6.280   2.948  0.9001  0.3924  0.3029
12486TIP3   OH258948   3.083   5.446   1.111 -0.1578 -0.0524 -0.3451
12486TIP3    H158949   3.050   5.482   1.193  0.8994  0.2513 -0.0396
12486TIP3    H258950   3.062   5.353   1.115 -1.0116  0.1398 -0.1946
12487TIP3   OH258951   4.585   0.029  15.133  0.8570 -0.5361 -0.7462
12487TIP3    H158952   4.508  -0.026  15.150  0.4871  0.3784  0.6253
12487TIP3    H258953   4.564   0.112  15.176  2.7679 -0.4053 -0.0282
12488TIP3   OH258954   6.389   5.706   3.306  0.1627  0.7329 -0.2355
12488TIP3    H158955   6.317   5.713   3.369 -0.0816 -1.2194 -0.2716
12488TIP3    H258956   6.457   5.657   3.353 -0.3570 -1.5070 -1.7428
12489TIP3   OH258957   5.307   5.460   2.596 -0.4052  0.1646  0.2849
12489TIP3    H158958   5.304   5.449   2.501  1.8476 -0.0449  0.1951
12489TIP3    H258959   5.222   5.429   2.627 -1.2389  0.4300 -1.6724
12490TIP3   OH258960   3.891   4.976   1.608  0.1473 -0.4338 -0.0047
12490TIP3    H158961   3.880   4.986   1.703  1.0899  1.8906 -0.1129
12490TIP3    H258962   3.968   4.920   1.598 -0.4706 -1.4033  0.5977
12491TIP3   OH258963   3.018   5.167   0.493 -0.0546  0.3466 -0.3874
12491TIP3    H158964   3.020   5.163   0.589  0.6649  2.0334 -0.3120
12491TIP3    H258965   2.926   5.182   0.472 -0.4980 -1.6932 -0.0697
12492TIP3   OH258966   4.482   4.919   2.628  0.4565  0.4686  0.3295
12492TIP3    H158967   4.490   5.006   2.666 -2.8539  0.2900  1.6067
12492TIP3    H258968   4.443   4.934   2.542  1.7216  0.3677 -0.2744
12493TIP3   OH258969   4.101   6.226   0.047 -0.4547 -0.4476  0.1540
12493TIP3    H158970   4.156   6.160   0.089  0.6323 -0.4127 -1.1781
12493TIP3    H258971   4.113   6.305   0.100  0.4105 -0.5730  0.1528
12494TIP3   OH258972   4.304   5.028   2.414  0.4565  0.1538 -0.5251
12494TIP3    H158973   4.303   5.098   2.350  0.4920  0.1565 -0.5233
12494TIP3    H258974   4.257   5.063   2.490  0.2929  0.0994 -0.6019
12495TIP3   OH258975   0.068   4.495   2.367 -0.7101  0.1204  0.0915
12495TIP3    H158976   0.008   4.465   2.435 -1.8096  1.1572 -0.4015
12495TIP3    H258977   0.022   4.568   2.325  0.6303  0.5258 -0.7085
12496TIP3   OH258978   5.806   5.555  14.714 -0.0354 -0.3621  0.2952
12496TIP3    H158979   5.864   5.588  14.783 -0.0167  0.7454 -0.2362
12496TIP3    H258980   5.756   5.485  14.756  0.2464  0.0512  1.3337
12497TIP3   OH258981   3.332   2.285   1.953 -0.4289 -0.0951  0.1340
12497TIP3    H158982   3.297   2.370   1.976 -1.1413 -0.3780  0.1170
12497TIP3    H258983   3.256   2.227   1.949 -0.1242 -0.4286 -1.2117
12498TIP3   OH258984   2.929   3.701   2.454 -0.3504  0.2154 -1.0583
12498TIP3    H158985   2.943   3.740   2.541  1.0155  0.4044 -1.3532
12498TIP3    H258986   2.935   3.607   2.469 -3.9610  0.0281 -0.2907
12499TIP3   OH258987   4.632   4.183   1.368  0.7915 -0.4043  0.4035
12499TIP3    H158988   4.625   4.111   1.306  0.7465 -0.1680  0.1324
12499TIP3    H258989   4.572   4.160   1.439 -0.9331  0.4154 -0.7347
12500TIP3   OH258990   3.321   5.803   1.589 -0.3531  0.3637 -0.0212
12500TIP3    H158991   3.336   5.735   1.523 -2.2097  0.1870 -0.3065
12500TIP3    H258992   3.407   5.839   1.607  0.7803 -2.4683  0.5549
12501TIP3   OH258993   2.932   6.029   1.763 -0.5095  0.6299 -0.2825
12501TIP3    H158994   2.839   6.029   1.744 -0.0500 -0.0093 -2.7005
12501TIP3    H258995   2.947   5.947   1.810 -0.8742 -0.2320 -1.6247
12502TIP3   OH258996   3.330   5.958   2.560 -0.3933  0.3510 -0.6355
12502TIP3    H158997   3.247   5.930   2.521 -0.7289  1.4646 -0.7248
12502TIP3    H258998   3.386   5.880   2.554 -2.0038 -1.0063  1.0790
12503TIP3   OH258999   5.651   3.617   0.328  0.2494  0.1287  0.3676
12503TIP3    H159000   5.571   3.652   0.367 -0.5456 -0.3373 -0.8350
12503TIP3    H259001   5.679   3.684   0.265 -1.0195 -1.1217 -1.6004
12504TIP3   OH259002   0.083   4.359   0.008  0.8926  0.3520 -0.6411
12504TIP3    H159003   0.104   4.327   0.096 -0.9683  1.0391  0.0730
12504TIP3    H259004   0.157   4.415  -0.015  1.4985  0.0116  0.4075
12505TIP3   OH259005   2.349   4.333   1.129  0.2985  0.7892 -0.3937
12505TIP3    H159006   2.381   4.381   1.052  0.1961 -0.5927 -1.3157
12505TIP3    H259007   2.420   4.273   1.151  0.2301  1.0128  0.4582
12506TIP3   OH259008   3.169   4.582   1.299  0.4484 -0.1989 -0.6072
12506TIP3    H159009   3.205   4.667   1.272  1.0999 -0.1992  0.2607
12506TIP3    H259010   3.163   4.532   1.217  1.0062  0.3321 -0.9828
12507TIP3   OH259011   2.917   5.974   1.109  0.2178 -0.0794 -0.1756
12507TIP3    H159012   2.932   5.921   1.187  0.5060  1.3627  0.7628
12507TIP3    H259013   2.899   5.910   1.040 -2.9444 -1.2999  1.6640
12508TIP3   OH259014   4.910   5.745  15.460  0.4069 -0.1626 -0.2485
12508TIP3    H159015   4.962   5.744  15.380  2.7944 -2.4683  1.2445
12508TIP3    H259016   4.819   5.737  15.430  1.2504 -0.8680 -2.7126
12509TIP3   OH259017   1.995   3.491   2.513  0.4856  0.4091 -0.1018
12509TIP3    H159018   1.904   3.502   2.540  0.3192 -0.5201 -0.2808
12509TIP3    H259019   2.046   3.505   2.594  0.3366  2.9254 -0.3852
12510TIP3   OH259020   2.279   5.231   1.199 -0.4996  0.2638  0.4103
12510TIP3    H159021   2.249   5.259   1.285 -0.2615  0.4805  0.4264
12510TIP3    H259022   2.291   5.137   1.206 -3.2152 -0.1588 -0.2153
12511TIP3   OH259023   2.821   2.803   0.757 -0.6440  0.4124  0.1224
12511TIP3    H159024   2.742   2.757   0.728  1.5144 -1.4096 -3.0477
12511TIP3    H259025   2.876   2.735   0.795  0.4879  1.2572  0.0108
12512TIP3   OH259026   4.763   5.695   0.362 -0.1647  0.4287 -0.0792
12512TIP3    H159027   4.797   5.743   0.437  0.3456  0.0007 -0.0352
12512TIP3    H259028   4.676   5.732   0.347  0.3570  1.6140 -0.2646
12513TIP3   OH259029   4.999   4.176   0.261  0.0655 -0.9159 -0.5132
12513TIP3    H159030   5.067   4.192   0.196 -0.7415 -0.3802 -1.2456
12513TIP3    H259031   5.013   4.243   0.328  0.3263 -0.8742 -0.6102
12514TIP3   OH259032   3.236   5.262  15.191  0.1669 -0.3419  0.5302
12514TIP3    H159033   3.240   5.310  15.108 -2.6839 -3.9503 -1.8818
12514TIP3    H259034   3.308   5.199  15.186 -1.0566 -1.7222 -0.0364
12515TIP3   OH259035   6.435   4.548   1.651 -0.3550  0.0824 -0.0731
12515TIP3    H159036   6.344   4.543   1.621 -0.7300 -1.5845  1.2723
12515TIP3    H259037   6.438   4.493   1.729  1.0580  2.7954  1.8569
12516TIP3   OH259038   5.684   4.926  14.885 -0.1643  0.3898 -0.6888
12516TIP3    H159039   5.648   4.923  14.796 -0.3830 -0.6156 -0.5750
12516TIP3    H259040   5.771   4.965  14.875 -0.4052  0.7856 -1.2692
12517TIP3   OH259041   6.121   6.704   0.555  0.4739 -0.2491  0.1159
12517TIP3    H159042   6.117   6.779   0.613  1.1442  0.2084 -0.4206
12517TIP3    H259043   6.112   6.628   0.613  0.5517  0.2210  0.7431
12518TIP3   OH259044   4.960   3.157   1.443  0.9142 -0.1254 -0.6003
12518TIP3    H159045   4.893   3.213   1.406 -0.3277 -0.4753  1.0702
12518TIP3    H259046   5.020   3.217   1.488  1.3624  0.1204 -1.5059
12519TIP3   OH259047   0.327   5.257   2.522 -0.0760 -0.3696  0.3938
12519TIP3    H159048   0.366   5.210   2.448 -1.4623  0.2085 -0.7456
12519TIP3    H259049   0.294   5.338   2.484  0.8106  0.7622  2.0264
12520TIP3   OH259050   3.904   5.326   1.165 -0.1463  0.0321 -0.2251
12520TIP3    H159051   3.837   5.300   1.103 -0.7903  1.8035 -0.3121
12520TIP3    H259052   3.987   5.301   1.124 -0.6806 -0.9230 -0.7268
12521TIP3   OH259053   3.584   5.456   2.785  0.3442 -0.5867 -0.3176
12521TIP3    H159054   3.582   5.482   2.877 -1.2811 -0.6182 -0.3234
12521TIP3    H259055   3.601   5.362   2.786 -0.3074 -0.7003 -0.0224
12522TIP3   OH259056   4.519   2.321  15.262  0.0365  0.1061 -0.8393
12522TIP3    H159057   4.550   2.368  15.184 -1.2657  1.5175 -0.5339
12522TIP3    H259058   4.585   2.340  15.329  0.3866  0.1267 -1.1916
12523TIP3   OH259059   5.785   4.640   0.775 -0.3156  0.1222 -0.1625
12523TIP3    H159060   5.792   4.670   0.865 -1.9101  1.3434 -0.4313
12523TIP3    H259061   5.762   4.547   0.782  0.4452 -0.0165  0.6631
12524TIP3   OH259062   3.727   4.463   2.352  0.0315 -0.1886 -0.1165
12524TIP3    H159063   3.721   4.537   2.412  1.4357  0.6973 -1.0419
12524TIP3    H259064   3.781   4.495   2.280  2.1819 -2.6974  0.3304
12525TIP3   OH259065   6.273   1.516   4.205 -0.3862 -0.1890 -0.0969
12525TIP3    H159066   6.233   1.589   4.252 -0.8987 -0.8263  0.4671
12525TIP3    H259067   6.250   1.438   4.257 -1.1076 -0.9168 -1.4904
12526TIP3   OH259068   6.787   3.406   0.997  0.1091  0.0527  0.0804
12526TIP3    H159069   6.762   3.424   1.087  1.4666  0.5357  0.3696
12526TIP3    H259070   6.867   3.456   0.983  0.1437 -0.3369 -1.2668
12527TIP3   OH259071   4.316   1.572   2.296  0.2479  0.0363  0.5469
12527TIP3    H159072   4.334   1.628   2.372 -0.3171  0.1154  0.6242
12527TIP3    H259073   4.353   1.620   2.222  0.3607  0.1959  0.7049
12528TIP3   OH259074   5.563   5.229   2.187 -0.1042  0.4173  0.7080
12528TIP3    H159075   5.529   5.208   2.274  1.1152  1.6482  1.4892
12528TIP3    H259076   5.485   5.240   2.133 -0.8469 -1.7072  1.3124
12529TIP3   OH259077   5.458   5.189   3.330  0.1324 -0.3267  0.4772
12529TIP3    H159078   5.486   5.281   3.330  0.7269 -0.5044  0.8915
12529TIP3    H259079   5.486   5.155   3.244 -1.9851  0.4357 -0.5557
12530TIP3   OH259080   3.872   3.489   2.403  0.3121 -0.2719  1.0246
12530TIP3    H159081   3.872   3.411   2.458 -1.5630 -1.0502 -0.0514
12530TIP3    H259082   3.780   3.515   2.398  0.4738 -0.1093 -1.5786
12531TIP3   OH259083   5.102   6.632   4.069 -0.3111  0.4327 -0.1830
12531TIP3    H159084   5.065   6.615   3.983 -0.6337 -0.8806  0.2054
12531TIP3    H259085   5.124   6.545   4.104  0.5411  1.0014  0.7326
12532TIP3   OH259086   4.893   6.753   2.927 -0.2491  0.3844 -0.3147
12532TIP3    H159087   4.946   6.810   2.983 -1.8888  2.5287 -0.8714
12532TIP3    H259088   4.825   6.718   2.984 -0.3302  0.4485 -0.3714
12533TIP3   OH259089   5.388   0.960   1.485  0.3971 -0.1094 -0.1345
12533TIP3    H159090   5.296   0.959   1.456  0.4750 -0.5422 -0.3665
12533TIP3    H259091   5.394   0.888   1.548  0.9607 -1.0807 -1.3008
12534TIP3   OH259092   2.789   7.120   0.767 -0.2937 -0.0172 -0.1242
12534TIP3    H159093   2.715   7.150   0.715 -0.2480  0.1513 -0.0949
12534TIP3    H259094   2.851   7.084   0.703 -0.6477 -0.6810 -0.0885
12535TIP3   OH259095   2.849   7.149   2.509  0.0769  0.0262  0.2292
12535TIP3    H159096   2.761   7.174   2.482  0.6554  1.2383 -0.5258
12535TIP3    H259097   2.844   7.053   2.518 -0.7636 -0.1296 -1.7469
12536TIP3   OH259098   2.035   5.375   2.024  0.1257  0.3773 -0.3298
12536TIP3    H159099   1.970   5.433   1.986  1.0591  3.2330  2.2093
12536TIP3    H259100   2.104   5.433   2.055  2.5679 -2.3506 -0.4150
12537TIP3   OH259101   4.522   3.985  14.596 -0.1637  0.2205  0.3405
12537TIP3    H159102   4.601   3.979  14.649  0.7474  2.2075 -0.7499
12537TIP3    H259103   4.550   4.031  14.517 -2.0266 -0.5951 -0.8358
12538TIP3   OH259104   3.306   3.935   1.694 -0.5434 -0.6629 -0.0492
12538TIP3    H159105   3.295   3.893   1.608  1.6579 -0.9467 -0.2370
12538TIP3    H259106   3.260   3.877   1.755 -3.0180  0.0812 -1.1302
12539TIP3   OH259107   2.817   6.124   1.347  0.2498  0.4194  0.0473
12539TIP3    H159108   2.793   6.035   1.375 -1.0861  0.6536 -0.3400
12539TIP3    H259109   2.860   6.112   1.262 -0.9439  0.2401 -0.5359
12540TIP3   OH259110   3.696   4.564   0.354 -0.4649 -0.6137  0.1276
12540TIP3    H159111   3.641   4.486   0.365 -0.8635 -0.4501 -0.6620
12540TIP3    H259112   3.769   4.534   0.300 -0.4798 -0.5123  0.0510
12541TIP3   OH259113   7.055   6.397   2.204 -0.3684 -0.9684  0.2828
12541TIP3    H159114   7.092   6.485   2.199 -1.9817 -0.1964  1.3290
12541TIP3    H259115   7.046   6.379   2.298 -1.1257 -1.7664  0.0782
12542TIP3   OH259116   4.134   6.395   2.379 -0.3728  0.6239  0.1134
12542TIP3    H159117   4.087   6.349   2.309  1.3773 -0.4434 -0.3826
12542TIP3    H259118   4.205   6.441   2.335  0.9002 -0.2667  1.1973
12543TIP3   OH259119   3.156   3.873   1.341 -0.7974 -0.5353  0.3860
12543TIP3    H159120   3.170   3.933   1.414  2.5529 -2.0731  1.0925
12543TIP3    H259121   3.199   3.915   1.267 -2.0971 -0.1007 -0.1204
12544TIP3   OH259122   6.910   4.404  14.455  0.4399 -0.1070 -0.4783
12544TIP3    H159123   6.915   4.350  14.534  0.4619 -0.6835 -0.8712
12544TIP3    H259124   6.943   4.348  14.385  1.6660  0.8413 -0.6902
12545TIP3   OH259125   4.690   5.064   0.991 -0.6338 -0.0113 -0.0805
12545TIP3    H159126   4.686   5.123   1.066  0.7792 -0.8579  0.6854
12545TIP3    H259127   4.600   5.059   0.959 -1.0553  1.2000  0.8986
12546TIP3   OH259128   3.646   5.619  14.609 -0.0481  0.1510 -0.3221
12546TIP3    H159129   3.692   5.703  14.600 -0.5782  0.5452  0.5569
12546TIP3    H259130   3.627   5.612  14.702 -2.5453  0.4217 -0.7591
12547TIP3   OH259131   2.316   5.383   2.638  0.5787  0.0953 -0.5249
12547TIP3    H159132   2.222   5.367   2.636  1.1911 -4.4517  0.8134
12547TIP3    H259133   2.346   5.364   2.549  0.3192  0.9053 -0.7844
12548TIP3   OH259134   6.738   5.120   0.366 -0.1361 -0.4967 -0.2046
12548TIP3    H159135   6.670   5.173   0.409  0.2407 -0.8665  0.8724
12548TIP3    H259136   6.694   5.083   0.290 -0.7578  0.3728 -0.2905
12549TIP3   OH259137   3.049   5.082   1.517 -0.4837  0.0521  0.5798
12549TIP3    H159138   3.034   5.106   1.608 -0.0597 -1.8274  1.1563
12549TIP3    H259139   2.995   5.005   1.503 -0.1654  0.0387 -0.6278
12550TIP3   OH259140   3.153   4.184   0.099  0.3847 -0.2687  0.0263
12550TIP3    H159141   3.211   4.201   0.173  1.0251  1.1814 -0.7811
12550TIP3    H259142   3.201   4.121   0.045  0.2692 -0.7119  0.4396
12551TIP3   OH259143   4.896   3.959  14.430 -0.0649 -0.1446  0.1215
12551TIP3    H159144   4.983   3.933  14.398 -0.1879 -0.8471  0.3490
12551TIP3    H259145   4.914   4.006  14.511  0.1974  0.9880 -0.5846
12552TIP3   OH259146   5.778   1.140   1.347  0.4912  0.0334  0.0564
12552TIP3    H159147   5.686   1.164   1.340  0.0648 -1.6434 -0.3810
12552TIP3    H259148   5.826   1.223   1.338 -1.0044  1.1035  1.7838
12553TIP3   OH259149   5.284   5.945  14.217 -0.5354 -0.1118  0.3727
12553TIP3    H159150   5.261   6.033  14.246  0.1368 -0.5315  2.2564
12553TIP3    H259151   5.316   5.956  14.128  0.0320  1.6375  0.7839
12554TIP3   OH259152   4.067   3.263   1.018  0.1539  0.1861 -0.3952
12554TIP3    H159153   4.139   3.320   1.044 -1.3682  1.5550  0.9616
12554TIP3    H259154   4.092   3.176   1.049  1.4526  0.5374 -0.4269
12555TIP3   OH259155   1.844   2.826  14.063 -0.1523  0.4420  0.2333
12555TIP3    H159156   1.808   2.747  14.104 -1.6902 -0.0318 -1.9037
12555TIP3    H259157   1.790   2.897  14.098 -1.4335  0.0459 -0.8807
12556TIP3   OH259158   4.427   4.457   0.165 -0.4975  0.0738 -0.0618
12556TIP3    H159159   4.464   4.439   0.079  1.7486  0.7224  0.7228
12556TIP3    H259160   4.390   4.374   0.193 -2.5812  0.2084 -2.2467
12557TIP3   OH259161   3.544   5.488   1.083  0.0318  0.2926 -0.8880
12557TIP3    H159162   3.487   5.433   1.136 -0.3501  1.2768 -0.2512
12557TIP3    H259163   3.591   5.427   1.026  0.7153 -0.8298  0.8267
12558TIP3   OH259164   2.698   3.775   0.551 -0.3173 -0.0262 -0.3616
12558TIP3    H159165   2.675   3.826   0.473 -0.5471  0.8289  0.2488
12558TIP3    H259166   2.623   3.718   0.566 -1.5055  1.7922  0.8380
12559TIP3   OH259167   4.080   2.910   1.384 -0.4820 -0.3219 -0.5272
12559TIP3    H159168   4.054   2.823   1.413 -0.5689  0.0746  0.5765
12559TIP3    H259169   4.162   2.927   1.429 -0.5348  0.2320 -0.6372
12560TIP3   OH259170   4.846   3.429   0.226  0.5656  0.5123 -0.0724
12560TIP3    H159171   4.892   3.422   0.309  1.8430  2.1538 -0.6181
12560TIP3    H259172   4.765   3.378   0.238  0.3900  1.3420  2.3873
12561TIP3   OH259173   2.213   0.582  14.559 -0.0361 -0.3486 -0.1359
12561TIP3    H159174   2.291   0.563  14.506 -0.4246 -0.8361 -0.5446
12561TIP3    H259175   2.248   0.619  14.640  0.5278  1.2714 -1.0869
12562TIP3   OH259176   6.383   6.057   2.444 -0.3476  0.2003 -0.1743
12562TIP3    H159177   6.454   6.071   2.506 -1.5469 -0.9672  1.5043
12562TIP3    H259178   6.305   6.089   2.489 -1.3675 -1.4012 -0.7459
12563TIP3   OH259179   6.336   2.149   1.843 -0.0582  0.2037  0.5096
12563TIP3    H159180   6.326   2.127   1.936  1.2553  1.2488  0.9185
12563TIP3    H259181   6.425   2.184   1.837 -0.8834  2.1031 -0.7616
12564TIP3   OH259182   5.926   5.582   1.856  0.1247 -0.8035  0.0183
12564TIP3    H159183   5.841   5.544   1.836  0.2996 -0.6618 -1.0125
12564TIP3    H259184   5.976   5.510   1.896  0.1238 -1.3921 -1.0256
12565TIP3   OH259185   6.186   5.632   0.884  0.0357  0.0006 -0.3619
12565TIP3    H159186   6.236   5.708   0.854  1.9726 -1.3229 -0.5368
12565TIP3    H259187   6.130   5.609   0.810 -0.3081  1.0196 -0.4314
12566TIP3   OH259188   4.161   6.648   3.378  0.3760  0.8173 -0.0756
12566TIP3    H159189   4.111   6.623   3.299 -3.4755  1.7378  1.9404
12566TIP3    H259190   4.194   6.736   3.359  0.3031  0.6514 -1.0177
12567TIP3   OH259191   3.705   3.864   1.196 -0.3886  0.2693  0.1860
12567TIP3    H159192   3.704   3.933   1.129 -2.5476  1.2323  1.1773
12567TIP3    H259193   3.735   3.909   1.276 -0.8815 -0.1470  0.6095
12568TIP3   OH259194   5.620   5.202   1.761 -0.1152  0.3753 -0.2927
12568TIP3    H159195   5.630   5.113   1.729  0.1582 -0.2959  1.5711
12568TIP3    H259196   5.691   5.251   1.719 -0.5727 -0.1502 -1.7127
12569TIP3   OH259197   3.784   6.210  15.877 -0.3057 -0.0124 -0.7103
12569TIP3    H159198   3.742   6.247  15.954 -1.6825 -1.3297 -0.8016
12569TIP3    H259199   3.874   6.242  15.881  0.0431 -1.2103  2.1923
12570TIP3   OH259200   2.525   5.367   1.650 -0.3863  0.4228 -0.3063
12570TIP3    H159201   2.464   5.294   1.644 -0.2534  0.3711 -1.1828
12570TIP3    H259202   2.577   5.349   1.729 -1.1049  0.1644  0.1089
12571TIP3   OH259203   3.967   2.946   1.763  0.7165 -0.5051  0.3294
12571TIP3    H159204   3.947   2.978   1.674 -0.3038 -1.0158  0.3688
12571TIP3    H259205   4.044   2.996   1.789 -1.0110  2.1823  0.5049
12572TIP3   OH259206   2.884   2.717   1.132 -0.4217 -0.1239 -0.3381
12572TIP3    H159207   2.812   2.697   1.072  0.7421 -0.6807 -1.5956
12572TIP3    H259208   2.960   2.732   1.075  1.1213 -2.3372  1.0201
12573TIP3   OH259209   5.144   4.595   2.771  0.2208 -0.1979  0.0468
12573TIP3    H159210   5.209   4.663   2.755 -0.5250  1.1586  2.5117
12573TIP3    H259211   5.192   4.526   2.815  0.4807 -0.2112 -0.2557
12574TIP3   OH259212   1.624   3.371   2.081 -0.1646 -0.0373  0.5688
12574TIP3    H159213   1.652   3.288   2.042 -0.0968  0.2847 -0.0814
12574TIP3    H259214   1.701   3.428   2.073 -0.6062  0.4762 -0.1343
12575TIP3   OH259215   4.146   3.304  15.902  0.0339 -0.0122 -0.2542
12575TIP3    H159216   4.126   3.211  15.909 -0.6990  0.1529  0.0112
12575TIP3    H259217   4.129   3.338  15.990  1.5690  0.1403 -0.0087
12576TIP3   OH259218   4.760   6.362   1.812  0.0208 -0.1755  0.1042
12576TIP3    H159219   4.805   6.409   1.741 -0.6220  1.1265  0.5392
12576TIP3    H259220   4.680   6.329   1.771  0.4665 -0.8977 -0.1988
12577TIP3   OH259221   6.109   3.423  15.137 -0.1469 -0.3992  0.2319
12577TIP3    H159222   6.116   3.437  15.231  2.2309 -0.7919  0.1475
12577TIP3    H259223   6.019   3.449  15.115 -0.6254 -0.0126  2.5362
12578TIP3   OH259224   5.500   5.129   0.005  0.0586  0.4275 -0.1133
12578TIP3    H159225   5.540   5.212  -0.020  0.6027 -0.1561 -1.2433
12578TIP3    H259226   5.421   5.123  -0.048  0.2551  0.0230 -0.3663
12579TIP3   OH259227   6.254   5.546   0.305  0.3653  0.1659 -0.4255
12579TIP3    H159228   6.244   5.547   0.210  0.4038  2.1435 -0.4325
12579TIP3    H259229   6.215   5.628   0.334  0.3795 -0.4089  1.2718
12580TIP3   OH259230   2.398   3.880   2.276 -0.0427  0.1928  0.2282
12580TIP3    H159231   2.421   3.878   2.369 -1.5909 -0.0480  0.6146
12580TIP3    H259232   2.406   3.789   2.247 -0.5206  0.1026  0.3725
12581TIP3   OH259233   2.058   6.146   0.576  0.3361 -0.0350  0.0942
12581TIP3    H159234   2.038   6.170   0.485  2.8538  1.6035 -0.0904
12581TIP3    H259235   2.118   6.072   0.568  0.6769  0.2057  0.4190
12582TIP3   OH259236   5.580   4.895   2.638  0.0369  0.3479 -0.3487
12582TIP3    H159237   5.587   4.973   2.583 -0.9017  1.0142  0.4649
12582TIP3    H259238   5.664   4.851   2.628 -0.2723  0.2248 -2.6586
12583TIP3   OH259239   5.576   5.458   3.333 -0.0758  0.3845 -0.7529
12583TIP3    H159240   5.515   5.512   3.283 -2.8394 -1.4348  0.5415
12583TIP3    H259241   5.588   5.506   3.416  0.1534  0.6681 -0.9481
12584TIP3   OH259242   6.698   6.455   3.187  0.4628  0.4075  0.0671
12584TIP3    H159243   6.719   6.367   3.156 -2.1996 -0.8348  1.5460
12584TIP3    H259244   6.743   6.462   3.271 -0.4627 -0.1215  0.6203
12585TIP3   OH259245   5.956   4.545  15.303 -0.2755 -0.2602 -0.2617
12585TIP3    H159246   5.870   4.502  15.298 -0.0153 -0.9065  0.7774
12585TIP3    H259247   5.954   4.591  15.387  0.5592 -0.6286 -0.0392
12586TIP3   OH259248   3.126   3.618   0.179  0.2463  0.1359  0.1007
12586TIP3    H159249   3.134   3.527   0.151  0.3182  0.3394 -0.5578
12586TIP3    H259250   3.040   3.646   0.147  0.1959  0.2804  0.3573
12587TIP3   OH259251   2.582   4.022   0.646  0.2792 -0.3728  0.2341
12587TIP3    H159252   2.637   3.944   0.640  1.3183  0.2515  1.5136
12587TIP3    H259253   2.572   4.050   0.555  3.5645  0.4875  0.0449
12588TIP3   OH259254   5.238   5.381   0.605 -0.1008  0.1044 -0.2048
12588TIP3    H159255   5.328   5.358   0.581 -0.3063  1.3259 -2.2487
12588TIP3    H259256   5.199   5.298   0.633  1.3058 -0.6588 -0.4288
12589TIP3   OH259257   4.403   4.373   2.717 -0.0404 -0.0267 -0.0149
12589TIP3    H159258   4.460   4.308   2.759  0.3351  0.7750  0.7372
12589TIP3    H259259   4.360   4.418   2.789 -2.0590 -0.9773 -0.5976
12590TIP3   OH259260   3.770   3.883   1.695 -0.0367 -0.0150 -0.2063
12590TIP3    H159261   3.841   3.866   1.757  0.3728 -0.7598 -0.8653
12590TIP3    H259262   3.690   3.879   1.748  0.2751 -1.0796  0.2065
12591TIP3   OH259263   2.335   3.053   1.618  0.5228 -0.6312 -0.4209
12591TIP3    H159264   2.365   3.103   1.694 -0.7567 -1.0192  0.3751
12591TIP3    H259265   2.411   3.047   1.561  0.8813  1.6896 -0.2596
12592TIP3   OH259266   3.290   3.429   2.433  0.3607 -0.5204 -0.2969
12592TIP3    H159267   3.314   3.521   2.423 -0.3916 -0.2472  0.4067
12592TIP3    H259268   3.209   3.430   2.484 -1.2769 -1.4334 -2.8103
12593TIP3   OH259269   5.358   5.734  13.788 -0.2390 -0.5716  0.4648
12593TIP3    H159270   5.430   5.692  13.834  1.6936 -0.6972 -2.5746
12593TIP3    H259271   5.358   5.694  13.701 -3.1667  0.3410 -0.0182
12594TIP3   OH259272   4.357   5.500  14.073  0.1116 -0.7054 -0.0522
12594TIP3    H159273   4.374   5.436  14.003  0.7482 -0.7561  0.1463
12594TIP3    H259274   4.444   5.530  14.100 -0.1490 -0.3956  0.4558
12595TIP3   OH259275   3.548   0.813   3.058 -0.5031  0.2030  0.1472
12595TIP3    H159276   3.638   0.839   3.036 -1.2529  1.8903 -0.9876
12595TIP3    H259277   3.494   0.861   2.996 -2.1194 -1.8105 -0.0181
12596TIP3   OH259278   4.296   4.964  15.530  0.4555 -0.5425  0.1938
12596TIP3    H159279   4.275   4.886  15.479 -2.2726  0.1959  0.0973
12596TIP3    H259280   4.278   4.939  15.621  1.2262 -0.5576  0.3430
12597TIP3   OH259281   3.468   5.097   0.529  0.1103 -0.2801 -0.2303
12597TIP3    H159282   3.533   5.146   0.479  1.0405 -0.3399  0.8772
12597TIP3    H259283   3.488   5.005   0.510 -1.2514 -0.2585 -1.8382
12598TIP3   OH259284   4.764   6.336   1.453  0.2695  0.2552 -0.1002
12598TIP3    H159285   4.782   6.370   1.365 -0.2281  0.7397 -0.0099
12598TIP3    H259286   4.811   6.395   1.512  0.0298  0.3341  0.0087
12599TIP3   OH259287   6.773   0.646   2.898 -0.4313 -0.1121  0.0033
12599TIP3    H159288   6.837   0.621   2.832  0.5862 -1.0799  1.3156
12599TIP3    H259289   6.721   0.715   2.857  0.2919 -0.5760 -1.7235
12600TIP3   OH259290   6.308   6.753   2.582 -0.1679 -0.0311 -0.1173
12600TIP3    H159291   6.384   6.763   2.639 -1.2705  2.1791  1.0157
12600TIP3    H259292   6.233   6.777   2.637 -1.2772  2.0485 -2.4478
12601TIP3   OH259293   2.592   7.235   0.651  0.5358 -0.5757  0.3407
12601TIP3    H159294   2.622   7.324   0.669  0.3289 -0.6121  0.8503
12601TIP3    H259295   2.507   7.247   0.607  0.1667 -0.5446  1.0662
12602TIP3   OH259296   5.866   0.949   1.986 -0.9132 -0.5871  0.3704
12602TIP3    H159297   5.891   1.012   1.920 -2.0946 -1.2412 -0.7142
12602TIP3    H259298   5.910   0.868   1.960  0.4449 -0.2901  1.6487
12603TIP3   OH259299   7.044   4.592   2.763 -0.6047  0.8172 -0.1225
12603TIP3    H159300   7.028   4.597   2.857 -0.7839  0.7764 -0.1498
12603TIP3    H259301   6.962   4.559   2.727 -0.4650  0.6344 -0.2715
12604TIP3   OH259302   3.763   4.779   0.518  0.9088  0.2839 -0.5180
12604TIP3    H159303   3.747   4.703   0.463 -0.4483  1.4590 -1.7943
12604TIP3    H259304   3.679   4.825   0.521  1.9000  2.1659 -0.4257
12605TIP3   OH259305   0.231   2.990  14.215  0.3132 -0.3230 -0.1825
12605TIP3    H159306   0.316   2.980  14.259  0.8238 -1.1372 -1.3335
12605TIP3    H259307   0.231   3.081  14.185 -0.1248  0.2953  1.6551
12606TIP3   OH259308   4.261   3.832   3.900 -0.3168 -0.3432 -0.1261
12606TIP3    H159309   4.235   3.772   3.830  0.8456 -1.2369  0.1842
12606TIP3    H259310   4.216   3.914   3.880 -1.5951 -1.1984 -0.7874
12607TIP3   OH259311   2.607   6.554   0.208 -0.5131 -0.5817  0.6631
12607TIP3    H159312   2.583   6.617   0.276 -0.1283 -0.0550  0.3108
12607TIP3    H259313   2.536   6.558   0.145  0.2788  0.6887 -0.1782
12608TIP3   OH259314   5.685   4.868   3.084 -0.0124 -0.1635  0.4673
12608TIP3    H159315   5.631   4.921   3.025  0.7534  0.2243  0.1054
12608TIP3    H259316   5.641   4.874   3.169 -0.5592  0.1188  0.1663
12609TIP3   OH259317   5.658   4.148   3.208  0.1011  0.1337 -0.3723
12609TIP3    H159318   5.659   4.241   3.233  0.3305  0.1885 -0.5791
12609TIP3    H259319   5.751   4.124   3.204  0.0657  0.1220 -1.1627
12610TIP3   OH259320   3.555   4.723   1.944  0.1893 -0.0177  0.2023
12610TIP3    H159321   3.593   4.635   1.934  0.4046 -0.0584  1.2677
12610TIP3    H259322   3.576   4.747   2.034 -0.8334  0.6706  0.2607
12611TIP3   OH259323   4.903   3.756   2.014  0.5807  0.3394  0.4673
12611TIP3    H159324   4.810   3.775   2.025  0.1823 -1.2646 -0.0317
12611TIP3    H259325   4.937   3.748   2.103 -0.2476 -1.3850  0.6372
12612TIP3   OH259326   0.150   6.368   3.435 -0.2562  0.1280  0.1888
12612TIP3    H159327   0.108   6.454   3.430 -2.3851 -0.9379 -0.9713
12612TIP3    H259328   0.222   6.380   3.497 -1.4212  2.3679  1.1694
12613TIP3   OH259329   3.977   5.066   3.136  0.0599 -0.4882 -0.1898
12613TIP3    H159330   4.009   5.000   3.074  0.1121 -0.7023  0.0628
12613TIP3    H259331   3.991   5.150   3.092 -0.7098 -0.6900 -0.8332
12614TIP3   OH259332   6.173   6.271   3.593  0.2456  0.0965 -0.1618
12614TIP3    H159333   6.202   6.301   3.507 -1.3829  0.3225 -0.6540
12614TIP3    H259334   6.180   6.176   3.590  1.9296  0.1937  0.1160
12615TIP3   OH259335   5.387   3.859   0.062 -0.1722  0.4181 -0.3413
12615TIP3    H159336   5.406   3.769   0.089 -0.1311  0.3340 -0.6480
12615TIP3    H259337   5.324   3.891   0.126  0.9672  0.6880  0.6552
12616TIP3   OH259338   1.984   2.358   2.532 -0.4464  0.4006  0.5831
12616TIP3    H159339   2.006   2.423   2.599 -0.1602  0.3375  0.5508
12616TIP3    H259340   1.947   2.284   2.582 -4.1594  1.9981  0.3478
12617TIP3   OH259341   2.883   4.581   0.815 -0.3000  0.1327  0.0642
12617TIP3    H159342   2.939   4.583   0.892 -0.3761 -0.9124  0.1661
12617TIP3    H259343   2.926   4.520   0.755 -0.2258  0.9625 -0.7327
12618TIP3   OH259344   5.082   5.065   1.195  0.2821  0.2769  0.1454
12618TIP3    H159345   5.174   5.069   1.167  0.3934  0.6734  0.5662
12618TIP3    H259346   5.078   4.991   1.255  0.5118  0.7995  0.8077
12619TIP3   OH259347   4.601   0.209   1.187  0.2256  0.3649 -0.5406
12619TIP3    H159348   4.606   0.288   1.134 -1.4610  0.9116  0.0910
12619TIP3    H259349   4.553   0.147   1.134 -1.0856  0.7697  0.1499
12620TIP3   OH259350   4.337   4.617   2.053  0.2806 -0.3246 -0.2690
12620TIP3    H159351   4.354   4.667   2.132  0.1043  0.1306 -0.5184
12620TIP3    H259352   4.324   4.527   2.083 -1.3935  0.1238  0.3688
12621TIP3   OH259353   5.834   7.108   0.529  0.3388 -0.8694 -0.4841
12621TIP3    H159354   5.921   7.074   0.553  0.5150  1.3249  2.2347
12621TIP3    H259355   5.851   7.196   0.495 -0.9127  0.1511  1.4550
12622TIP3   OH259356   3.130   3.065   2.391 -0.0391  0.0625 -0.5074
12622TIP3    H159357   3.109   2.974   2.368  1.0715 -0.2596 -0.2642
12622TIP3    H259358   3.111   3.071   2.485  0.9440 -0.2279 -0.2881
12623TIP3   OH259359   2.838   4.860   1.572  0.3097  0.7369 -0.5517
12623TIP3    H159360   2.812   4.783   1.624  1.4331  0.9931  0.4109
12623TIP3    H259361   2.755   4.900   1.546 -0.3179 -1.3873 -1.9621
12624TIP3   OH259362   3.695   7.218   1.713  0.1169  0.5231  0.1714
12624TIP3    H159363   3.668   7.168   1.790  0.5419 -0.4613 -0.3090
12624TIP3    H259364   3.772   7.172   1.680  0.1445  1.1374 -0.6417
12625TIP3   OH259365   5.003   6.421   2.401 -0.0460  0.3852 -0.1868
12625TIP3    H159366   5.002   6.373   2.318  0.9794 -0.1782  0.1237
12625TIP3    H259367   5.090   6.461   2.404 -0.2625  0.8143  0.3815
12626TIP3   OH259368   2.359   6.352   2.340  0.4165 -0.6284  0.6197
12626TIP3    H159369   2.337   6.268   2.380  1.6701 -0.0080  2.6342
12626TIP3    H259370   2.428   6.331   2.277  0.2852 -1.1875  0.6573
12627TIP3   OH259371   3.774   4.268   1.309 -0.1952 -0.3681  0.0189
12627TIP3    H159372   3.679   4.272   1.293 -0.0261 -1.2015 -1.2661
12627TIP3    H259373   3.813   4.282   1.223  0.8680  0.1938  0.5836
12628TIP3   OH259374   4.231   3.668   3.628 -0.0913 -0.1349  0.4413
12628TIP3    H159375   4.163   3.642   3.565 -0.7401  0.2486  0.9725
12628TIP3    H259376   4.279   3.588   3.646 -0.4649 -0.4309  0.1307
12629TIP3   OH259377   3.872   3.509   1.565 -0.6901 -0.0356  0.0243
12629TIP3    H159378   3.888   3.596   1.528  0.1244  0.0294  0.5220
12629TIP3    H259379   3.958   3.467   1.565 -1.0339 -0.7430  0.0420
12630TIP3   OH259380   4.498   4.527   4.384  0.8719 -0.1645 -0.1088
12630TIP3    H159381   4.474   4.462   4.318 -1.2186  0.4561  0.0259
12630TIP3    H259382   4.488   4.611   4.341 -0.4526  0.2467  0.9754
12631TIP3   OH259383   5.028   0.526   1.889  0.6021 -0.2908  0.3990
12631TIP3    H159384   5.014   0.514   1.983  1.4700 -2.8964  0.2195
12631TIP3    H259385   4.977   0.604   1.867  1.3720  1.0813  3.2620
12632TIP3   OH259386   4.826   6.844   4.042  0.5415  0.6085 -0.2637
12632TIP3    H159387   4.863   6.881   3.962 -0.3235 -0.3792 -1.1522
12632TIP3    H259388   4.742   6.889   4.054  0.4066  0.3567 -0.2385
12633TIP3   OH259389   2.652   5.015   3.290  0.0785  0.6895 -0.7182
12633TIP3    H159390   2.658   5.088   3.228  0.3721  1.3426  0.0717
12633TIP3    H259391   2.623   5.055   3.372  0.3007 -0.0722 -0.2610
12634TIP3   OH259392   3.357   5.152   0.792  0.1167 -0.2874 -0.0217
12634TIP3    H159393   3.380   5.158   0.699 -2.0047 -0.3155 -0.5819
12634TIP3    H259394   3.315   5.235   0.812 -0.7331 -0.8401  0.5239
12635TIP3   OH259395   5.458   5.683   3.585 -0.4620  0.1163 -0.0996
12635TIP3    H159396   5.403   5.761   3.593  0.7340  1.1818 -1.7794
12635TIP3    H259397   5.509   5.682   3.665 -0.8676  0.7708  0.1723
12636TIP3   OH259398   5.377   2.435  15.337  0.2891  0.1971  0.1583
12636TIP3    H159399   5.447   2.370  15.342  1.4765  1.4003 -0.4014
12636TIP3    H259400   5.299   2.385  15.313  0.7929 -1.2741  1.5072
12637TIP3   OH259401   3.455   5.102  15.210  0.0862 -0.0768 -0.4038
12637TIP3    H159402   3.534   5.075  15.163  1.0595  0.8862  0.6316
12637TIP3    H259403   3.487   5.127  15.297 -1.5110 -0.6918  0.3866
12638TIP3   OH259404   4.421   3.738   1.537 -0.7060  0.3555 -0.0562
12638TIP3    H159405   4.403   3.781   1.453 -0.2195  1.7715  0.5460
12638TIP3    H259406   4.507   3.771   1.563 -0.5107 -0.6700  0.6325
12639TIP3   OH259407   3.747   4.670   0.877 -0.4813  0.3829  0.2158
12639TIP3    H159408   3.765   4.731   0.949  0.3065 -0.7866  1.0291
12639TIP3    H259409   3.653   4.678   0.861 -0.1887  2.6622 -0.4791
12640TIP3   OH259410   4.140   4.115   2.422  0.0881  0.6499  0.6026
12640TIP3    H159411   4.162   4.054   2.493  0.4395 -0.1645 -0.1951
12640TIP3    H259412   4.159   4.066   2.342 -0.7131  1.4127 -0.0622
12641TIP3   OH259413   5.490   4.129  15.393 -0.1978  0.2535  0.4987
12641TIP3    H159414   5.467   4.107  15.303 -2.4435  0.6112  0.9376
12641TIP3    H259415   5.528   4.216  15.388  1.8904 -0.6633 -0.3519
12642TIP3   OH259416   1.867   2.185   0.768  0.1344  0.4431 -0.4987
12642TIP3    H159417   1.816   2.108   0.795  0.4824  0.6256  0.6833
12642TIP3    H259418   1.809   2.259   0.786  0.1960  0.5351 -0.6784
12643TIP3   OH259419   3.504   2.251  15.922  0.6341  0.2120  0.0049
12643TIP3    H159420   3.423   2.283  15.964  1.4372  1.4979  0.6183
12643TIP3    H259421   3.476   2.223  15.835 -0.8766 -1.4932  0.9940
12644TIP3   OH259422   1.996   6.952   0.174 -0.7262 -0.0247  0.3256
12644TIP3    H159423   2.007   6.859   0.158 -1.8210 -0.2704  0.9224
12644TIP3    H259424   1.927   6.979   0.112 -0.5880  0.3332  0.3249
12645TIP3   OH259425   4.742   4.293  14.396 -0.6571 -0.0711 -0.0697
12645TIP3    H159426   4.821   4.337  14.429 -1.3865  1.7012 -0.6149
12645TIP3    H259427   4.775   4.235  14.327  0.1009  1.2977 -0.8990
12646TIP3   OH259428   3.180   4.114   1.521 -0.1675  1.0578  0.0907
12646TIP3    H159429   3.227   4.196   1.535 -0.7883  1.3173  0.7306
12646TIP3    H259430   3.208   4.058   1.594 -1.1303  1.3520  0.7037
12647TIP3   OH259431   3.856   3.588   1.829 -0.1557 -0.0431  0.2712
12647TIP3    H159432   3.856   3.550   1.740 -0.2761  0.7871 -0.0840
12647TIP3    H259433   3.785   3.541   1.874 -1.3831  0.8704 -0.6546
12648TIP3   OH259434   1.879   5.153   2.094 -0.5819 -0.7701 -0.3453
12648TIP3    H159435   1.930   5.234   2.085 -1.3680 -0.1712  0.4971
12648TIP3    H259436   1.902   5.102   2.017 -1.2237  0.8951 -1.6583
12649TIP3   OH259437   2.773   3.614   1.428 -0.1553  0.5040 -0.2720
12649TIP3    H159438   2.747   3.581   1.342  0.7266  1.3705 -0.8844
12649TIP3    H259439   2.869   3.612   1.426 -0.1317 -0.6627  1.1696
12650TIP3   OH259440   5.210   3.914   2.171  0.8407  0.1532  0.0111
12650TIP3    H159441   5.234   3.830   2.132  0.6024 -0.6360  1.5227
12650TIP3    H259442   5.284   3.972   2.152  1.1634 -0.5027 -0.7223
12651TIP3   OH259443   5.687   4.704  15.832 -0.8455 -0.5184 -0.3379
12651TIP3    H159444   5.669   4.725  15.741  0.6268 -1.2542 -0.8182
12651TIP3    H259445   5.694   4.608  15.834 -0.9250 -0.5120  0.5534
12652TIP3   OH259446   6.410   4.780   4.770 -0.6408 -0.0779  0.1622
12652TIP3    H159447   6.421   4.850   4.706 -1.7216  0.0872  0.1540
12652TIP3    H259448   6.423   4.699   4.720 -0.5342  0.0765 -0.0600
12653TIP3   OH259449   5.898   5.212   2.748  0.0129  0.0129  0.0482
12653TIP3    H159450   5.980   5.260   2.757  1.0018 -1.8258  1.0121
12653TIP3    H259451   5.914   5.150   2.677 -0.8138  0.1989 -0.3058
12654TIP3   OH259452   0.488   4.672   2.884  0.3428  0.5210  0.6003
12654TIP3    H159453   0.483   4.715   2.799  1.0255 -0.4037  0.0723
12654TIP3    H259454   0.416   4.710   2.935 -0.7335  0.3313 -0.7343
12655TIP3   OH259455   6.178   6.018   0.020  0.1501  0.3235  0.0111
12655TIP3    H159456   6.192   6.046  -0.071  0.5349 -1.2484 -0.4201
12655TIP3    H259457   6.114   5.947   0.014  0.1011  0.2777  0.9826
12656TIP3   OH259458   5.359   4.189   1.116 -0.2937  0.0574 -0.0650
12656TIP3    H159459   5.308   4.244   1.175  0.2072  0.4284  0.0270
12656TIP3    H259460   5.444   4.233   1.109 -0.5774  0.3858 -1.6123
12657TIP3   OH259461   7.296   6.321   2.718 -0.2072  0.3272  0.3572
12657TIP3    H159462   7.240   6.368   2.779 -0.3489  0.5758  0.0420
12657TIP3    H259463   7.269   6.229   2.725 -0.6284  0.4398  0.2375
12658TIP3   OH259464   6.464   4.295   0.017 -0.0813  0.7478  0.2321
12658TIP3    H159465   6.497   4.299   0.107  0.6397 -1.0809  0.0725
12658TIP3    H259466   6.369   4.285   0.027 -0.0161  0.6611  0.7974
12659TIP3   OH259467   5.989   3.144   0.035  0.0385 -0.3189 -0.3653
12659TIP3    H159468   6.007   3.124  -0.057 -0.9746 -1.9926 -0.2117
12659TIP3    H259469   6.051   3.091   0.085 -0.5258 -0.6699 -0.0334
12660TIP3   OH259470   5.141   5.024   0.854 -0.3860  0.3647 -0.0681
12660TIP3    H159471   5.150   5.010   0.760 -2.8138 -0.6543 -0.1923
12660TIP3    H259472   5.223   4.993   0.891 -0.3522 -1.5058 -1.6411
12661TIP3   OH259473   4.593   6.518   0.661 -0.3079  0.1223 -0.2684
12661TIP3    H159474   4.525   6.462   0.699  0.7231 -0.3816  0.8773
12661TIP3    H259475   4.666   6.458   0.643  1.7050  1.4222  3.1265
12662TIP3   OH259476   5.285   4.239   1.778  0.3893 -0.0488 -0.2296
12662TIP3    H159477   5.235   4.162   1.750  0.0367  0.5387 -1.2820
12662TIP3    H259478   5.261   4.252   1.869  0.0348 -0.8664 -0.2023
12663TIP3   OH259479   2.535   3.742  14.645  0.1413 -0.1855 -0.1354
12663TIP3    H159480   2.457   3.798  14.637  0.8599  1.1519  1.8831
12663TIP3    H259481   2.500   3.653  14.650 -1.2211  0.3402  0.0923
12664TIP3   OH259482   0.064   2.771  14.374 -0.2047 -0.0933 -0.0105
12664TIP3    H159483   0.084   2.707  14.442 -0.8166  1.4732  1.6740
12664TIP3    H259484  -0.021   2.808  14.398  1.1960  3.0723  0.4333
12665TIP3   OH259485   0.562   4.282  14.992 -0.3600 -0.0686  0.3225
12665TIP3    H159486   0.534   4.326  15.072 -0.5295  3.4001 -1.5366
12665TIP3    H259487   0.635   4.335  14.959 -1.0368 -0.7437 -2.4274
12666TIP3   OH259488   3.262   3.273   0.292  0.4869 -0.3901  0.7273
12666TIP3    H159489   3.281   3.323   0.371  2.1114  0.1614  0.0127
12666TIP3    H259490   3.346   3.232   0.269 -0.1772 -1.2360 -0.2195
12667TIP3   OH259491   5.890   5.133  15.942  0.4798  1.1783  0.1960
12667TIP3    H159492   5.951   5.059  15.942  0.4779  1.1608 -1.8561
12667TIP3    H259493   5.803   5.092  15.949  0.5829  1.0951  1.0300
12668TIP3   OH259494   4.988   3.848   1.055  0.7037 -0.6231 -0.4803
12668TIP3    H159495   4.969   3.755   1.069  1.5308 -0.8226 -0.6526
12668TIP3    H259496   5.079   3.858   1.082  1.5323 -0.4654 -3.1755
12669TIP3   OH259497   6.925   3.177   0.449 -0.0825  0.5266 -0.2899
12669TIP3    H159498   6.903   3.120   0.375  0.4593 -0.7590  0.5202
12669TIP3    H259499   6.985   3.242   0.412  0.4992 -0.3453 -0.8999
12670TIP3   OH259500   5.871   4.161   0.985  1.2947  0.0184 -0.0898
12670TIP3    H159501   5.808   4.107   1.033  0.5368  0.3857 -0.6581
12670TIP3    H259502   5.918   4.100   0.929  0.4482 -0.0636 -0.7194
12671TIP3   OH259503   0.251   5.076   2.116  0.2025 -0.3272 -0.0945
12671TIP3    H159504   0.289   5.114   2.037 -1.4848 -0.8153 -1.1736
12671TIP3    H259505   0.174   5.029   2.084 -1.0059  0.2270  1.9806
12672TIP3   OH259506   3.829   3.002   1.485  0.2513 -0.3685  0.4418
12672TIP3    H159507   3.762   2.998   1.416  0.6553  1.2112 -0.0739
12672TIP3    H259508   3.911   2.983   1.440  0.4172 -0.1377  0.6440
12673TIP3   OH259509   4.327   4.710  15.349  0.4989  0.4836 -0.7818
12673TIP3    H159510   4.369   4.680  15.429 -1.0366  0.8816  0.1830
12673TIP3    H259511   4.292   4.630  15.308  1.5889  0.2347 -1.2657
12674TIP3   OH259512   6.044   3.926  15.851 -0.0650 -0.5994  0.1690
12674TIP3    H159513   6.052   3.840  15.811  0.4294 -0.4230 -0.1165
12674TIP3    H259514   6.096   3.921  15.931 -0.8421 -0.8712  0.6592
12675TIP3   OH259515   7.210   3.166   0.021 -0.1528 -0.2984 -0.2485
12675TIP3    H159516   7.258   3.083   0.017 -1.0732 -0.8389 -0.3739
12675TIP3    H259517   7.210   3.198  -0.069  0.1727 -0.1820 -0.2064
12676TIP3   OH259518   6.996   4.559   1.138  0.2632  0.3703 -0.0913
12676TIP3    H159519   7.033   4.556   1.049 -1.3788  1.0824 -0.8228
12676TIP3    H259520   6.901   4.555   1.124  0.0307 -0.9722  1.7168
12677TIP3   OH259521   4.678   5.964   4.008  0.5924  0.2227 -0.2964
12677TIP3    H159522   4.765   5.964   4.049  0.0348  0.7232  0.8863
12677TIP3    H259523   4.676   6.044   3.957  0.0782  1.2482  1.2978
12678TIP3   OH259524   6.684   4.775  15.390 -0.2344 -0.1526 -0.2854
12678TIP3    H159525   6.744   4.800  15.319  0.3365  0.5491  0.4297
12678TIP3    H259526   6.696   4.680  15.399 -0.2578 -0.2311 -1.0787
12679TIP3   OH259527   5.389   4.511   1.137  0.1174  0.2422 -0.5685
12679TIP3    H159528   5.322   4.468   1.190  1.2105 -0.7927 -0.0174
12679TIP3    H259529   5.420   4.583   1.191  1.2564 -0.8346  0.2244
12680TIP3   OH259530   5.726   0.177   0.146 -0.1890 -0.0741 -0.1716
12680TIP3    H159531   5.734   0.272   0.147 -2.9279  0.2988 -3.5863
12680TIP3    H259532   5.812   0.146   0.118 -0.2489  1.6097 -2.3127
12681TIP3   OH259533   0.185   4.066   0.448 -0.0334  0.1482 -0.2315
12681TIP3    H159534   0.231   4.135   0.495 -0.3843  0.3024 -0.1084
12681TIP3    H259535   0.233   3.986   0.467  0.8895  0.4930 -1.0752
12682TIP3   OH259536   0.760   3.437   2.286  0.0738  0.0732  0.3185
12682TIP3    H159537   0.680   3.481   2.257 -0.2281 -1.4853 -1.2912
12682TIP3    H259538   0.801   3.499   2.346 -0.9661  2.0037 -0.9285
12683TIP3   OH259539   5.455   6.103   0.737 -0.7624  0.0431  0.7031
12683TIP3    H159540   5.430   6.016   0.768 -2.0228 -0.1585 -0.7889
12683TIP3    H259541   5.451   6.159   0.814  0.8560 -1.3797  1.8337
12684TIP3   OH259542   5.454   4.124  15.749 -0.0669  0.0259  0.0547
12684TIP3    H159543   5.542   4.099  15.779  0.3070  1.3789  0.1168
12684TIP3    H259544   5.469   4.198  15.691 -1.1968  0.3935  0.2213
12685TIP3   OH259545   7.181   3.250   0.929 -0.4869  0.0809 -0.1161
12685TIP3    H159546   7.134   3.170   0.907 -0.6575  0.2075 -0.2189
12685TIP3    H259547   7.219   3.280   0.846  2.3321 -1.6461  0.5073
12686TIP3   OH259548   4.981   4.798   1.295  0.4426 -0.5962  0.0166
12686TIP3    H159549   5.061   4.766   1.335  0.6931  0.4227  0.3499
12686TIP3    H259550   4.911   4.759   1.347  0.7470 -0.1638  0.7580
12687TIP3   OH259551   5.508   5.404   3.027  0.3127  0.4935  0.1586
12687TIP3    H159552   5.578   5.368   3.081  0.7028  0.9482 -0.0351
12687TIP3    H259553   5.470   5.474   3.081  1.3301  1.5876 -0.5198
12688TIP3   OH259554   6.431   5.917   1.954  0.2632 -0.2011  0.0466
12688TIP3    H159555   6.394   5.879   2.034 -0.2826  1.4910  0.6229
12688TIP3    H259556   6.375   5.993   1.936  0.4359 -0.5146 -1.9006
12689TIP3   OH259557   4.579   2.882  14.468  0.3023 -0.6104  0.2575
12689TIP3    H159558   4.593   2.837  14.552 -0.9276 -0.8425  0.3450
12689TIP3    H259559   4.664   2.876  14.423  1.4278  0.8561  2.1154
12690TIP3   OH259560   0.707   5.225  15.065 -0.3160  0.1582  0.4789
12690TIP3    H159561   0.769   5.294  15.041  0.2351 -0.9602 -1.3177
12690TIP3    H259562   0.645   5.222  14.992 -0.3895 -1.2035  0.5951
12691TIP3   OH259563   5.776   4.428   3.187 -0.1924 -0.2014 -0.2269
12691TIP3    H159564   5.739   4.483   3.256  3.2480  0.7806  0.9290
12691TIP3    H259565   5.778   4.485   3.109  0.2764  0.2440  0.1060
12692TIP3   OH259566   5.672   3.372   1.179 -0.5671  0.3079  0.0052
12692TIP3    H159567   5.720   3.336   1.254 -1.1175 -0.3355  0.0539
12692TIP3    H259568   5.624   3.446   1.214 -0.5864  0.1909  0.2264
12693TIP3   OH259569   6.895   4.853   0.008  0.4839 -0.6882  0.3166
12693TIP3    H159570   6.930   4.790   0.072  2.7875 -0.3858 -0.6048
12693TIP3    H259571   6.900   4.807  -0.076 -2.0149 -0.8770  0.2437
12694TIP3   OH259572   6.597   1.951   1.908  0.4055  0.3711 -0.3042
12694TIP3    H159573   6.611   1.886   1.978  0.1622  2.5337  1.8188
12694TIP3    H259574   6.576   1.898   1.831  0.0169 -2.0866  1.4021
12695TIP3   OH259575   0.520   5.234   1.972  0.0488 -0.9384  0.1509
12695TIP3    H159576   0.484   5.180   1.901 -0.0357 -2.5851  1.4059
12695TIP3    H259577   0.454   5.301   1.987  0.6613  0.2429 -2.2084
12696TIP3   OH259578   7.341   3.488   2.056  0.0056 -0.5106 -0.0857
12696TIP3    H159579   7.350   3.580   2.029 -0.3751  0.0135  1.5200
12696TIP3    H259580   7.425   3.466   2.096  0.4735 -1.2122 -1.3919
12697TIP3   OH259581   5.810   4.550   0.509 -0.2528  0.1023 -0.1852
12697TIP3    H159582   5.823   4.618   0.443 -1.2088  0.2970 -0.1761
12697TIP3    H259583   5.817   4.596   0.593  1.3608 -0.2156 -0.1388
12698TIP3   OH259584   0.702   5.120   0.713  0.0702  0.2376  0.3067
12698TIP3    H159585   0.619   5.099   0.669  0.8935 -1.7182 -0.3611
12698TIP3    H259586   0.710   5.215   0.705 -2.3861  0.5531  0.8905
12699TIP3   OH259587   4.805   5.700   1.365  0.1150  0.2388  0.0157
12699TIP3    H159588   4.891   5.658   1.362  0.2531  0.2119  3.1340
12699TIP3    H259589   4.819   5.781   1.414 -1.7143 -0.0178  1.0135
12700TIP3   OH259590   0.312   4.485   2.628  0.0130 -0.2333 -0.0111
12700TIP3    H159591   0.278   4.565   2.668 -1.4243 -1.0978  0.5300
12700TIP3    H259592   0.237   4.446   2.584  0.8967 -0.8541 -0.9825
12701TIP3   OH259593   0.001   3.569  14.527  0.3811 -0.3143  0.6400
12701TIP3    H159594   0.018   3.645  14.471 -1.8912 -0.2942 -0.1022
12701TIP3    H259595   0.062   3.502  14.497  0.6093  0.3841 -0.4877
12702TIP3   OH259596   0.124   6.874   1.617 -0.0081  0.1743 -0.0446
12702TIP3    H159597   0.192   6.814   1.586  1.1603  1.3153  0.2330
12702TIP3    H259598   0.158   6.961   1.596 -0.0972  0.8981  2.6129
12703TIP3   OH259599   0.715   3.848  14.346  0.1704  0.2959 -0.6062
12703TIP3    H159600   0.799   3.895  14.346  0.7890 -0.7825  0.3768
12703TIP3    H259601   0.732   3.770  14.294 -0.0209 -0.2582  0.1539
12704TIP3   OH259602   5.460   3.772   2.238 -0.1640  0.0637 -0.6694
12704TIP3    H159603   5.540   3.820   2.258  0.0500 -1.5682  2.8562
12704TIP3    H259604   5.390   3.826   2.274 -0.1651 -0.8797  0.7888
12705TIP3   OH259605   5.048   5.275   2.578  0.3981 -0.3156  0.0666
12705TIP3    H159606   5.097   5.200   2.610 -0.1993 -0.3474  0.9258
12705TIP3    H259607   4.959   5.242   2.565  0.1451  0.2218  0.3977
12706TIP3   OH259608   6.958   4.856   1.969 -0.2759  0.0351 -0.2300
12706TIP3    H159609   7.018   4.790   2.002  0.1826  0.8488  0.5896
12706TIP3    H259610   6.996   4.940   1.996 -0.7670  0.6490 -1.3722
12707TIP3   OH259611   5.656   3.197  15.849 -0.1105 -0.0295 -0.2264
12707TIP3    H159612   5.689   3.253  15.919  1.6826 -0.2604 -0.8455
12707TIP3    H259613   5.563   3.217  15.844  0.0718  1.2438  1.0689
12708TIP3   OH259614   6.414   3.863   0.934  0.1632  0.1287  0.7604
12708TIP3    H159615   6.324   3.891   0.950 -0.4009 -1.2232  0.0644
12708TIP3    H259616   6.405   3.783   0.883  1.7788  2.0277 -2.6901
12709TIP3   OH259617   1.719   4.778  15.445 -0.1503 -0.0490  0.1553
12709TIP3    H159618   1.795   4.835  15.432  0.1537 -0.4566  0.1446
12709TIP3    H259619   1.694   4.751  15.357  0.2784 -0.6833  0.2311
12710TIP3   OH259620   5.637   6.746   2.515  0.7388 -0.2912 -0.2813
12710TIP3    H159621   5.554   6.773   2.477  1.2470  1.7686  0.0075
12710TIP3    H259622   5.690   6.719   2.440  0.5408  0.4427 -0.6918
12711TIP3   OH259623   5.223   4.724   0.037 -0.1942  0.2670  0.2163
12711TIP3    H159624   5.191   4.792  -0.023 -0.7450  0.6335  0.9151
12711TIP3    H259625   5.169   4.734   0.115  0.7665  0.0409  0.9221
12712TIP3   OH259626   5.700   4.438  15.819  1.0588 -0.0109  0.2953
12712TIP3    H159627   5.699   4.380  15.896  0.6544  0.7017  0.8397
12712TIP3    H259628   5.669   4.383  15.747  0.9763 -0.5600  0.7456
12713TIP3   OH259629   2.837   3.473   1.173 -0.0994  0.2825 -0.0849
12713TIP3    H159630   2.855   3.417   1.098  0.2660  1.9386 -1.2822
12713TIP3    H259631   2.768   3.428   1.222 -1.4770 -0.0613 -2.2874
12714TIP3   OH259632   5.436   3.788   0.395 -0.6901 -0.2604 -0.3631
12714TIP3    H159633   5.373   3.850   0.359 -0.1923  0.3480 -0.1835
12714TIP3    H259634   5.431   3.801   0.490 -1.3677 -1.2566 -0.2432
12715TIP3   OH259635   5.857   3.748   2.956 -0.3092  0.3149  0.3263
12715TIP3    H159636   5.872   3.835   2.920 -1.4178  0.9037  1.2590
12715TIP3    H259637   5.894   3.751   3.044 -1.5089  0.2570  0.8415
12716TIP3   OH259638   0.586   4.173  14.656  0.5407 -0.0598 -0.4485
12716TIP3    H159639   0.561   4.081  14.657  0.7026 -0.1083  1.1479
12716TIP3    H259640   0.553   4.207  14.739  0.2222  1.3955 -1.1603
12717TIP3   OH259641   5.379   4.889   2.050  0.5294  0.2934  0.0661
12717TIP3    H159642   5.334   4.922   2.129  0.3043 -0.1486  0.1252
12717TIP3    H259643   5.399   4.968   2.000  0.5527  0.5710  0.5041
12718TIP3   OH259644   4.582   1.705  15.427 -0.5090 -0.6455 -0.0212
12718TIP3    H159645   4.633   1.753  15.362 -1.9001 -0.9276 -1.3347
12718TIP3    H259646   4.638   1.706  15.505  1.8342 -1.6016 -1.6150
12719TIP3   OH259647   0.390   2.884   0.191  0.1438  0.0966 -0.1151
12719TIP3    H159648   0.470   2.848   0.231  0.4414 -1.0605 -1.7147
12719TIP3    H259649   0.325   2.814   0.200 -0.4761  0.7396  0.4747
12720TIP3   OH259650   6.456   6.309   3.314 -0.3525  0.5327 -0.4860
12720TIP3    H159651   6.526   6.323   3.251 -1.3436  0.5397 -1.6142
12720TIP3    H259652   6.462   6.216   3.337  0.7689  0.8068  0.3371
12721TIP3   OH259653   3.944   4.058  14.874  0.0607 -0.3745  0.5274
12721TIP3    H159654   3.967   4.063  14.966 -0.7868  0.6495  0.7022
12721TIP3    H259655   4.026   4.076  14.828  0.2884  0.0517  1.0912
12722TIP3   OH259656   3.876   4.241   1.062 -0.3173  0.0653  0.0477
12722TIP3    H159657   3.879   4.302   0.988  1.1086  0.3489  0.3377
12722TIP3    H259658   3.822   4.169   1.030  0.9017 -0.1745 -1.5676
12723TIP3   OH259659   5.459   4.908   0.951 -0.3166 -0.5106  0.3164
12723TIP3    H159660   5.491   4.849   0.883 -0.5139  1.1716 -1.2900
12723TIP3    H259661   5.492   4.995   0.925 -1.5105  0.3663  1.6388
12724TIP3   OH259662   5.970   5.955   1.172  0.6763 -0.3751 -0.3173
12724TIP3    H159663   6.012   5.903   1.241  2.1087 -1.2617 -1.8296
12724TIP3    H259664   5.912   6.014   1.220  0.6052 -1.8971  1.5723
12725TIP3   OH259665   5.933   6.582   2.087 -0.3349 -0.5052 -0.3520
12725TIP3    H159666   5.929   6.487   2.072  1.6551 -0.2562 -2.6365
12725TIP3    H259667   5.844   6.613   2.070 -0.3505 -1.5973 -2.4052
12726TIP3   OH259668   5.805   5.708   1.163  0.1165  0.3049  0.3701
12726TIP3    H159669   5.884   5.762   1.170  0.6390 -0.4190  0.1311
12726TIP3    H259670   5.772   5.702   1.253  0.8216 -0.1050  0.6094
12727TIP3   OH259671   4.270   3.890  15.812  0.0625  0.4353 -0.2492
12727TIP3    H159672   4.275   3.832  15.736 -2.6259 -0.0696 -0.0704
12727TIP3    H259673   4.313   3.970  15.784  2.2657 -0.9854 -1.0984
12728TIP3   OH259674   4.620   3.455  14.649 -0.2729  0.0622  0.0077
12728TIP3    H159675   4.543   3.508  14.630  0.4527  1.7511  1.5163
12728TIP3    H259676   4.587   3.366  14.660 -1.7737  0.5007 -0.9016
12729TIP3   OH259677   6.138   5.690   1.690 -0.1723  0.2999  0.3050
12729TIP3    H159678   6.063   5.699   1.633 -0.8735  0.0048  1.1679
12729TIP3    H259679   6.101   5.683   1.778  0.7961 -0.8484  0.6466
12730TIP3   OH259680   0.402   4.382  14.751  0.1624  0.4445  0.3586
12730TIP3    H159681   0.469   4.449  14.764  0.2055  0.1822  1.5237
12730TIP3    H259682   0.393   4.340  14.836 -0.7750 -0.1859 -0.0436
12731TIP3   OH259683   0.495   4.099  15.429 -0.4665  0.5086 -0.2470
12731TIP3    H159684   0.570   4.084  15.486 -0.4560  2.6858  0.3847
12731TIP3    H259685   0.419   4.078  15.483 -0.3855  0.3870 -0.1797
12732TIP3   OH259686   4.970   4.013   0.601 -0.0221 -0.0588  0.2033
12732TIP3    H159687   4.922   3.967   0.669  0.5471 -1.1459 -0.1121
12732TIP3    H259688   4.940   3.973   0.519  1.2210 -0.5903 -0.0087
12733TIP3   OH259689   0.269   5.608   2.735  0.4883 -0.4550 -0.1764
12733TIP3    H159690   0.295   5.518   2.755  2.9424  0.4058  0.7377
12733TIP3    H259691   0.352   5.653   2.720 -0.7864  1.3821 -1.8413
12734TIP3   OH259692   0.658   5.441   1.249  0.1990 -0.1788  0.1675
12734TIP3    H159693   0.711   5.428   1.170 -0.1999 -2.5389  0.2638
12734TIP3    H259694   0.576   5.396   1.231 -0.7709  1.1880  1.0700
12735TIP3   OH259695   0.500   5.966  15.959  0.2015  0.1171 -0.6641
12735TIP3    H159696   0.548   5.913  15.895  1.7555 -0.2708  0.7562
12735TIP3    H259697   0.564   6.031  15.989 -0.2445 -0.2209  1.0672
12736TIP3   OH259698   0.901   3.644   0.677 -0.4049 -0.0556  0.3831
12736TIP3    H159699   0.852   3.725   0.665 -0.0371  0.5043  2.4829
12736TIP3    H259700   0.988   3.662   0.640 -0.9897 -0.2286 -1.1005
12737TIP3   OH259701   6.162   4.489   1.629 -0.3508  0.6197  0.8117
12737TIP3    H159702   6.143   4.562   1.570 -0.1645 -0.0581 -0.0985
12737TIP3    H259703   6.178   4.414   1.570  0.4637  0.0853  1.7033
12738TIP3   OH259704   7.136   3.153   1.722 -0.2366 -0.2597  0.0507
12738TIP3    H159705   7.062   3.146   1.782 -0.5141  0.7777 -0.1533
12738TIP3    H259706   7.105   3.113   1.641  0.6474 -3.0151  1.0209
12739TIP3   OH259707   0.838   3.580   2.531  0.1571 -0.1520  0.7567
12739TIP3    H159708   0.765   3.579   2.592 -1.7060  1.5316 -1.3546
12739TIP3    H259709   0.868   3.671   2.531  0.8125 -0.3575 -0.0366
12740TIP3   OH259710   6.168   4.841  14.357 -0.3181  0.8537 -0.1421
12740TIP3    H159711   6.133   4.784  14.425 -1.1390  2.9465  1.2401
12740TIP3    H259712   6.129   4.809  14.276 -0.2253 -0.9570  0.5239
12741TIP3   OH259713   6.755   6.330   0.224 -0.1712 -0.0306  0.0323
12741TIP3    H159714   6.778   6.398   0.160 -0.8311 -0.5932 -0.8239
12741TIP3    H259715   6.796   6.250   0.190 -1.0524 -0.4671 -0.0399
12742TIP3   OH259716   4.636   4.639   2.044  0.1196  0.2649  0.2086
12742TIP3    H159717   4.550   4.612   2.012  0.0522 -0.6616  1.1375
12742TIP3    H259718   4.683   4.666   1.966 -0.8010  0.1694 -0.3925
12743TIP3   OH259719   4.850   3.911   0.376 -0.1203  0.4844 -0.6468
12743TIP3    H159720   4.768   3.954   0.355  0.1989  0.8287 -1.2058
12743TIP3    H259721   4.893   3.898   0.291  0.3371  0.1810 -0.3740
12744TIP3   OH259722   4.954   4.285   1.918 -0.4924 -0.2940  0.0831
12744TIP3    H159723   4.932   4.342   1.992 -1.1482 -2.4545  1.6185
12744TIP3    H259724   5.042   4.253   1.939 -0.4670 -0.5044 -0.3407
12745TIP3   OH259725   5.905   1.093   1.741 -0.0067  0.2451  0.4222
12745TIP3    H159726   5.843   1.061   1.676  0.8345 -0.5496  0.0120
12745TIP3    H259727   5.958   1.157   1.693  1.1888 -0.9792  0.0744
12746TIP3   OH259728   4.346   4.826   0.370  0.0915  0.5116  0.7861
12746TIP3    H159729   4.366   4.741   0.408  0.7821 -0.4872 -1.6933
12746TIP3    H259730   4.428   4.874   0.372  0.2866  0.2107 -0.0623
12747TIP3   OH259731   7.251   3.533  15.910  0.1164 -0.5282  0.2086
12747TIP3    H159732   7.274   3.538  16.003  0.9670 -0.4879 -0.0015
12747TIP3    H259733   7.313   3.470  15.873 -0.4885 -0.8657 -0.2554
12748TIP3   OH259734   7.190   6.073   1.050 -0.2857 -0.2682  0.1386
12748TIP3    H159735   7.228   6.124   0.978  0.4846 -3.0352 -1.4665
12748TIP3    H259736   7.262   6.063   1.113 -0.5175  0.8250  0.5892
12749TIP3   OH259737   0.194   3.048   0.304 -0.0232  0.0829  0.4576
12749TIP3    H159738   0.228   3.064   0.392  0.3522  0.7166  0.1988
12749TIP3    H259739   0.242   2.971   0.273  0.8128  0.6673  0.2905
12750TIP3   OH259740   5.312   4.178   3.284  0.0207 -0.5740 -0.1814
12750TIP3    H159741   5.368   4.101   3.294 -1.1764 -1.2822  1.3597
12750TIP3    H259742   5.237   4.147   3.234  0.0360 -0.1300 -0.4861
12751TIP3   OH259743   0.758   3.342  14.593  0.5436 -0.8294 -0.2730
12751TIP3    H159744   0.685   3.385  14.550  0.0711 -0.4678  0.8724
12751TIP3    H259745   0.798   3.287  14.525 -0.9482 -1.2266 -0.8377
12752TIP3   OH259746   6.468   4.497   0.328  0.4330 -0.3923 -0.9266
12752TIP3    H159747   6.513   4.570   0.285  0.2104  0.9227  1.0184
12752TIP3    H259748   6.375   4.519   0.322  0.3834 -0.3468 -0.0434
12753TIP3   OH259749   7.045   6.212  14.729 -0.8456  0.6584  0.3721
12753TIP3    H159750   7.134   6.181  14.713 -1.0643  0.6975 -1.0280
12753TIP3    H259751   7.034   6.284  14.666 -1.2641  1.7987  1.7276
12754TIP3   OH259752   5.823   3.752   0.124 -0.8522 -0.0431 -0.7774
12754TIP3    H159753   5.858   3.819   0.183  0.2958 -1.6007  0.3879
12754TIP3    H259754   5.762   3.798   0.067 -1.9609  1.5399  1.6171
12755TIP3   OH259755   6.176   4.001   0.238 -0.2223 -0.3336  0.0220
12755TIP3    H159756   6.253   4.025   0.185 -2.0428  2.1769 -1.5959
12755TIP3    H259757   6.202   4.023   0.328  1.2508 -0.2767 -0.3953
12756TIP3   OH259758   6.430   0.840  14.547  0.1213 -0.4859  0.8845
12756TIP3    H159759   6.508   0.793  14.518  0.1373 -0.5021  0.9522
12756TIP3    H259760   6.456   0.877  14.631  0.3906  0.3537  0.4373
12757TIP3   OH259761   6.306   4.252  15.383  0.0969  0.2547  0.3960
12757TIP3    H159762   6.370   4.306  15.336 -0.3259  0.8889  0.5472
12757TIP3    H259763   6.330   4.260  15.475 -0.7211  1.1888  0.5326
12758TIP3   OH259764   4.519   3.774  14.922 -0.1952 -0.2580 -0.6400
12758TIP3    H159765   4.437   3.817  14.899  1.2788  2.8313 -0.4249
12758TIP3    H259766   4.571   3.843  14.964  1.8622 -2.5733  0.7815
12759TIP3   OH259767   6.215   4.467   2.661  0.3698  0.2529  0.2457
12759TIP3    H159768   6.301   4.505   2.681  0.4629 -0.7093  1.7255
12759TIP3    H259769   6.233   4.377   2.636 -0.2943 -0.2217  1.4576
12760TIP3   OH259770   6.724   3.406   2.361 -0.1519  1.0834 -0.1931
12760TIP3    H159771   6.738   3.311   2.353 -2.0807  0.9092 -1.8206
12760TIP3    H259772   6.804   3.444   2.325  2.2258  0.1348  3.7575
12761TIP3   OH259773   6.333   5.086  14.616 -0.2538 -0.0549 -0.1799
12761TIP3    H159774   6.237   5.088  14.615 -0.2742  2.5459  1.6301
12761TIP3    H259775   6.359   5.177  14.606  1.9624 -0.4674  1.3875
12762TIP3   OH259776   4.781   4.418   1.746 -0.0402  0.6522 -0.2356
12762TIP3    H159777   4.858   4.363   1.753  1.1256  2.1734 -0.8603
12762TIP3    H259778   4.722   4.386   1.814  0.7616 -1.1025 -0.3442
12763TIP3   OH259779   1.138   3.831   1.925  0.3216 -0.2245 -0.4469
12763TIP3    H159780   1.052   3.829   1.967  0.4269 -1.8184 -0.2867
12763TIP3    H259781   1.197   3.859   1.995  0.2565 -1.2938  0.0495
12764TIP3   OH259782   0.870   3.011   0.337  0.2431 -0.3747 -0.2528
12764TIP3    H159783   0.844   3.020   0.429  0.2497  0.1397 -0.2998
12764TIP3    H259784   0.865   3.100   0.302  0.1196 -0.5889 -0.7841
12765TIP3   OH259785   0.006   3.770  15.520 -0.3257  0.3507  0.3715
12765TIP3    H159786  -0.024   3.680  15.505 -2.8706  0.9755  1.5334
12765TIP3    H259787   0.005   3.810  15.433  0.5576 -0.6283 -0.1098
12766TIP3   OH259788   5.049   4.291  15.483  0.3863  0.2528  0.4045
12766TIP3    H159789   5.113   4.314  15.551 -0.0923  1.2018  0.5374
12766TIP3    H259790   5.028   4.374  15.440  0.1648 -0.2378 -0.4558
12767TIP3   OH259791   5.850   6.809   1.045 -0.4034  0.4681  0.1193
12767TIP3    H159792   5.884   6.743   0.986  1.1022  1.5083 -0.2181
12767TIP3    H259793   5.924   6.832   1.101 -1.0484  1.4679  0.5886
12768TIP3   OH259794   5.430   1.316  15.570  0.0610 -0.0787  0.6108
12768TIP3    H159795   5.473   1.278  15.494  0.6638  0.2328  0.7940
12768TIP3    H259796   5.499   1.363  15.616 -0.6746  1.2154  0.4096
12769TIP3   OH259797   3.701   5.289  15.166  0.1779 -0.0005 -0.3855
12769TIP3    H159798   3.650   5.310  15.245  1.1080 -0.4432  0.3409
12769TIP3    H259799   3.724   5.197  15.176 -0.1667 -0.2046 -1.4502
12770TIP3   OH259800   6.585   0.369   2.648  0.2853  0.1040 -0.2819
12770TIP3    H159801   6.530   0.423   2.590 -1.9220  0.3670  1.9463
12770TIP3    H259802   6.583   0.282   2.608 -1.2837  0.2544 -0.5774
12771TIP3   OH259803   0.347   7.337   1.420 -0.6470  0.0309  0.2100
12771TIP3    H159804   0.288   7.412   1.410 -0.5640 -0.2474 -2.8798
12771TIP3    H259805   0.430   7.376   1.450 -1.9344  0.5653  3.3053
12772TIP3   OH259806   6.485   4.949   1.127  0.0425 -0.6907 -0.6384
12772TIP3    H159807   6.495   4.909   1.041  1.0574 -0.2070 -0.7573
12772TIP3    H259808   6.521   5.038   1.116 -2.3498  0.3258 -0.4499
12773TIP3   OH259809   5.190   6.480   2.054 -0.0762 -0.0155  0.2391
12773TIP3    H159810   5.123   6.547   2.063  0.1014  0.2503 -0.3798
12773TIP3    H259811   5.148   6.399   2.082 -0.1634  0.4188  1.3944
12774TIP3   OH259812   7.299   4.767   0.128 -0.1800 -0.5832  0.6509
12774TIP3    H159813   7.283   4.767   0.034  1.8941  1.6558  0.2304
12774TIP3    H259814   7.369   4.832   0.140  1.0516 -2.3352  3.4839
12775TIP3   OH259815   5.605   6.810   3.059  0.1205  0.3265 -0.3697
12775TIP3    H159816   5.667   6.882   3.053 -1.8265  2.0543 -0.4049
12775TIP3    H259817   5.612   6.765   2.975  1.0659  0.7052 -0.5006
12776TIP3   OH259818   0.220   3.076  14.616  0.5795 -0.2497 -0.5662
12776TIP3    H159819   0.301   3.092  14.664  0.9551 -0.8573 -0.9864
12776TIP3    H259820   0.246   3.020  14.543 -0.1021  0.0948 -1.0833
12777TIP3   OH259821   5.770   3.822   0.694 -0.2186  0.7175  0.2843
12777TIP3    H159822   5.771   3.732   0.661  2.8313  0.7628  0.1744
12777TIP3    H259823   5.708   3.820   0.767 -1.4142 -1.0611 -0.7303
12778TIP3   OH259824   5.446   4.579   0.869  0.4704  0.6303  0.1676
12778TIP3    H159825   5.425   4.539   0.953  1.0473  0.3793  0.1933
12778TIP3    H259826   5.424   4.512   0.804  0.4978  0.6340  0.1540
12779TIP3   OH259827   4.206   5.752   2.479  0.0368  0.3072 -0.5388
12779TIP3    H159828   4.119   5.712   2.483 -0.5085  1.5085 -0.2607
12779TIP3    H259829   4.210   5.808   2.556  1.0012  0.3831 -0.6407
12780TIP3   OH259830   6.462   5.231   0.189 -0.3641 -0.4824  0.3744
12780TIP3    H159831   6.396   5.203   0.126 -0.1076  2.0478 -1.1055
12780TIP3    H259832   6.412   5.273   0.260 -0.3640  2.9678 -1.5523
12781TIP3   OH259833   0.110   4.962   0.555 -0.4465  0.1152  0.0443
12781TIP3    H159834   0.089   4.912   0.634 -0.4273  0.4277  0.2476
12781TIP3    H259835   0.129   4.896   0.489 -0.8299 -0.1526  0.2011
12782TIP3   OH259836   1.406   1.949   0.661 -0.0676 -0.8092  0.6763
12782TIP3    H159837   1.363   1.999   0.591  1.0454  0.6806  1.0379
12782TIP3    H259838   1.376   1.990   0.742  0.3498 -1.1437  1.0062
12783TIP3   OH259839   6.426   5.798   2.457  0.1087 -0.1785  0.4134
12783TIP3    H159840   6.406   5.799   2.550 -1.7399 -1.1135  0.0507
12783TIP3    H259841   6.385   5.877   2.422  0.3356 -0.1131  0.2897
12784TIP3   OH259842   5.027   4.879   4.060 -0.5957  0.5346 -0.2393
12784TIP3    H159843   5.115   4.917   4.053  0.1331 -1.1417 -0.5407
12784TIP3    H259844   5.020   4.850   4.151 -0.9385  0.9249 -0.1427
12785TIP3   OH259845   6.385   2.838   0.469  0.6479  0.6200  0.0666
12785TIP3    H159846   6.449   2.775   0.502  1.2631  0.5827 -1.1616
12785TIP3    H259847   6.377   2.817   0.376 -2.7804 -0.7918  0.6316
12786TIP3   OH259848   4.583   6.555   2.834 -0.7455  0.1922 -0.5436
12786TIP3    H159849   4.600   6.609   2.911 -1.4165 -0.7399  0.2690
12786TIP3    H259850   4.617   6.606   2.761 -0.9347  1.4977  0.2664
12787TIP3   OH259851   0.067   5.166   1.128  0.1832 -0.4689 -0.3440
12787TIP3    H159852   0.077   5.261   1.124  0.0059 -0.4012  0.8026
12787TIP3    H259853   0.119   5.138   1.203 -2.7074 -0.8413  1.6090
12788TIP3   OH259854   1.302   4.733   2.088  0.1603  0.1444 -0.3416
12788TIP3    H159855   1.289   4.722   2.182 -0.0922 -0.0337 -0.3958
12788TIP3    H259856   1.352   4.814   2.080  0.5369 -0.0495 -0.0311
12789TIP3   OH259857   4.650   3.299   1.502 -0.1709  1.0604  0.2521
12789TIP3    H159858   4.724   3.353   1.528  0.9419 -0.4599  0.3207
12789TIP3    H259859   4.664   3.282   1.408 -0.7939  1.3201  0.1079
12790TIP3   OH259860   7.146   5.964   3.504 -1.0054 -0.4806 -0.2986
12790TIP3    H159861   7.120   5.892   3.561  0.0776 -1.1029 -0.5760
12790TIP3    H259862   7.170   5.922   3.421 -1.4858  0.3048 -0.8492
12791TIP3   OH259863   0.819   5.619   1.642 -0.7781 -0.1559  0.3113
12791TIP3    H159864   0.874   5.634   1.719 -0.8301  0.5346  0.2139
12791TIP3    H259865   0.843   5.688   1.581 -0.6700 -0.7629 -0.3366
12792TIP3   OH259866   5.997   5.524   3.070  0.1491 -0.1728 -0.2695
12792TIP3    H159867   6.078   5.575   3.067 -0.5161  0.9938  0.8475
12792TIP3    H259868   6.024   5.433   3.059  1.7497  0.0786  1.4796
12793TIP3   OH259869   7.069   2.171   0.781 -0.1754 -0.5076 -0.1317
12793TIP3    H159870   7.068   2.139   0.871  0.7865 -0.4264 -0.0824
12793TIP3    H259871   7.161   2.164   0.754  0.0883  2.2635 -0.0958
12794TIP3   OH259872   6.630   3.546   2.153  0.3705 -0.2122  0.4501
12794TIP3    H159873   6.675   3.513   2.231  1.4836 -0.7097 -0.3780
12794TIP3    H259874   6.700   3.585   2.101 -0.2713 -0.3802 -0.5469
12795TIP3   OH259875   4.818   4.210   0.807  0.1328  0.0171 -0.0887
12795TIP3    H159876   4.756   4.208   0.734  1.5324 -0.5565 -1.2883
12795TIP3    H259877   4.768   4.246   0.881 -1.5411 -0.2130 -1.0980
12796TIP3   OH259878   0.804   5.494   0.110 -0.5525 -0.6613 -0.6838
12796TIP3    H159879   0.819   5.484   0.204 -1.6071 -1.6780 -0.6132
12796TIP3    H259880   0.892   5.492   0.072 -0.1189 -0.2658  0.2745
12797TIP3   OH259881   6.295   5.684  15.420  0.0368 -0.4900  0.5230
12797TIP3    H159882   6.230   5.645  15.361  0.0393  0.9000 -0.4146
12797TIP3    H259883   6.364   5.618  15.427 -0.6047 -1.2149  0.0371
12798TIP3   OH259884   0.251   4.566   1.321 -0.4050  0.3690  0.4690
12798TIP3    H159885   0.283   4.476   1.333  0.0598  0.4611 -0.0654
12798TIP3    H259886   0.194   4.561   1.244 -1.9923  0.1290  1.6302
12799TIP3   OH259887   5.059   5.417   1.982 -0.2184 -0.0764 -0.5394
12799TIP3    H159888   5.131   5.435   2.042 -1.0976  0.2928  0.4298
12799TIP3    H259889   5.026   5.332   2.009 -1.1476  0.4640  0.0445
12800TIP3   OH259890   5.223   4.986   0.594 -0.1152 -0.1703  0.1399
12800TIP3    H159891   5.303   5.019   0.553 -0.6961  0.5467 -0.4112
12800TIP3    H259892   5.232   4.890   0.589  0.5032 -0.0906 -0.3127
12801TIP3   OH259893   1.166   5.979  15.666  0.0640 -0.1501 -0.0979
12801TIP3    H159894   1.185   5.887  15.683  1.9508  0.0099 -1.1853
12801TIP3    H259895   1.209   6.026  15.738 -0.9802 -0.1290  0.5089
12802TIP3   OH259896   5.493   5.456   1.761 -0.0062 -0.1673  0.2522
12802TIP3    H159897   5.543   5.383   1.795  0.4436  0.0323  0.0188
12802TIP3    H259898   5.444   5.420   1.687  0.9787  0.0003 -0.4837
12803TIP3   OH259899   6.799   4.527  15.439  0.4027  0.2244  0.2411
12803TIP3    H159900   6.782   4.432  15.438  2.3256 -0.1377  0.0025
12803TIP3    H259901   6.792   4.551  15.531 -0.0131 -0.1599  0.3167
12804TIP3   OH259902   5.774   1.996   0.120  0.1715  0.5447  0.2115
12804TIP3    H159903   5.705   2.028   0.178  0.0684  0.9496 -0.1334
12804TIP3    H259904   5.816   1.925   0.169 -1.5831 -0.8427 -0.2749
12805TIP3   OH259905   6.015   4.604  15.041  0.1795  0.2543  0.2034
12805TIP3    H159906   5.926   4.625  15.015  0.2545  1.6013  0.9685
12805TIP3    H259907   6.005   4.552  15.121  0.1030  1.1620  0.7830
12806TIP3   OH259908   1.723   5.225   2.308 -0.8285  0.5819 -0.3508
12806TIP3    H159909   1.677   5.146   2.337 -0.4567  0.6256  0.3830
12806TIP3    H259910   1.784   5.194   2.241  0.7353 -0.1079  1.3369
12807TIP3   OH259911   6.140   3.238  15.534  0.2682 -0.3849 -0.7147
12807TIP3    H159912   6.058   3.260  15.490 -0.6476 -0.5664  0.9010
12807TIP3    H259913   6.199   3.311  15.511 -0.9348  0.7456 -0.2734
12808TIP3   OH259914   1.576   3.449   0.262 -0.4649 -0.2161  0.2957
12808TIP3    H159915   1.642   3.517   0.274  1.7089 -2.0438 -0.7499
12808TIP3    H259916   1.547   3.459   0.172 -1.2255  0.2661  0.5977
12809TIP3   OH259917   0.479   6.407   0.140 -0.0896 -0.1563  0.5661
12809TIP3    H159918   0.560   6.355   0.135  0.1931  0.0526  2.4018
12809TIP3    H259919   0.498   6.486   0.089  0.2188 -0.8993 -0.4943
12810TIP3   OH259920   4.592   5.035   2.034 -0.2744  0.0409 -0.7637
12810TIP3    H159921   4.597   5.097   2.106  1.9601 -1.0251  0.0608
12810TIP3    H259922   4.508   4.990   2.046 -0.2701  0.4128  0.7261
12811TIP3   OH259923   6.684   3.702   1.670 -0.1344 -0.2514 -0.1603
12811TIP3    H159924   6.743   3.761   1.624  0.7938 -1.2423 -0.2532
12811TIP3    H259925   6.630   3.759   1.725  0.9559  0.6337 -0.0094
12812TIP3   OH259926   5.737   3.213   1.739  0.9642  0.1144  0.0349
12812TIP3    H159927   5.700   3.274   1.675  0.0158 -0.8423 -0.3282
12812TIP3    H259928   5.671   3.145   1.749  1.2447  0.0930  1.8094
12813TIP3   OH259929   5.230   5.281   0.922 -0.2352  0.0206 -0.2223
12813TIP3    H159930   5.163   5.221   0.889 -1.2194  0.3865  1.0585
12813TIP3    H259931   5.308   5.226   0.934 -0.5477 -0.5853 -0.9034
12814TIP3   OH259932   3.824   4.721  14.055  0.1427 -0.1643 -0.4135
12814TIP3    H159933   3.825   4.666  14.133 -0.5793 -0.8333 -0.8605
12814TIP3    H259934   3.801   4.809  14.087  0.9607 -0.1998  0.2591
12815TIP3   OH259935   7.006   3.697  15.905  0.0623 -0.2869  0.7310
12815TIP3    H159936   6.958   3.644  15.968  1.2069  0.5827  2.3812
12815TIP3    H259937   7.074   3.639  15.871  0.0268 -0.4896  1.0109
12816TIP3   OH259938   6.445   4.041   1.421  0.0214 -0.1401 -0.2196
12816TIP3    H159939   6.519   4.013   1.474 -0.1462 -1.0412 -0.4531
12816TIP3    H259940   6.484   4.095   1.352  0.2022  1.3140  0.9913
12817TIP3   OH259941   5.920   4.640  15.608 -0.2546  0.0216 -0.3490
12817TIP3    H159942   5.884   4.709  15.552 -0.4379 -0.5619 -0.9669
12817TIP3    H259943   5.843   4.589  15.635 -0.3098  1.0460  1.4718
12818TIP3   OH259944   5.614   3.682  15.755  0.1388 -0.0649  0.4389
12818TIP3    H159945   5.570   3.736  15.689  0.2935  1.6383  1.6967
12818TIP3    H259946   5.681   3.635  15.705 -1.1513 -0.4472 -0.9884
12819TIP3   OH259947   5.514   5.668   0.423 -0.2819  0.2324 -0.4572
12819TIP3    H159948   5.464   5.699   0.348 -1.6895  0.4885  0.5636
12819TIP3    H259949   5.509   5.739   0.487 -0.0428 -0.4188  0.3046
12820TIP3   OH259950   0.894   5.948   1.057  0.2357  0.2090  0.2377
12820TIP3    H159951   0.887   5.892   0.980  1.0350  0.3104  0.0926
12820TIP3    H259952   0.929   5.891   1.125 -1.1494 -0.0671  0.7278
12821TIP3   OH259953   0.477   0.014   3.861  0.1701  0.5590 -0.0231
12821TIP3    H159954   0.405   0.035   3.921  0.4481 -1.1622  0.9403
12821TIP3    H259955   0.485   0.092   3.806 -2.0546  1.0146  0.2338
12822TIP3   OH259956   6.138   5.589   1.157 -0.8148  0.1787 -0.0355
12822TIP3    H159957   6.154   5.596   1.063 -1.2514  2.2648  0.0288
12822TIP3    H259958   6.173   5.503   1.180 -0.3005 -0.1816 -2.0142
12823TIP3   OH259959   6.343   1.019   0.307 -0.1044 -0.0941  0.3793
12823TIP3    H159960   6.315   1.025   0.398 -0.0945  3.2181  0.2070
12823TIP3    H259961   6.436   0.996   0.311 -0.0166  0.3988  1.2001
12824TIP3   OH259962   5.527   0.277   2.362 -0.0597  0.2401  0.1149
12824TIP3    H159963   5.446   0.324   2.380  1.0625  2.5337 -0.6935
12824TIP3    H259964   5.563   0.257   2.448 -0.9669  0.0839  0.4645
12825TIP3   OH259965   6.082   7.201  15.383  0.1256 -0.1226 -0.4163
12825TIP3    H159966   5.988   7.216  15.395  0.2050  1.5545 -1.7299
12825TIP3    H259967   6.121   7.230  15.465 -0.5060 -1.0015  0.2078
12826TIP3   OH259968   6.126   4.927   0.728  0.2680 -0.2970 -0.0371
12826TIP3    H159969   6.054   4.962   0.674 -1.0173  0.0255  1.8624
12826TIP3    H259970   6.204   4.972   0.694 -0.5386  0.0014 -1.5495
12827TIP3   OH259971   3.892   6.718   0.279  0.5861 -0.4024  0.3984
12827TIP3    H159972   3.906   6.625   0.296 -1.1399 -0.9516 -1.0311
12827TIP3    H259973   3.904   6.727   0.184  1.9105  1.0579  0.6981
12828TIP3   OH259974   6.167   4.914   2.246  0.0146 -0.0370  0.2814
12828TIP3    H159975   6.157   4.906   2.341  0.4358 -3.1758  0.1080
12828TIP3    H259976   6.099   4.858   2.209  0.9888 -0.2691 -1.2390
12829TIP3   OH259977   6.447   3.702   0.453  0.3975  0.3235  0.5868
12829TIP3    H159978   6.440   3.609   0.472  0.4022 -0.0102 -0.9871
12829TIP3    H259979   6.360   3.727   0.423 -0.1288  1.2659  2.7985
12830TIP3   OH259980   6.557   3.412   0.843  0.4723 -0.1680  0.5136
12830TIP3    H159981   6.545   3.352   0.770 -0.3114  1.9717 -1.1676
12830TIP3    H259982   6.652   3.414   0.857  0.7597  0.5322 -1.4356
12831TIP3   OH259983   6.652   2.615  15.341  0.2552 -0.6030  0.0406
12831TIP3    H159984   6.711   2.546  15.372 -0.3707 -1.2104 -0.1057
12831TIP3    H259985   6.707   2.670  15.285  0.3021 -2.0760 -1.3853
12832TIP3   OH259986   5.343   4.234   1.496 -0.1979  1.2058 -0.0637
12832TIP3    H159987   5.327   4.260   1.587  1.6474 -0.5580  0.7922
12832TIP3    H259988   5.329   4.140   1.495  1.8799  0.8950 -1.1387
12833TIP3   OH259989   5.498   3.843  13.763  0.5788 -0.2318 -0.4494
12833TIP3    H159990   5.519   3.766  13.816 -1.6753 -0.4250  0.2232
12833TIP3    H259991   5.580   3.866  13.720  2.4571 -0.1999  2.9750
12834TIP3   OH259992   0.764   3.574  14.971 -0.2553  0.6132 -0.2365
12834TIP3    H159993   0.751   3.648  14.912 -3.9837 -0.8080 -1.3852
12834TIP3    H259994   0.782   3.500  14.913  1.1230  0.1493  0.7552
12835TIP3   OH259995   5.200   4.324   2.013  0.1010 -0.6705  0.0253
12835TIP3    H159996   5.248   4.407   2.011 -1.7709  0.4290 -0.7908
12835TIP3    H259997   5.224   4.285   2.097 -0.1060  1.3836  1.0850
12836TIP3   OH259998   3.611   4.745  15.176 -0.1779  0.3471  0.4955
12836TIP3    H159999   3.519   4.718  15.177  0.2007 -1.0216  0.0868
12836TIP3    H260000   3.645   4.718  15.261  0.4824 -1.5379 -0.3314
12837TIP3   OH260001   3.642   3.400   0.347 -0.4365 -0.4775  0.7683
12837TIP3    H160002   3.708   3.338   0.316  0.0625 -1.0745  2.9121
12837TIP3    H260003   3.604   3.357   0.423 -1.4307  1.0266  1.1313
12838TIP3   OH260004   5.720   4.034   0.466 -0.5105  0.0979  0.4931
12838TIP3    H160005   5.757   4.116   0.500  1.7800 -0.1202 -1.3466
12838TIP3    H260006   5.732   3.971   0.537 -2.4759  1.3654  1.9981
12839TIP3   OH260007   6.120   3.463   1.691 -0.4899 -0.5582  0.2808
12839TIP3    H160008   6.119   3.472   1.596 -2.2882  1.1473  0.4144
12839TIP3    H260009   6.187   3.397   1.709  2.9402  2.1671 -1.8775
12840TIP3   OH260010   6.039   5.437   2.217  0.0320 -0.0555 -0.1251
12840TIP3    H160011   6.133   5.420   2.227  0.0586 -0.4180 -0.8987
12840TIP3    H260012   6.003   5.426   2.305  0.7771  0.4857  0.2495
12841TIP3   OH260013   5.567   3.221   2.918 -0.0730 -0.5838 -0.0716
12841TIP3    H160014   5.555   3.207   3.012  2.4992  0.8953  0.5213
12841TIP3    H260015   5.540   3.312   2.905  1.1683 -0.2694 -0.4541
12842TIP3   OH260016   3.787   6.737  14.995 -0.6716 -0.2048 -0.5039
12842TIP3    H160017   3.735   6.667  15.033 -0.7291 -0.4018 -0.9420
12842TIP3    H260018   3.792   6.804  15.063  1.4487 -1.6744  0.8546
12843TIP3   OH260019   6.779   4.381   0.314  0.1758  0.1762 -0.4969
12843TIP3    H160020   6.713   4.312   0.305  0.4709 -0.0551 -0.9025
12843TIP3    H260021   6.794   4.412   0.224  0.1536  0.6616 -0.3319
12844TIP3   OH260022   6.240   4.150   0.885  0.2981 -0.2133 -0.1272
12844TIP3    H160023   6.157   4.109   0.862 -0.2167  1.2470 -0.9280
12844TIP3    H260024   6.282   4.170   0.802  1.0398 -0.0983  0.2622
12845TIP3   OH260025   1.063   5.799   1.266  0.6374  0.1704 -0.3123
12845TIP3    H160026   1.003   5.724   1.266  0.6054  0.1839  0.9174
12845TIP3    H260027   1.124   5.781   1.338 -0.4737  2.1817  1.1684
12846TIP3   OH260028   0.790   5.840   1.507 -0.0607  0.4962  0.2727
12846TIP3    H160029   0.749   5.874   1.428 -1.1939  0.4884  0.8505
12846TIP3    H260030   0.823   5.917   1.553  0.3924  0.5188 -0.0855
12847TIP3   OH260031   1.430   6.280  15.341 -0.1422  0.6624  0.0933
12847TIP3    H160032   1.416   6.341  15.414  0.3853  1.0877 -0.1555
12847TIP3    H260033   1.523   6.261  15.343  0.1347  1.7676 -1.3119
12848TIP3   OH260034   0.467   0.780   0.904  0.4183 -0.2518  0.3755
12848TIP3    H160035   0.458   0.736   0.820  1.1636 -2.7972  1.5704
12848TIP3    H260036   0.399   0.846   0.905 -1.7373 -2.3987 -0.8840
12849TIP3   OH260037   5.947   0.345  15.955  0.3255 -0.4403 -0.2431
12849TIP3    H160038   5.990   0.423  15.991  0.0228  0.5539 -1.9810
12849TIP3    H260039   5.856   0.371  15.944  0.8472  0.0979 -3.8881
12850TIP3   OH260040   6.155   0.479  15.754  0.3599 -0.0914 -0.1700
12850TIP3    H160041   6.229   0.539  15.746 -0.8019  1.4126  0.1758
12850TIP3    H260042   6.144   0.443  15.666 -0.3909  2.0065 -0.9834
12851TIP3   OH260043   7.270   5.569   0.642 -0.7252  0.4484  0.3278
12851TIP3    H160044   7.336   5.500   0.641 -2.6385 -1.4418  1.5024
12851TIP3    H260045   7.320   5.650   0.651  1.4555 -0.8889  0.5132
12852TIP3   OH260046   1.093   6.615   0.161 -0.3829  0.2523 -0.1642
12852TIP3    H160047   1.161   6.599   0.226 -0.6519  0.6713  0.2264
12852TIP3    H260048   1.104   6.707   0.137 -0.3861  0.1434 -0.5980
12853TIP3   OH260049   2.307   5.148   1.594 -0.6820 -0.2822  0.4163
12853TIP3    H160050   2.316   5.055   1.614  0.1541  0.2376  2.6336
12853TIP3    H260051   2.240   5.179   1.656 -1.4779  0.4479 -0.7941
12854TIP3   OH260052   1.197   6.268  15.559 -0.1851 -0.0505 -0.0607
12854TIP3    H160053   1.264   6.285  15.625  0.8612 -1.1786 -0.7966
12854TIP3    H260054   1.169   6.178  15.577  0.0715 -0.3433 -1.0959
12855TIP3   OH260055   4.043   5.304   0.778 -0.3667  0.2957  0.3454
12855TIP3    H160056   3.984   5.240   0.739  1.6861 -1.7707  0.5669
12855TIP3    H260057   4.103   5.328   0.707  0.9994 -0.6293  1.1568
12856TIP3   OH260058   0.789   4.507   3.217  0.2116  0.0439 -0.4812
12856TIP3    H160059   0.873   4.548   3.238 -0.1150  0.8536 -0.7212
12856TIP3    H260060   0.778   4.438   3.283  3.1686 -3.1071 -3.0915
12857TIP3   OH260061   6.851   5.559   0.684  0.2440 -0.3734  0.4651
12857TIP3    H160062   6.907   5.537   0.609 -0.6042 -0.2860 -0.1961
12857TIP3    H260063   6.764   5.529   0.659 -0.5336  1.8056  0.4100
12858TIP3   OH260064   1.099   6.805  14.496  0.0736 -0.2712  0.0125
12858TIP3    H160065   1.036   6.858  14.447 -0.0674  0.7653  1.2597
12858TIP3    H260066   1.045   6.748  14.550  0.1262  1.5365  2.0698
12859TIP3   OH260067   2.004   0.262   0.686  0.0968 -0.3606  0.5770
12859TIP3    H160068   2.024   0.176   0.648 -0.5616  0.4552 -1.6774
12859TIP3    H260069   2.087   0.310   0.682  0.2185 -0.5414  0.9052
12860TIP3   OH260070   1.058   6.771   0.635 -0.3767 -0.4619  0.0932
12860TIP3    H160071   1.037   6.821   0.557  0.7463  1.1427  0.7809
12860TIP3    H260072   0.982   6.782   0.692  0.1147  1.0271  0.4927
12861TIP3   OH260073   7.239   6.496  15.980 -0.6508  0.4477 -0.2338
12861TIP3    H160074   7.163   6.522  15.928  0.4776  3.7181 -0.3306
12861TIP3    H260075   7.315   6.519  15.925  0.5025  2.2135  2.0129
12862TIP3   OH260076   1.757   5.345   0.800  0.5362 -0.5943 -0.5949
12862TIP3    H160077   1.816   5.317   0.730  0.6544  0.3982 -0.8890
12862TIP3    H260078   1.690   5.397   0.756  0.0966 -0.7302 -0.0939
12863TIP3   OH260079   1.868   6.315   0.689 -0.1719  0.1144 -0.3672
12863TIP3    H160080   1.893   6.381   0.754  0.4254 -0.2655 -0.2100
12863TIP3    H260081   1.944   6.258   0.682 -0.7878 -0.7281 -0.2940
12864TIP3   OH260082   3.933   5.871   1.550  0.3934  0.7682  0.3321
12864TIP3    H160083   3.954   5.836   1.637  0.3953  1.2464  0.5263
12864TIP3    H260084   3.881   5.802   1.508  1.2288  0.1226  0.3429
12865TIP3   OH260085   1.985   4.658   0.360  0.0926  0.8301  0.4983
12865TIP3    H160086   1.987   4.569   0.395  2.4233  0.8645  0.4958
12865TIP3    H260087   1.900   4.663   0.315 -1.6383 -0.1754  3.5233
12866TIP3   OH260088   6.264   2.456   0.802 -0.2032  0.3035 -0.1244
12866TIP3    H160089   6.212   2.444   0.722 -1.0108 -0.1147  0.4620
12866TIP3    H260090   6.206   2.431   0.873  0.7265  0.0613  0.5651
12867TIP3   OH260091   3.851   5.248   1.438 -0.9859  0.0626 -0.1739
12867TIP3    H160092   3.921   5.186   1.457 -1.5553 -0.2576  0.8943
12867TIP3    H260093   3.872   5.281   1.351  0.1265 -0.5280 -0.1391
12868TIP3   OH260094   0.149   5.066  14.652 -0.4257  0.2116  0.1703
12868TIP3    H160095   0.096   5.020  14.587  2.4025 -1.8758 -0.7656
12868TIP3    H260096   0.187   5.140  14.605 -1.0763  0.7080  0.4013
12869TIP3   OH260097   0.188   5.983  15.970 -0.2140  0.2066 -0.1272
12869TIP3    H160098   0.275   6.023  15.977  0.8171 -1.3665 -3.3117
12869TIP3    H260099   0.204   5.889  15.977 -1.9392 -0.0065  1.3207
12870TIP3   OH260100   1.191   7.209   4.127  0.3392 -0.7235 -0.0219
12870TIP3    H160101   1.157   7.243   4.045 -0.1587  1.3346  1.0202
12870TIP3    H260102   1.119   7.218   4.189  1.5999  0.3525  1.3200
12871TIP3   OH260103   2.673   6.308   0.315  0.4336  0.1039  0.1524
12871TIP3    H160104   2.631   6.393   0.296  0.0027  0.1166  1.1454
12871TIP3    H260105   2.738   6.298   0.246 -1.8359 -0.3519 -1.9856
12872TIP3   OH260106   0.973   5.012   1.942 -0.6351 -0.4481 -0.4672
12872TIP3    H160107   0.900   5.071   1.957  0.2841  0.0365  2.4017
12872TIP3    H260108   0.958   4.939   2.001  1.5907  0.0610  0.7865
12873TIP3   OH260109   6.787   7.296  15.703  0.6079 -0.4874  0.3102
12873TIP3    H160110   6.694   7.271  15.704  1.4314 -3.8698 -0.7898
12873TIP3    H260111   6.826   7.245  15.774  1.9049 -0.3350 -0.2750
12874TIP3   OH260112   1.379   5.535  15.019 -0.7186  0.1718 -0.3994
12874TIP3    H160113   1.344   5.610  15.067  0.6016  1.4374 -1.3796
12874TIP3    H260114   1.377   5.463  15.082 -2.5307  0.8712  0.3803
12875TIP3   OH260115   1.939   1.225   2.225  0.2393  0.0750  0.5754
12875TIP3    H160116   2.024   1.264   2.243 -0.5759  1.0376  2.4495
12875TIP3    H260117   1.895   1.288   2.168 -0.5041  1.1987  2.3761
12876TIP3   OH260118   1.162   1.743   3.180 -0.3166  0.1615 -0.2137
12876TIP3    H160119   1.075   1.715   3.153 -1.2691  2.2928  0.5541
12876TIP3    H260120   1.204   1.772   3.099 -0.1315 -1.2766 -0.6543
12877TIP3   OH260121   6.878   5.672   2.096  0.3872 -0.1976  0.3480
12877TIP3    H160122   6.790   5.698   2.069  0.8048 -1.0483 -1.9865
12877TIP3    H260123   6.936   5.732   2.049  1.1080 -1.0319  0.1577
12878TIP3   OH260124   5.149   0.897   0.262  0.5802  0.1510  0.4071
12878TIP3    H160125   5.238   0.893   0.299  0.5277 -2.3473  0.3077
12878TIP3    H260126   5.097   0.842   0.319 -0.5119  0.0700 -0.6620
12879TIP3   OH260127   7.026   7.238  15.812 -0.4174  0.3854  0.0427
12879TIP3    H160128   7.078   7.259  15.890 -2.0994 -0.1406  1.3277
12879TIP3    H260129   7.021   7.142  15.812 -0.2844  0.3721 -0.8302
12880TIP3   OH260130   1.408   6.854   0.470 -0.0377 -0.0394  0.3073
12880TIP3    H160131   1.368   6.926   0.519 -0.3320 -0.0667  0.1096
12880TIP3    H260132   1.495   6.845   0.508 -0.1488  0.1502  0.6130
12881TIP3   OH260133   0.695   6.530  15.327  0.1971 -0.7480 -0.5590
12881TIP3    H160134   0.688   6.547  15.421  1.8714 -1.3887 -0.3013
12881TIP3    H260135   0.639   6.596  15.286  0.1562  0.1036  0.8378
12882TIP3   OH260136   1.128   5.450   0.129  0.1718  0.3007  0.0327
12882TIP3    H160137   1.210   5.498   0.127  1.3263 -1.6679 -1.0449
12882TIP3    H260138   1.151   5.364   0.164 -1.7308  0.2824  1.3033
12883TIP3   OH260139   3.302   3.480   1.524 -0.6843 -0.5533 -0.1311
12883TIP3    H160140   3.387   3.443   1.545 -1.1102 -0.4371  1.9508
12883TIP3    H260141   3.251   3.407   1.490 -0.3662 -1.0538  0.4664
12884TIP3   OH260142   6.958   6.348   0.988 -0.0977  0.0454 -0.3387
12884TIP3    H160143   6.912   6.426   1.020 -1.9946 -0.5730 -1.4771
12884TIP3    H260144   7.002   6.378   0.908  2.8229  1.0217  1.5385
12885TIP3   OH260145   1.670   5.654   0.346  0.4792 -0.0485  0.1814
12885TIP3    H160146   1.594   5.702   0.380 -0.2011 -0.1725 -1.1532
12885TIP3    H260147   1.744   5.713   0.362  0.0858  0.1404  1.3499
12886TIP3   OH260148   6.640   1.985   2.750 -0.6110 -0.2643  0.3066
12886TIP3    H160149   6.600   1.901   2.726 -2.3065  0.6137  0.0360
12886TIP3    H260150   6.619   2.043   2.677  2.9445 -0.3066 -0.8641
12887TIP3   OH260151   1.622   6.631   0.857  0.0310  0.5016  0.1646
12887TIP3    H160152   1.564   6.673   0.921  0.7033  1.9792 -0.1857
12887TIP3    H260153   1.682   6.579   0.911  0.3841  1.4745  0.7239
12888TIP3   OH260154   0.863   1.131   0.786  0.2291  0.3694  0.8814
12888TIP3    H160155   0.788   1.130   0.726  0.2800 -0.3218  0.8139
12888TIP3    H260156   0.899   1.219   0.779  0.3685  0.2260 -0.2788
12889TIP3   OH260157   3.572   7.285   0.661 -0.8047 -0.0021  0.9279
12889TIP3    H160158   3.591   7.333   0.580 -1.0783  0.4758  1.1419
12889TIP3    H260159   3.502   7.336   0.703  0.3446  0.5820  2.1842
12890TIP3   OH260160   7.137   5.741   1.011 -0.2998  0.4746  1.2837
12890TIP3    H160161   7.096   5.658   0.986 -0.9934  0.5532  2.1198
12890TIP3    H260162   7.178   5.773   0.930 -0.5054 -0.4006  0.8214
12891TIP3   OH260163   0.037   1.741   0.797 -0.0323 -0.6819  0.3932
12891TIP3    H160164  -0.004   1.724   0.712 -0.2587 -0.1265  0.3872
12891TIP3    H260165  -0.021   1.806   0.838  1.0019  0.3396  0.2595
12892TIP3   OH260166   7.048   0.206   2.775 -0.2999  0.1940 -1.0669
12892TIP3    H160167   7.140   0.184   2.790 -0.2267  0.1594 -1.5586
12892TIP3    H260168   7.049   0.262   2.697 -0.4125  2.4020  0.4702
12893TIP3   OH260169   6.127   0.111   1.721 -0.1023  0.2704  0.2111
12893TIP3    H160170   6.210   0.066   1.738  0.7191  1.8469  0.4414
12893TIP3    H260171   6.147   0.173   1.651 -0.3774  2.5498  2.0690
12894TIP3   OH260172   1.486   7.236   0.499 -0.0114  0.2876  0.1545
12894TIP3    H160173   1.507   7.210   0.589 -1.8054  3.1954  1.4712
12894TIP3    H260174   1.569   7.270   0.465  0.6661 -0.7794  0.6802
12895TIP3   OH260175   6.478   6.433   0.092 -0.1864  0.0062  0.3071
12895TIP3    H160176   6.516   6.361   0.143 -1.0173  0.1742  1.1707
12895TIP3    H260177   6.452   6.498   0.157 -0.0358  0.8067 -0.4276
12896TIP3   OH260178   1.009   4.813   0.879  0.0379 -0.3870  0.1941
12896TIP3    H160179   1.047   4.728   0.859  0.8500 -0.4666  1.9808
12896TIP3    H260180   1.083   4.866   0.911 -0.8126  0.3587  0.9719
12897TIP3   OH260181   7.245   4.184  12.664 -0.6338 -1.1114  0.4862
12897TIP3    H160182   7.314   4.198  12.599 -0.5884 -0.1686  0.7323
12897TIP3    H260183   7.167   4.222  12.624 -0.4380  0.1483  1.3072
12898TIP3   OH260184   0.331   4.626   5.306  0.2414  0.3258  0.5263
12898TIP3    H160185   0.296   4.628   5.216  0.3983  1.9928  0.4885
12898TIP3    H260186   0.261   4.664   5.359 -0.0229 -1.0611  1.1856
12899TIP3   OH260187   2.631   5.571   0.235  0.1930 -0.3284  0.3576
12899TIP3    H160188   2.602   5.536   0.150 -0.3038  0.0935  0.3533
12899TIP3    H260189   2.633   5.495   0.293 -1.4492 -0.2849  0.5026
12900TIP3   OH260190   7.230   7.248   0.510  0.1323  0.3430 -0.7577
12900TIP3    H160191   7.235   7.163   0.467  1.0256  0.5646 -1.1105
12900TIP3    H260192   7.153   7.291   0.472  0.2288  0.0662 -1.2662
12901TIP3   OH260193   5.793   0.401   1.251  0.1549 -0.0061 -0.0031
12901TIP3    H160194   5.799   0.482   1.302  2.3500  0.6317 -1.1965
12901TIP3    H260195   5.883   0.384   1.223 -0.1928 -3.1441  0.6392
12902TIP3   OH260196   5.613   1.088   1.927  0.6560  0.0881  0.1477
12902TIP3    H160197   5.587   1.134   1.847 -0.5205 -2.2403 -0.8496
12902TIP3    H260198   5.709   1.093   1.926  0.6217  0.9463 -0.8832
12903TIP3   OH260199   1.963   0.054   3.059  0.0748 -0.2830 -0.2364
12903TIP3    H160200   1.919   0.085   2.979  0.4174 -1.3097 -0.8289
12903TIP3    H260201   1.895   0.008   3.107 -0.1346  0.3445  0.0772
12904TIP3   OH260202   2.288   0.429   3.997 -0.6035 -0.3849  0.5871
12904TIP3    H160203   2.338   0.509   3.979 -1.8695  0.2633 -0.1183
12904TIP3    H260204   2.343   0.380   4.058  1.0795  0.1118 -0.5026
12905TIP3   OH260205   4.278   5.550   1.648 -0.4368 -0.3325 -0.5267
12905TIP3    H160206   4.330   5.480   1.608  0.2215 -0.4435  0.5105
12905TIP3    H260207   4.196   5.507   1.674 -0.1037 -0.6908 -0.0469
12906TIP3   OH260208   0.834   5.932   3.486 -0.1132  0.1286 -0.6539
12906TIP3    H160209   0.832   5.931   3.582  1.5591  0.4580 -0.6088
12906TIP3    H260210   0.752   5.890   3.460 -1.1859  1.1939  0.9193
12907TIP3   OH260211   1.565   5.593  14.821 -0.3832 -0.7431 -0.2679
12907TIP3    H160212   1.488   5.597  14.878 -0.5893  1.2218 -0.6742
12907TIP3    H260213   1.569   5.501  14.793 -2.9569 -0.7182 -0.7814
12908TIP3   OH260214   7.159   7.248   2.765 -0.0434  0.1095  0.7899
12908TIP3    H160215   7.199   7.179   2.713  0.3560 -0.4531  1.8240
12908TIP3    H260216   7.233   7.303   2.792  0.0646 -0.8602  2.5958
12909TIP3   OH260217   5.167   6.290  15.513 -0.5146  0.3249 -0.1509
12909TIP3    H160218   5.187   6.200  15.488  0.3161  0.5480 -0.3035
12909TIP3    H260219   5.226   6.343  15.459  1.0730  0.8321  1.9976
12910TIP3   OH260220   1.956   0.690   2.790  0.3447  0.4165 -0.1760
12910TIP3    H160221   1.898   0.695   2.715  0.3610 -1.5725 -0.3330
12910TIP3    H260222   1.898   0.683   2.866  0.3569 -1.7535 -0.3470
12911TIP3   OH260223   6.307   6.371   1.501  0.1381  0.1953  0.4507
12911TIP3    H160224   6.311   6.385   1.596 -0.2941  1.2712  0.3080
12911TIP3    H260225   6.360   6.441   1.464  0.5884 -0.4254 -0.0960
12912TIP3   OH260226   0.059   6.533  15.744  0.0673  0.3350 -0.0384
12912TIP3    H160227   0.081   6.528  15.650  3.8174  0.0018  0.7835
12912TIP3    H260228   0.128   6.588  15.781  0.1099 -1.6665  2.9655
12913TIP3   OH260229   6.356   5.676   1.527 -0.3390 -0.7267  0.1685
12913TIP3    H160230   6.299   5.662   1.603 -0.9064 -0.1635 -0.1473
12913TIP3    H260231   6.341   5.599   1.472  0.4816 -1.3952  0.8823
12914TIP3   OH260232   2.071   6.929   0.440  0.5076 -0.4272 -0.3707
12914TIP3    H160233   2.028   6.847   0.464 -1.7322  0.4934 -1.1197
12914TIP3    H260234   2.052   6.940   0.347 -0.9000  1.8884  0.1327
12915TIP3   OH260235   6.918   3.938   0.565 -0.5755 -0.4209 -0.0046
12915TIP3    H160236   6.882   3.878   0.630 -2.8022  2.8436  1.9862
12915TIP3    H260237   6.841   3.970   0.517  0.4039  1.5470 -0.3299
12916TIP3   OH260238   6.760   2.500   1.154 -0.1875  0.1225  0.2961
12916TIP3    H160239   6.672   2.463   1.157 -0.9875  1.9823  0.5663
12916TIP3    H260240   6.799   2.462   1.075 -0.9086 -1.3943  0.6571
12917TIP3   OH260241   0.178   6.855  15.771  0.6118  0.2857  0.4066
12917TIP3    H160242   0.225   6.803  15.837 -0.6744  0.2494  1.3015
12917TIP3    H260243   0.229   6.843  15.691  1.9218 -0.0643  1.2743
12918TIP3   OH260244   4.929   6.615   2.094 -0.6002 -0.1677  0.1287
12918TIP3    H160245   4.892   6.658   2.017 -0.7540 -0.4145  0.0630
12918TIP3    H260246   4.864   6.549   2.117 -0.3737 -0.3495  0.2423
12919TIP3   OH260247   6.405   0.510  15.968  0.3211  0.0284  0.7274
12919TIP3    H160248   6.405   0.597  16.006 -0.6224  0.6840 -0.7203
12919TIP3    H260249   6.409   0.525  15.873 -1.0629 -1.4677  0.4100
12920TIP3   OH260250   1.259   5.750  15.797 -0.2779 -0.3227 -0.3037
12920TIP3    H160251   1.352   5.771  15.806 -0.5281  0.8053 -0.3337
12920TIP3    H260252   1.258   5.659  15.767  0.7906 -0.6038  0.5011
12921TIP3   OH260253   1.591   4.614   3.129  0.2525 -0.0968  0.4101
12921TIP3    H160254   1.619   4.542   3.072 -1.0226 -0.0692 -0.2857
12921TIP3    H260255   1.608   4.693   3.078 -2.2902 -0.1458 -0.6039
12922TIP3   OH260256   3.357   4.638  14.313 -0.6293  0.0478 -0.1329
12922TIP3    H160257   3.361   4.628  14.218  2.9560 -0.8631  0.0544
12922TIP3    H260258   3.334   4.551  14.346 -2.8446  0.5843 -0.1543
12923TIP3   OH260259   1.591   6.494   1.936 -0.2386  0.1130 -0.6003
12923TIP3    H160260   1.647   6.446   1.997 -1.2806 -0.7656 -0.3204
12923TIP3    H260261   1.644   6.504   1.857  0.5066 -0.2342 -0.1463
12924TIP3   OH260262   0.826   4.215   0.591  0.2974 -1.0132  0.6438
12924TIP3    H160263   0.813   4.159   0.514  0.0139 -1.3140  0.9122
12924TIP3    H260264   0.901   4.176   0.637  2.2736  0.7531 -0.9361
12925TIP3   OH260265   1.462   5.916   2.161  0.0256 -0.6125 -0.4492
12925TIP3    H160266   1.383   5.882   2.202  0.5510  0.3890  1.4251
12925TIP3    H260267   1.494   5.844   2.107 -0.1946 -2.2720  1.5840
12926TIP3   OH260268   6.936   5.833   0.628 -0.4328 -0.0061 -0.6041
12926TIP3    H160269   6.877   5.758   0.635 -1.1862  0.6614  0.2870
12926TIP3    H260270   6.900   5.885   0.556 -0.0827 -0.3539 -1.0269
12927TIP3   OH260271   7.008   0.029   1.727 -0.2164 -0.2676 -0.1539
12927TIP3    H160272   7.048   0.027   1.640  0.0015 -0.1134 -0.0574
12927TIP3    H260273   6.994  -0.063   1.748  1.3067 -0.3987  0.3639
12928TIP3   OH260274   2.479   5.125  14.207 -0.0370  0.3082  0.4751
12928TIP3    H160275   2.456   5.110  14.299  1.9766 -0.7617  0.8322
12928TIP3    H260276   2.575   5.121  14.205 -0.0356  0.6789 -1.6226
12929TIP3   OH260277   6.626   1.404   1.364 -0.4101 -0.0715  0.7718
12929TIP3    H160278   6.557   1.343   1.339  0.5931 -0.3987 -1.3041
12929TIP3    H260279   6.661   1.369   1.445 -1.3955 -0.9693  0.8167
12930TIP3   OH260280   2.480   0.043  14.891  0.1790  0.0282 -0.8971
12930TIP3    H160281   2.557   0.034  14.947  0.4523 -0.0731 -1.2810
12930TIP3    H260282   2.511   0.018  14.804  0.3531  2.3923 -1.5419
12931TIP3   OH260283   0.515   0.281   0.188  0.6385 -0.5998  0.0308
12931TIP3    H160284   0.539   0.220   0.258 -0.2877 -0.5963  0.3650
12931TIP3    H260285   0.476   0.225   0.120  0.8419 -0.5170 -0.1537
12932TIP3   OH260286   0.485   6.195   0.370  0.1151  0.0597  0.4557
12932TIP3    H160287   0.404   6.182   0.319 -0.9991  0.8218  1.9847
12932TIP3    H260288   0.554   6.203   0.304 -1.2355  0.5886 -0.9251
12933TIP3   OH260289   1.738   6.336   3.436  0.4598 -0.1528  0.3432
12933TIP3    H160290   1.825   6.363   3.468 -0.1582  0.7466  1.2816
12933TIP3    H260291   1.680   6.409   3.460 -0.4885 -0.5978 -0.5916
12934TIP3   OH260292   6.760   0.010   1.153  0.5250 -0.3485 -0.2182
12934TIP3    H160293   6.755  -0.038   1.070  0.5734 -1.1826  0.2530
12934TIP3    H260294   6.737  -0.055   1.219  0.5252  0.3049  0.4267
12935TIP3   OH260295   5.646   5.213   0.619 -0.0197 -0.3688  0.2121
12935TIP3    H160296   5.665   5.290   0.671  1.2359 -0.7622  0.3436
12935TIP3    H260297   5.580   5.242   0.556  1.2488  1.0843 -0.4501
12936TIP3   OH260298   7.154   4.107  14.834 -0.0454  0.5200 -0.4037
12936TIP3    H160299   7.222   4.168  14.860 -0.8976  1.0845  0.5576
12936TIP3    H260300   7.173   4.027  14.883  0.3146  0.4439 -0.6650
12937TIP3   OH260301   5.362   2.753   0.358  0.2664 -0.0360  0.5128
12937TIP3    H160302   5.327   2.743   0.446 -0.7882 -0.2423  0.0857
12937TIP3    H260303   5.352   2.666   0.319 -0.6371  0.4141 -0.2818
12938TIP3   OH260304   6.813   0.260   2.163 -0.0963  0.4511 -0.2712
12938TIP3    H160305   6.730   0.216   2.180 -0.8731  0.6751 -3.1137
12938TIP3    H260306   6.871   0.191   2.131 -0.2549  0.8319 -1.4424
12939TIP3   OH260307   2.766   3.748   2.231  0.0014  0.4708  0.7550
12939TIP3    H160308   2.710   3.671   2.242  1.9780 -1.1786 -0.3962
12939TIP3    H260309   2.824   3.746   2.307 -0.9426  1.7197  1.5252
12940TIP3   OH260310   0.367   6.834  15.544  0.2741  0.0514 -0.0854
12940TIP3    H160311   0.458   6.848  15.570  0.1773 -0.0645  0.3317
12940TIP3    H260312   0.368   6.752  15.495  0.3366 -0.1623  0.2645
12941TIP3   OH260313   2.578   7.176   2.138  0.1622 -0.2532  0.2329
12941TIP3    H160314   2.496   7.206   2.099  0.3440  0.5413  0.4589
12941TIP3    H260315   2.550   7.110   2.202 -0.3876  0.6706  0.9630
12942TIP3   OH260316   6.427   4.641   1.094  0.9176  0.0607 -0.5260
12942TIP3    H160317   6.416   4.708   1.161 -1.8760 -0.7205 -0.1584
12942TIP3    H260318   6.387   4.563   1.132  1.9625 -1.1925 -1.9391
12943TIP3   OH260319   2.367   6.602   1.128  0.2321 -0.3548 -0.4154
12943TIP3    H160320   2.384   6.588   1.221 -0.0332  0.2206 -0.2774
12943TIP3    H260321   2.441   6.560   1.083 -0.0714 -1.3688  0.0181
12944TIP3   OH260322   1.101   1.999   1.865  0.2534 -0.1261  0.2068
12944TIP3    H160323   1.032   2.028   1.806  1.0243  0.2264 -0.5375
12944TIP3    H260324   1.108   1.905   1.850 -0.1251 -0.1742  0.3439
12945TIP3   OH260325   7.288   0.609   1.835  0.1834  0.2657 -0.3393
12945TIP3    H160326   7.382   0.618   1.819  1.0404 -0.7502  3.6534
12945TIP3    H260327   7.255   0.698   1.838  0.8973  0.6170 -2.2643
12946TIP3   OH260328   4.120   6.357  14.842  0.5899  0.4281 -0.1204
12946TIP3    H160329   4.141   6.277  14.795 -1.6598 -1.2555  1.6506
12946TIP3    H260330   4.072   6.328  14.920  2.7329  3.2269  2.3921
12947TIP3   OH260331   3.172   6.544   1.097 -0.0274  0.1409  0.1447
12947TIP3    H160332   3.162   6.493   1.177 -0.8262 -1.8482 -1.1874
12947TIP3    H260333   3.085   6.581   1.081  0.0293  0.2121 -0.0091
12948TIP3   OH260334   0.600   4.225   0.048 -0.1549 -0.1745  0.6372
12948TIP3    H160335   0.530   4.256   0.106 -0.1314  0.1981  0.4645
12948TIP3    H260336   0.598   4.129   0.058 -0.2736 -0.1228  1.1095
12949TIP3   OH260337   1.947   6.433   2.654 -0.3917  0.3642  0.6628
12949TIP3    H160338   1.938   6.351   2.607 -0.7238  0.3425  0.7680
12949TIP3    H260339   1.864   6.446   2.699 -0.1516  0.4872  1.0814
12950TIP3   OH260340   1.095   4.782   1.833 -0.4919  0.1903 -0.6229
12950TIP3    H160341   1.179   4.778   1.879 -1.4359 -0.6070  1.0750
12950TIP3    H260342   1.061   4.869   1.853 -1.2540 -0.4304  0.8697
12951TIP3   OH260343   0.362   5.730   0.802  0.3802 -0.1021 -0.0278
12951TIP3    H160344   0.413   5.699   0.726  0.5517 -1.7070  0.7098
12951TIP3    H260345   0.419   5.712   0.877 -0.6375 -0.4765  0.6636
12952TIP3   OH260346   5.199   0.068   1.984 -0.1955  0.0591  0.8472
12952TIP3    H160347   5.223   0.159   1.970 -0.7996 -0.0125 -0.7511
12952TIP3    H260348   5.229   0.048   2.072 -0.3659  1.9007  1.3310
12953TIP3   OH260349   1.710   6.549   0.596 -0.0234 -0.0721  0.2468
12953TIP3    H160350   1.668   6.602   0.663 -1.2561  0.3514 -0.8296
12953TIP3    H260351   1.710   6.460   0.631  0.0035  0.2664  1.1088
12954TIP3   OH260352   0.676   6.375  15.727  0.0388  0.0661  0.6672
12954TIP3    H160353   0.720   6.449  15.685 -1.1817 -0.4948 -1.7023
12954TIP3    H260354   0.648   6.408  15.812  1.1620  1.7319  0.4116
12955TIP3   OH260355   2.532   6.302   2.144  0.0505  0.2219 -0.5367
12955TIP3    H160356   2.560   6.266   2.060  0.1903 -0.2178 -0.3041
12955TIP3    H260357   2.613   6.312   2.194  0.1592  1.9382 -0.9963
12956TIP3   OH260358   3.009   6.877   2.422  0.5822 -0.7498  0.1120
12956TIP3    H160359   2.987   6.849   2.511  2.0813  1.4866  1.2481
12956TIP3    H260360   3.092   6.833   2.402  0.9093 -0.2568  0.3548
12957TIP3   OH260361   0.261   1.624   0.901  0.0038 -0.3766  0.1727
12957TIP3    H160362   0.204   1.681   0.850 -0.4285 -0.1321  0.9166
12957TIP3    H260363   0.259   1.541   0.854 -0.2297 -0.0949 -0.3204
12958TIP3   OH260364   0.054   5.207  14.885  0.0934  0.3635 -0.5145
12958TIP3    H160365   0.084   5.155  14.810 -0.0488 -1.2057  0.5004
12958TIP3    H260366   0.127   5.203  14.947 -1.2179 -1.4279  0.9515
12959TIP3   OH260367   5.315   6.546  15.789 -0.0023 -0.0307 -0.0069
12959TIP3    H160368   5.222   6.523  15.788 -0.0026 -0.0569 -1.6340
12959TIP3    H260369   5.333   6.572  15.879 -1.7593  0.6427  0.1701
12960TIP3   OH260370   0.843   5.910  15.437 -0.3873  0.5654  0.6011
12960TIP3    H160371   0.885   5.934  15.520 -0.7135  0.4783  0.7964
12960TIP3    H260372   0.753   5.941  15.447 -0.8067 -0.7146  0.8483
12961TIP3   OH260373   6.330   0.060   2.077 -0.6534 -0.3233 -0.3086
12961TIP3    H160374   6.330   0.021   1.989 -2.2258  0.9413 -0.8992
12961TIP3    H260375   6.255   0.019   2.121 -0.5082 -0.1647  0.0848
12962TIP3   OH260376   1.746   0.421   1.248  0.3633 -0.3813  0.5121
12962TIP3    H160377   1.805   0.349   1.224  3.0602  1.9896 -0.2430
12962TIP3    H260378   1.692   0.435   1.171  0.9943 -0.5155  0.0388
12963TIP3   OH260379   1.321   4.826   2.383  0.3998 -0.3326  0.2232
12963TIP3    H160380   1.350   4.827   2.474 -1.1292  0.3503  0.7092
12963TIP3    H260381   1.232   4.792   2.386 -0.4851  1.7898 -0.7395
12964TIP3   OH260382   1.909   6.674   1.931  0.5337  0.5383  0.5107
12964TIP3    H160383   1.918   6.579   1.921 -0.4701  0.5912 -1.0242
12964TIP3    H260384   1.995   6.709   1.908 -0.2470  0.2661 -3.1624
12965TIP3   OH260385   6.881   5.194   0.899 -0.1088 -0.5487  0.6927
12965TIP3    H160386   6.896   5.117   0.844 -0.1922 -1.6002  2.1393
12965TIP3    H260387   6.808   5.170   0.956 -0.0066  0.5262  1.2854
12966TIP3   OH260388   1.169   5.961  12.937 -0.4680  0.0625 -0.1110
12966TIP3    H160389   1.198   5.921  12.855  0.1955 -0.8630  0.5612
12966TIP3    H260390   1.168   5.888  13.000 -2.4062  0.4631  0.3548
12967TIP3   OH260391   0.203   7.319   3.607  0.2826 -0.2739  0.0557
12967TIP3    H160392   0.137   7.368   3.558  0.2912  0.1319  0.4561
12967TIP3    H260393   0.273   7.305   3.543  0.8989  1.4659  0.3338
12968TIP3   OH260394   6.172   6.759   0.261  0.0462  0.2061 -0.5289
12968TIP3    H160395   6.147   6.850   0.278 -1.3376 -0.2712  0.0181
12968TIP3    H260396   6.169   6.716   0.347  0.9852 -0.2977 -0.7355
12969TIP3   OH260397   2.176   6.162  15.381  0.0007 -0.4319  0.2508
12969TIP3    H160398   2.204   6.180  15.471  0.5227  0.9086 -0.1733
12969TIP3    H260399   2.108   6.227  15.363  0.6606  0.0124 -0.6817
12970TIP3   OH260400   5.770   5.366   0.236 -0.8368  0.0189  0.6175
12970TIP3    H160401   5.678   5.343   0.229 -1.5152  2.1754  1.9359
12970TIP3    H260402   5.781   5.443   0.180  0.5906 -1.2514 -0.9256
12971TIP3   OH260403   7.336   0.987  15.682 -0.4562 -0.0132 -0.3994
12971TIP3    H160404   7.335   0.892  15.674  0.2796  0.1035 -1.9703
12971TIP3    H260405   7.251   1.009  15.720 -1.3063 -1.1484 -1.6351
12972TIP3   OH260406   0.068   0.998   1.700 -0.0689 -0.0806  0.7854
12972TIP3    H160407   0.136   0.992   1.632 -0.2039  0.3676  0.6075
12972TIP3    H260408   0.111   0.969   1.780  0.4873  0.7074  0.7772
12973TIP3   OH260409   1.209   6.394   2.070  0.9034 -0.0916 -0.5077
12973TIP3    H160410   1.295   6.370   2.036  1.8461  0.7148  1.2010
12973TIP3    H260411   1.204   6.489   2.057 -0.4914 -0.3684 -2.2064
12974TIP3   OH260412   1.276   7.091   0.492  0.4689  0.2269  0.3069
12974TIP3    H160413   1.291   7.065   0.583 -2.0897  1.4225  1.1345
12974TIP3    H260414   1.344   7.155   0.473 -0.3820  1.7674  2.2176
12975TIP3   OH260415   2.447   3.553  14.113  0.1474 -0.3413 -0.0830
12975TIP3    H160416   2.488   3.594  14.036  1.8356  0.0631  0.9944
12975TIP3    H260417   2.498   3.586  14.187 -0.1745 -2.3182  1.0424
12976TIP3   OH260418   0.062   4.891  15.223  0.3131 -0.5971 -0.1674
12976TIP3    H160419   0.000   4.834  15.269  0.1766  0.6312  1.2203
12976TIP3    H260420   0.145   4.879  15.270  0.3358  0.1608 -0.0068
12977TIP3   OH260421   0.212   6.255   2.558 -0.2797 -0.0994  0.5186
12977TIP3    H160422   0.306   6.242   2.564 -0.5790 -2.4821  0.8290
12977TIP3    H260423   0.197   6.279   2.467  0.4151 -2.0348 -0.1364
12978TIP3   OH260424   3.587   6.864   1.509 -0.2608 -0.1233  0.0056
12978TIP3    H160425   3.665   6.865   1.453 -1.5238 -1.7044 -1.8195
12978TIP3    H260426   3.520   6.907   1.457 -1.2320 -0.8553  0.6480
12979TIP3   OH260427   1.536   4.213   3.343  0.3751 -0.3100 -0.4409
12979TIP3    H160428   1.567   4.299   3.369  0.7215 -0.6296  0.2184
12979TIP3    H260429   1.444   4.226   3.319  0.3450  0.1774 -0.0551
12980TIP3   OH260430   0.656   5.953   1.811  0.0378  0.2866  0.3786
12980TIP3    H160431   0.749   5.956   1.834  0.0872  2.2618 -0.0088
12980TIP3    H260432   0.655   5.926   1.719  0.1378 -1.1432  0.7782
12981TIP3   OH260433   1.823   5.163  15.952 -0.3408 -0.1187  0.5426
12981TIP3    H160434   1.811   5.103  15.879  2.3692 -0.3987  0.2854
12981TIP3    H260435   1.828   5.250  15.912 -0.4276 -0.1124  0.5444
12982TIP3   OH260436   2.185   6.970   1.763 -0.0263 -0.2087  0.4162
12982TIP3    H160437   2.230   7.054   1.757  0.5643 -0.3794  2.1604
12982TIP3    H260438   2.119   6.984   1.832 -0.2908 -1.0087  0.3229
12983TIP3   OH260439   2.562   6.505  15.698 -0.2516  0.1903  0.4223
12983TIP3    H160440   2.649   6.539  15.719 -0.4395  0.2032  1.1719
12983TIP3    H260441   2.575   6.454  15.618  0.5195 -0.1571  0.7676
12984TIP3   OH260442   2.526   4.455  14.811  0.2416  0.6358  0.0585
12984TIP3    H160443   2.591   4.525  14.811 -0.9501  1.7856  1.5220
12984TIP3    H260444   2.478   4.467  14.729  0.7654  0.8367 -0.2231
12985TIP3   OH260445   6.463   4.447   0.870 -0.1737 -0.0598  0.0640
12985TIP3    H160446   6.446   4.517   0.933  4.6777  1.1091  0.3148
12985TIP3    H260447   6.417   4.474   0.790  0.3015  2.6063  0.6561
12986TIP3   OH260448   6.902   4.346   1.276 -0.1373 -0.4636 -0.3326
12986TIP3    H160449   6.871   4.423   1.324  0.5733  0.4691 -1.3245
12986TIP3    H260450   6.981   4.377   1.232  0.7835 -2.0862  0.1514
12987TIP3   OH260451   1.809   4.755   1.120 -0.5208  0.0292  0.3287
12987TIP3    H160452   1.870   4.768   1.047 -1.2543  0.4716 -0.2171
12987TIP3    H260453   1.786   4.662   1.115  0.7178 -0.3272  1.0318
12988TIP3   OH260454   0.119   1.122  14.632 -0.1061 -0.3531  0.0371
12988TIP3    H160455   0.107   1.151  14.541  2.2260 -1.6885 -0.7454
12988TIP3    H260456   0.034   1.087  14.657 -0.4113 -1.2841 -2.1468
12989TIP3   OH260457   0.876   5.526   1.023 -0.4227  0.6167 -0.4170
12989TIP3    H160458   0.931   5.551   0.949 -0.5137  0.2169 -0.6193
12989TIP3    H260459   0.928   5.547   1.100  0.2437 -0.2798 -0.6136
12990TIP3   OH260460   0.657   6.683   2.443 -0.6469  0.2461 -0.0443
12990TIP3    H160461   0.741   6.654   2.478 -0.7175  3.2647  2.9362
12990TIP3    H260462   0.593   6.657   2.509 -1.6307  0.6539 -0.8237
12991TIP3   OH260463   1.166   0.058   0.433  0.5994 -0.1621 -0.8218
12991TIP3    H160464   1.137   0.051   0.524 -0.1396  1.0092 -0.9500
12991TIP3    H260465   1.085   0.073   0.384  1.0058 -0.6670 -1.6620
12992TIP3   OH260466   2.435   6.774   0.257 -0.0266  0.0845 -0.0073
12992TIP3    H160467   2.440   6.807   0.347 -2.5787 -0.2091  0.2930
12992TIP3    H260468   2.506   6.818   0.211  0.2251  1.5947  1.7535
12993TIP3   OH260469   4.456   0.560   2.721  0.0425  0.4018 -0.0572
12993TIP3    H160470   4.389   0.618   2.758  0.0841 -0.3217  1.1693
12993TIP3    H260471   4.450   0.574   2.626 -0.6995  1.5868  0.1555
12994TIP3   OH260472   6.224   6.392   1.949 -0.2282 -0.1225  0.3056
12994TIP3    H160473   6.232   6.437   2.033  0.1975 -0.9317  0.7018
12994TIP3    H260474   6.270   6.448   1.887 -1.1275  0.8198  0.4790
12995TIP3   OH260475   1.028   4.167  13.460  0.1433  0.0241 -0.2934
12995TIP3    H160476   1.039   4.196  13.369  0.4021 -0.4402 -0.4095
12995TIP3    H260477   1.113   4.130  13.484  0.4242  1.1125  0.4875
12996TIP3   OH260478   1.117   1.188   2.140  0.7438  0.1978  0.2470
12996TIP3    H160479   1.184   1.254   2.124  2.0838 -0.7345  1.8633
12996TIP3    H260480   1.051   1.204   2.072  1.4915  2.5663  0.0251
12997TIP3   OH260481   2.475   4.382   1.432  0.2345 -0.1315  0.1331
12997TIP3    H160482   2.494   4.356   1.522 -1.3678 -0.3082  0.4340
12997TIP3    H260483   2.512   4.312   1.378 -1.6783 -1.7020  0.8086
12998TIP3   OH260484   0.901   4.485   0.281 -0.3619 -0.5271  0.3044
12998TIP3    H160485   0.946   4.474   0.365 -0.7319  2.0286  0.8927
12998TIP3    H260486   0.906   4.579   0.264 -2.1449 -0.7318 -1.5048
12999TIP3   OH260487   0.036   0.648   0.745 -0.2754 -0.7863  0.1061
12999TIP3    H160488  -0.054   0.678   0.738 -0.5379 -1.6163 -0.0729
12999TIP3    H260489   0.051   0.637   0.839 -0.2002 -0.1917  0.1702
13000TIP3   OH260490   3.184   0.026   2.937 -0.3578 -0.1906 -0.5452
13000TIP3    H160491   3.094   0.034   2.967 -0.4079 -0.1611 -0.7006
13000TIP3    H260492   3.207  -0.066   2.951  0.3262  0.2749  1.5489
13001TIP3   OH260493   2.797   5.694   0.026  0.0141 -0.2511 -0.4360
13001TIP3    H160494   2.833   5.764   0.080  0.2049  0.7630 -1.8677
13001TIP3    H260495   2.739   5.645   0.086  1.4215 -0.1054  1.0896
13002TIP3   OH260496   2.209   6.826   0.930  0.3308  0.3753 -0.7386
13002TIP3    H160497   2.288   6.835   0.983  0.2336 -2.7125  0.0296
13002TIP3    H260498   2.145   6.882   0.973  1.4505  1.1552 -0.0661
13003TIP3   OH260499   1.932   4.600  13.357 -0.2335 -0.4208  0.0375
13003TIP3    H160500   1.850   4.566  13.393 -0.7033 -1.5783 -2.0478
13003TIP3    H260501   1.923   4.588  13.262  1.9477  0.3403 -0.2865
13004TIP3   OH260502   5.888   0.693   2.575 -0.3895  0.3918 -0.0203
13004TIP3    H160503   5.801   0.731   2.577 -0.0144  1.1992  1.4389
13004TIP3    H260504   5.943   0.762   2.537 -0.6860 -0.7910 -2.7136
13005TIP3   OH260505   1.894   5.466   1.601  0.0625 -0.1727  0.0520
13005TIP3    H160506   1.968   5.507   1.645 -0.7897  1.9693 -0.4511
13005TIP3    H260507   1.853   5.411   1.668  0.7203  0.4551  0.9771
13006TIP3   OH260508   1.599   6.103   1.344 -0.4006 -0.2159  0.0864
13006TIP3    H160509   1.583   6.019   1.301  0.2203 -0.9949  1.3420
13006TIP3    H260510   1.590   6.168   1.274 -1.7941 -1.2388 -0.7083
13007TIP3   OH260511   6.513   5.532   0.829  0.4518  0.1386  0.7012
13007TIP3    H160512   6.445   5.471   0.857  1.1634 -0.0924  1.9492
13007TIP3    H260513   6.472   5.584   0.760 -1.5093  1.0813  2.5406
13008TIP3   OH260514   5.703   5.282  14.824  0.4363  0.0223 -0.0589
13008TIP3    H160515   5.745   5.209  14.870  0.8975 -0.7921 -1.7401
13008TIP3    H260516   5.613   5.252  14.809  0.3666  0.1687  0.0657
13009TIP3   OH260517   1.733   6.665   2.232  0.2986 -0.2667 -0.4941
13009TIP3    H160518   1.731   6.576   2.197  0.3656 -0.7025  0.5890
13009TIP3    H260519   1.643   6.682   2.258  0.0656  0.4001 -1.7136
13010TIP3   OH260520   0.036   3.803  14.404 -0.2710  1.1614 -0.5608
13010TIP3    H160521   0.081   3.845  14.331  0.6780 -0.6620 -1.0536
13010TIP3    H260522   0.007   3.876  14.460  0.0094  2.5122 -2.1471
13011TIP3   OH260523   0.241   6.908   2.285  0.2436  0.1263  1.0853
13011TIP3    H160524   0.267   6.990   2.243 -0.4760 -0.4021 -0.4258
13011TIP3    H260525   0.174   6.933   2.348 -1.7704  0.4255 -1.1171
13012TIP3   OH260526   1.645   5.449   1.102 -0.2112 -0.2375 -0.4483
13012TIP3    H160527   1.683   5.373   1.147  2.3649 -0.4316 -2.8337
13012TIP3    H260528   1.576   5.412   1.047 -0.5621 -0.5297  0.1795
13013TIP3   OH260529   6.966   3.033   2.665  0.2379  0.4583  0.5841
13013TIP3    H160530   7.010   2.967   2.718  2.3724  0.5143 -1.0164
13013TIP3    H260531   6.906   2.983   2.609 -0.9319  0.2636  2.0000
13014TIP3   OH260532   1.085   7.063   1.704  0.5016 -0.1980 -0.1286
13014TIP3    H160533   1.161   7.120   1.714  0.5629 -0.2276 -0.3984
13014TIP3    H260534   1.027   7.087   1.776  0.7612 -0.1664  0.0734
13015TIP3   OH260535   0.865   4.752   0.201 -0.4306  0.4178  0.6931
13015TIP3    H160536   0.783   4.741   0.153 -0.2590 -2.5790  0.9573
13015TIP3    H260537   0.931   4.713   0.144  0.5302  1.2387  1.2435
13016TIP3   OH260538   0.171   0.210   1.420 -0.5199 -0.6026 -0.2895
13016TIP3    H160539   0.117   0.204   1.499 -0.0953 -0.1639  0.0334
13016TIP3    H260540   0.110   0.192   1.348 -0.7559 -1.7148  0.1864
13017TIP3   OH260541   6.934   1.358   1.093  0.6947  0.4642 -0.2690
13017TIP3    H160542   6.847   1.354   1.054  0.6094 -0.4691  0.0103
13017TIP3    H260543   6.987   1.403   1.028  0.3390 -0.2656 -1.0735
13018TIP3   OH260544   6.565   5.429   0.038  0.6051  0.1847  0.1138
13018TIP3    H160545   6.617   5.472   0.105 -0.9206  0.8855  0.8576
13018TIP3    H260546   6.542   5.344   0.076 -0.2321  0.5688  0.4831
13019TIP3   OH260547   0.817   4.481  15.670 -0.6211 -0.0059  0.1927
13019TIP3    H160548   0.850   4.503  15.757 -0.9242  1.5710 -0.0757
13019TIP3    H260549   0.753   4.411  15.685 -0.4724  0.0727  1.1946
13020TIP3   OH260550   2.175   3.210   0.771  0.6568 -0.0368  0.4472
13020TIP3    H160551   2.095   3.243   0.812 -1.2488 -3.4196 -0.3950
13020TIP3    H260552   2.179   3.256   0.686  0.6848  1.5530  1.2842
13021TIP3   OH260553   1.051   7.152   0.328 -0.3023 -0.0016 -0.2568
13021TIP3    H160554   1.134   7.130   0.370 -0.6204 -1.3190 -0.2798
13021TIP3    H260555   1.073   7.157   0.235 -0.3095 -0.7304 -0.3047
13022TIP3   OH260556   5.863   6.313   0.871  0.5041 -0.3120  0.4573
13022TIP3    H160557   5.784   6.259   0.867  1.1066 -1.1421 -0.5479
13022TIP3    H260558   5.897   6.299   0.960  0.5643 -1.4731  0.2617
13023TIP3   OH260559   1.707   5.609  15.312 -0.5803 -0.3671 -0.2422
13023TIP3    H160560   1.764   5.671  15.358 -0.0931 -0.2817 -0.9453
13023TIP3    H260561   1.704   5.642  15.222 -1.6295 -0.4518 -0.2474
13024TIP3   OH260562   7.211   3.293   0.470  0.6574  0.3159  0.0120
13024TIP3    H160563   7.233   3.306   0.562 -1.6735 -1.4663  0.8602
13024TIP3    H260564   7.224   3.199   0.455 -0.6663  0.2750 -1.0041
13025TIP3   OH260565   0.228   5.100  15.607  0.8594 -0.6479  0.3121
13025TIP3    H160566   0.300   5.163  15.607  0.0964  0.2440  0.4057
13025TIP3    H260567   0.247   5.041  15.534  0.2060  1.3041 -1.4878
13026TIP3   OH260568   6.344   6.360   0.737 -0.6723 -0.4137 -0.8350
13026TIP3    H160569   6.260   6.406   0.732 -0.2101  0.5082 -0.2721
13026TIP3    H260570   6.345   6.323   0.826 -0.1287  0.2746 -0.5516
13027TIP3   OH260571   7.066   5.820  15.306 -0.2443  0.6581 -0.0586
13027TIP3    H160572   7.154   5.855  15.292 -0.0414  1.1018  2.1226
13027TIP3    H260573   7.062   5.742  15.251  1.0001  1.4242 -1.2677
13028TIP3   OH260574   6.580   6.230   0.963  0.1505  0.4208  0.4478
13028TIP3    H160575   6.630   6.265   1.037 -0.2230 -1.3088  1.5578
13028TIP3    H260576   6.489   6.249   0.985  0.1324  1.1022 -0.2217
13029TIP3   OH260577   3.093   4.959   2.095 -0.1097  0.3674 -0.5470
13029TIP3    H160578   3.154   4.897   2.136  0.0766  0.5016 -0.6185
13029TIP3    H260579   3.137   5.044   2.102 -0.0134  0.3744 -1.1312
13030TIP3   OH260580   0.765   4.295   3.400 -0.7007 -0.0196  0.1001
13030TIP3    H160581   0.691   4.234   3.399 -0.9021  0.1549  2.0136
13030TIP3    H260582   0.830   4.253   3.456  1.2340 -0.7950 -2.6430
13031TIP3   OH260583   2.664   3.296   0.732 -0.1600  0.1550 -0.9694
13031TIP3    H160584   2.602   3.365   0.756  0.2530  0.2158 -0.0557
13031TIP3    H260585   2.726   3.339   0.674  0.8171  0.8842  0.5768
13032TIP3   OH260586   6.494   2.235   1.568  0.2853  0.0448 -0.3212
13032TIP3    H160587   6.447   2.153   1.577  1.9381 -0.8545  0.2597
13032TIP3    H260588   6.516   2.260   1.658 -0.4733  1.2894 -0.4679
13033TIP3   OH260589   2.329   6.408   1.659 -0.0567  0.1883  0.1412
13033TIP3    H160590   2.309   6.421   1.752  0.8022 -0.5885  0.4437
13033TIP3    H260591   2.244   6.399   1.617 -0.3827 -2.4817  1.3173
13034TIP3   OH260592   4.344   6.378   0.641 -0.1948  0.1518  0.0241
13034TIP3    H160593   4.308   6.464   0.621 -0.2864 -0.0174 -0.5552
13034TIP3    H260594   4.268   6.326   0.667  0.0720  0.6924  2.0055
13035TIP3   OH260595   3.927   6.024   2.556  0.1143 -0.0700 -0.0867
13035TIP3    H160596   4.013   6.003   2.518  1.1184  1.6858  1.1457
13035TIP3    H260597   3.912   6.115   2.532 -1.8243 -0.6114 -1.0116
13036TIP3   OH260598   4.577   7.292  15.706  0.3407 -0.7695  0.5753
13036TIP3    H160599   4.509   7.336  15.656  0.1555 -1.3706  0.3086
13036TIP3    H260600   4.557   7.314  15.797  0.5555  0.1415  0.4072
13037TIP3   OH260601   0.979   7.202   1.922  0.3551  0.2701  0.0078
13037TIP3    H160602   0.975   7.290   1.961  1.8187 -0.5955  2.1750
13037TIP3    H260603   1.028   7.150   1.985  0.8118 -1.7542 -1.9725
13038TIP3   OH260604   0.436   5.340   0.606  0.1343 -0.1684 -0.1226
13038TIP3    H160605   0.500   5.412   0.608  0.8293 -0.7979  0.6869
13038TIP3    H260606   0.371   5.364   0.672  0.7834 -0.6484  0.7063
13039TIP3   OH260607   3.259   0.937   2.192 -0.6465 -0.1566 -0.1793
13039TIP3    H160608   3.223   0.874   2.254 -0.1773 -0.0469  0.2099
13039TIP3    H260609   3.234   1.022   2.227  1.6832  0.0061  1.1960
13040TIP3   OH260610   1.588   0.043   3.299  0.0989 -0.2901 -0.2782
13040TIP3    H160611   1.532   0.024   3.374  0.3939  0.8599  0.2387
13040TIP3    H260612   1.537   0.105   3.247 -0.3510 -1.5177 -1.3471
13041TIP3   OH260613   3.697   7.024   2.740 -0.1234 -0.4273 -0.4480
13041TIP3    H160614   3.787   7.057   2.748  0.1882 -1.5556  0.9833
13041TIP3    H260615   3.664   7.065   2.660  1.0185  1.5276  0.0224
13042TIP3   OH260616   3.383   4.636   2.784  0.3425  0.6329 -0.1573
13042TIP3    H160617   3.307   4.581   2.803  1.1436 -0.7842 -0.9871
13042TIP3    H260618   3.427   4.646   2.869 -0.2312  0.6615  0.1385
13043TIP3   OH260619   5.487   4.770   1.198  0.1280  0.0853 -0.3587
13043TIP3    H160620   5.576   4.760   1.231 -0.0533 -0.4148 -0.0071
13043TIP3    H260621   5.497   4.797   1.107  0.6396 -0.3002 -0.4169
13044TIP3   OH260622   2.622   4.207   2.535  0.6308 -0.7429 -0.5618
13044TIP3    H160623   2.647   4.296   2.512  0.5996 -0.9619 -1.4726
13044TIP3    H260624   2.565   4.216   2.612 -0.4621  0.1236 -1.4594
13045TIP3   OH260625   2.314   5.746   2.054  0.4326  0.4474  0.2368
13045TIP3    H160626   2.238   5.755   1.997  0.1711 -1.4124  0.2849
13045TIP3    H260627   2.349   5.835   2.060 -1.1265  1.1421 -0.6114
13046TIP3   OH260628   1.381   6.323  14.713  0.1291 -0.6464  0.0599
13046TIP3    H160629   1.395   6.372  14.632 -2.5163  0.5510  0.2777
13046TIP3    H260630   1.405   6.233  14.692 -0.9696 -0.4260 -2.2104
13047TIP3   OH260631   6.740   6.632   2.358  0.1874  0.3104  0.3875
13047TIP3    H160632   6.681   6.563   2.327  0.3659 -0.4894  1.8272
13047TIP3    H260633   6.766   6.678   2.278 -1.4992 -0.0254 -0.3766
13048TIP3   OH260634   3.150   5.404   0.178 -0.5380 -0.7031 -0.1401
13048TIP3    H160635   3.055   5.392   0.172 -1.0591  0.6396  3.7893
13048TIP3    H260636   3.182   5.319   0.208 -0.7174 -0.6992  0.0691
13049TIP3   OH260637   3.181   0.909   0.544 -0.2097  0.3849 -0.2146
13049TIP3    H160638   3.131   0.991   0.544  0.4863  0.8236 -1.2259
13049TIP3    H260639   3.192   0.888   0.452  0.2903 -0.4406  0.0279
13050TIP3   OH260640   4.038   0.232   1.888  0.1105  0.2275  0.4197
13050TIP3    H160641   4.020   0.172   1.960 -0.3141 -0.9955 -0.6821
13050TIP3    H260642   3.951   0.257   1.857  0.2937  0.8351  0.4034
13051TIP3   OH260643   3.981   5.601  15.418 -0.1661 -0.2304 -0.4271
13051TIP3    H160644   4.020   5.576  15.334 -0.3878 -1.7245 -0.1081
13051TIP3    H260645   3.898   5.643  15.394  1.1113  1.9956 -1.0589
13052TIP3   OH260646   1.939   6.066  15.586 -0.0788  0.1241  0.0747
13052TIP3    H160647   1.890   6.113  15.519 -0.8872 -0.8116 -0.0092
13052TIP3    H260648   1.924   6.116  15.666 -1.8091 -0.5544  0.1987
13053TIP3   OH260649   2.521   0.130   2.585 -0.6847 -0.3290  0.6194
13053TIP3    H160650   2.482   0.076   2.654  0.8358 -0.1961  1.6184
13053TIP3    H260651   2.563   0.201   2.633  0.3689 -0.2240 -0.4592
13054TIP3   OH260652   2.500   6.838   1.356 -0.2987  0.4107  0.0073
13054TIP3    H160653   2.554   6.856   1.433  2.4874 -1.1859 -1.4959
13054TIP3    H260654   2.538   6.891   1.287 -0.1441 -1.2960 -1.2537
13055TIP3   OH260655   0.325   6.449   1.802 -0.4059 -0.4383  0.3107
13055TIP3    H160656   0.378   6.371   1.816 -0.2013 -0.1774  0.9850
13055TIP3    H260657   0.238   6.426   1.836 -1.2444 -1.5006 -2.4323
13056TIP3   OH260658   4.548   5.758   0.166 -0.1802 -0.7401 -0.1853
13056TIP3    H160659   4.635   5.783   0.133 -0.0566 -1.9466 -0.8114
13056TIP3    H260660   4.494   5.751   0.087 -0.5644 -1.0498  0.1049
13057TIP3   OH260661   1.441   4.804   2.653  0.1904 -0.0754 -0.0484
13057TIP3    H160662   1.410   4.895   2.660  0.0910 -0.1032 -0.1365
13057TIP3    H260663   1.536   4.812   2.648  0.2254 -0.0124  0.6531
13058TIP3   OH260664   4.680   1.579   2.000 -0.1782  0.3855 -0.2407
13058TIP3    H160665   4.652   1.620   1.919  0.4249 -1.0322 -1.1825
13058TIP3    H260666   4.637   1.494   2.001  0.8875 -0.1682  0.2576
13059TIP3   OH260667   1.904   4.216  14.627  0.3270 -0.0397  0.5342
13059TIP3    H160668   1.908   4.137  14.682  1.5108 -0.5887 -0.3142
13059TIP3    H260669   1.930   4.186  14.541  3.5748  1.8171  0.7844
13060TIP3   OH260670   3.318   7.301  15.507 -0.7637  0.0505  0.4951
13060TIP3    H160671   3.337   7.308  15.413 -1.5469 -1.0237  0.2468
13060TIP3    H260672   3.302   7.208  15.521 -0.5793  0.1994  1.7172
13061TIP3   OH260673   4.321   4.402   1.453  0.3614  0.0592 -0.4708
13061TIP3    H160674   4.310   4.315   1.414 -1.1744 -0.3249  0.7766
13061TIP3    H260675   4.415   4.420   1.446  0.6041 -1.4498 -1.2445
13062TIP3   OH260676   2.490   6.166   0.166 -0.4546 -0.0475 -0.2565
13062TIP3    H160677   2.545   6.162   0.087  0.5799  3.0295  0.2488
13062TIP3    H260678   2.549   6.199   0.234 -2.3799  1.3208  0.7899
13063TIP3   OH260679   4.724   5.451   2.390 -0.3439 -0.3435 -0.2338
13063TIP3    H160680   4.651   5.501   2.426  0.4542  0.4125  0.3434
13063TIP3    H260681   4.709   5.450   2.295  0.8605  2.9550 -0.4926
13064TIP3   OH260682   2.398   4.998   0.829 -0.5753  0.1723  0.2494
13064TIP3    H160683   2.361   5.065   0.887 -1.4703 -0.5586  0.5176
13064TIP3    H260684   2.375   5.028   0.741  0.3376  1.0060  0.2809
13065TIP3   OH260685   3.327   6.526   0.697 -0.1988 -0.1251 -0.2526
13065TIP3    H160686   3.345   6.473   0.774  0.6436 -0.0621 -0.3977
13065TIP3    H260687   3.249   6.487   0.659 -1.1008  0.3638  1.0929
13066TIP3   OH260688   3.917   5.751   2.889 -0.2841 -0.3695 -0.0993
13066TIP3    H160689   3.952   5.666   2.917  1.3274  0.2912 -0.0773
13066TIP3    H260690   3.852   5.728   2.823 -0.5741 -1.6767  0.6176
13067TIP3   OH260691   2.047   6.912   2.686 -0.1109  0.6344  0.0625
13067TIP3    H160692   2.055   6.872   2.599  1.3681  1.2094 -0.0920
13067TIP3    H260693   2.003   6.996   2.669 -4.1236 -1.2916  0.5194
13068TIP3   OH260694   0.846   4.228   1.284  0.1076  0.1872 -0.2485
13068TIP3    H160695   0.808   4.306   1.243  1.6291  0.5002 -1.1365
13068TIP3    H260696   0.939   4.250   1.293  0.4771 -1.3923 -0.1571
13069TIP3   OH260697   3.719   5.862   1.248 -0.0418 -0.4079  0.6468
13069TIP3    H160698   3.712   5.848   1.154  1.0809  0.3641  0.4438
13069TIP3    H260699   3.635   5.831   1.283 -0.9682  0.4902 -0.7371
13070TIP3   OH260700   0.675   6.485   1.261 -0.3875 -0.4432  0.0409
13070TIP3    H160701   0.712   6.406   1.223  1.2728 -0.4676  1.6573
13070TIP3    H260702   0.663   6.465   1.354  0.0195  1.1875  0.4699
13071TIP3   OH260703   2.632   4.777   0.100 -0.3210 -0.1912 -0.0420
13071TIP3    H160704   2.713   4.828   0.106 -0.5370  0.3248 -1.3596
13071TIP3    H260705   2.662   4.686   0.091  0.1631  0.1206 -1.8223
13072TIP3   OH260706   1.249   5.652   1.454 -0.2902  0.1909 -0.0163
13072TIP3    H160707   1.292   5.678   1.535 -1.5913 -0.8318  1.0227
13072TIP3    H260708   1.321   5.629   1.395  0.6014 -2.3704  1.9857
13073TIP3   OH260709   2.245   0.639   1.964 -0.7029  0.0515 -0.1468
13073TIP3    H160710   2.318   0.677   1.916  0.2890 -0.8916  0.6042
13073TIP3    H260711   2.254   0.544   1.950 -1.0521 -0.1550  0.9796
13074TIP3   OH260712   0.764   1.541   3.713 -0.0201 -0.6307  0.4043
13074TIP3    H160713   0.748   1.477   3.644  1.5729 -1.2669  0.6298
13074TIP3    H260714   0.694   1.606   3.701 -0.6721 -1.5446 -0.8313
13075TIP3   OH260715   5.068   4.108   0.889 -0.0347 -0.1009  0.0594
13075TIP3    H160716   4.996   4.158   0.852 -1.2932 -1.4787  0.6182
13075TIP3    H260717   5.075   4.030   0.833  1.9320  0.6648 -0.8330
13076TIP3   OH260718   6.727   6.808   2.129  0.0716 -0.0255  0.0923
13076TIP3    H160719   6.654   6.871   2.131 -1.5116 -1.8082  0.1027
13076TIP3    H260720   6.742   6.793   2.035  0.3182  0.2156  0.0926
13077TIP3   OH260721   3.975   7.326  14.184  0.3256 -0.6812 -0.0770
13077TIP3    H160722   4.038   7.278  14.238  2.4342  0.1204 -1.7641
13077TIP3    H260723   3.992   7.296  14.095  0.9211  2.3764 -1.0401
13078TIP3   OH260724   1.858   5.813   2.580 -0.6566  0.0287 -0.0710
13078TIP3    H160725   1.861   5.762   2.499  1.7390  0.3413 -0.1886
13078TIP3    H260726   1.949   5.828   2.603 -1.3228  0.9239  2.0855
13079TIP3   OH260727   1.371   0.492   2.932 -0.2211  0.2485 -0.7873
13079TIP3    H160728   1.466   0.506   2.938 -0.0178 -0.5706 -1.8832
13079TIP3    H260729   1.333   0.572   2.968  0.8779 -0.1400  1.2849
13080TIP3   OH260730   4.909   5.775   0.704  1.0462  0.5043  0.2015
13080TIP3    H160731   4.902   5.811   0.792  1.0121 -0.8869  0.7774
13080TIP3    H260732   4.967   5.699   0.714 -2.1279 -2.0533 -0.2115
13081TIP3   OH260733   0.420   5.110   0.456 -0.6415 -0.1991 -0.2541
13081TIP3    H160734   0.410   5.045   0.526  1.9402 -0.4981 -0.1052
13081TIP3    H260735   0.403   5.194   0.498 -1.9539 -0.6070  0.0440
13082TIP3   OH260736   2.231   5.123  15.622 -1.1667  0.5142 -0.5032
13082TIP3    H160737   2.205   5.085  15.706 -0.3619  0.5618 -0.2293
13082TIP3    H260738   2.313   5.169  15.641 -1.1049  0.7211 -1.2647
13083TIP3   OH260739   1.465   0.760   1.660 -0.1749 -0.0262  0.1553
13083TIP3    H160740   1.477   0.848   1.625  0.6332 -0.0496  0.3511
13083TIP3    H260741   1.379   0.761   1.702  0.5343  1.1709  1.6257
13084TIP3   OH260742   1.601   4.786  15.699  0.0839 -0.5886  0.3715
13084TIP3    H160743   1.675   4.824  15.747 -0.1564  0.5449 -0.1483
13084TIP3    H260744   1.631   4.782  15.608 -0.2948 -0.6256  0.2497
13085TIP3   OH260745   1.621   3.115  15.282  0.0796  0.0745  0.1154
13085TIP3    H160746   1.637   3.189  15.224  0.8600 -0.4310 -0.3253
13085TIP3    H260747   1.707   3.095  15.319  0.6268 -2.9196 -2.5564
13086TIP3   OH260748   5.666   5.465   0.754  0.1723  0.4727 -0.4599
13086TIP3    H160749   5.705   5.499   0.674 -2.1695  3.1181 -0.5332
13086TIP3    H260750   5.705   5.517   0.824  0.2015 -0.0084 -0.1180
13087TIP3   OH260751   3.115   4.948   0.849  0.0333 -0.2694 -0.3740
13087TIP3    H160752   3.180   5.003   0.894 -0.0120 -0.0519 -0.5725
13087TIP3    H260753   3.036   4.958   0.903 -0.7366  1.9498 -1.8273
13088TIP3   OH260754   2.767   5.185  15.628 -0.7561  0.3055 -0.2078
13088TIP3    H160755   2.793   5.268  15.668 -1.0173  1.0093 -1.4770
13088TIP3    H260756   2.849   5.139  15.613 -0.5279  0.8511 -0.6198
13089TIP3   OH260757   2.929   7.213   3.917  0.3298 -0.6883 -0.3085
13089TIP3    H160758   2.974   7.160   3.983 -0.2616 -1.9876 -0.9178
13089TIP3    H260759   2.877   7.276   3.968  0.7483 -0.9432  0.4449
13090TIP3   OH260760   0.671   0.270  15.912  0.1467 -0.0096  0.3488
13090TIP3    H160761   0.706   0.242  15.996  1.1596 -1.9997 -0.7042
13090TIP3    H260762   0.680   0.365  15.912  2.2593 -0.1970  1.5472
13091TIP3   OH260763   3.256   7.194   1.399  0.1809  0.4309  0.4588
13091TIP3    H160764   3.340   7.237   1.412  1.1922 -0.9405 -1.3493
13091TIP3    H260765   3.277   7.101   1.395 -1.3982  0.0893 -0.1499
13092TIP3   OH260766   4.109   5.732   3.772  0.0925 -0.4373 -0.4579
13092TIP3    H160767   4.091   5.800   3.836  0.9246  0.2067 -0.8997
13092TIP3    H260768   4.027   5.683   3.765 -0.2815  0.0555  0.4087
13093TIP3   OH260769   2.276   0.128   1.519  0.7034 -0.3860 -0.6250
13093TIP3    H160770   2.286   0.196   1.453  2.0360 -1.7004 -1.8125
13093TIP3    H260771   2.355   0.137   1.574  0.5537 -0.5550 -0.3801
13094TIP3   OH260772   3.361   5.833   0.767  0.4203  0.1980 -0.7337
13094TIP3    H160773   3.308   5.764   0.727  0.8002 -0.2194 -0.5229
13094TIP3    H260774   3.403   5.791   0.841 -0.0609  0.8962 -0.0519
13095TIP3   OH260775   0.859   0.234  15.437 -0.5511  0.6336 -0.1499
13095TIP3    H160776   0.814   0.159  15.475 -0.8039  1.4149  1.1454
13095TIP3    H260777   0.832   0.308  15.492  2.8210  1.0107  1.1083
13096TIP3   OH260778   3.308   6.771   1.094 -0.0519 -0.2242 -0.0500
13096TIP3    H160779   3.379   6.729   1.143  0.3290 -0.0192 -0.4291
13096TIP3    H260780   3.260   6.698   1.054  0.3666 -0.3259 -0.3703
13097TIP3   OH260781   1.123   6.885  14.770  0.2244  0.4808 -0.0935
13097TIP3    H160782   1.138   6.836  14.689 -1.0074  0.1304 -0.1339
13097TIP3    H260783   1.187   6.850  14.832 -1.0044 -1.6646  0.0506
13098TIP3   OH260784   3.685   3.943   0.752  0.0608 -0.0630  0.0758
13098TIP3    H160785   3.739   3.995   0.692 -1.1776 -0.5078 -1.4649
13098TIP3    H260786   3.595   3.965   0.729 -0.4552  0.5006  2.4755
13099TIP3   OH260787   1.713   0.005   0.367  0.2551  0.2357 -0.0953
13099TIP3    H160788   1.684   0.089   0.332  1.4298  0.0335 -1.6011
13099TIP3    H260789   1.798   0.023   0.407  1.4109 -0.5656 -2.0980
13100TIP3   OH260790   3.439   4.494   1.083  0.4046  0.1738  0.3809
13100TIP3    H160791   3.410   4.575   1.042 -0.0721  0.3130  0.9907
13100TIP3    H260792   3.458   4.436   1.009  0.3494  0.6950 -0.0514
13101TIP3   OH260793   3.076   4.902   0.320 -0.2494  0.1739  0.3075
13101TIP3    H160794   3.139   4.831   0.311  1.1648  1.4387 -0.0520
13101TIP3    H260795   3.084   4.930   0.412 -1.0709 -0.3681  0.5480
13102TIP3   OH260796   2.536   6.791   2.774 -0.0236 -0.0352 -0.1275
13102TIP3    H160797   2.504   6.880   2.791 -1.1215 -0.4693  0.1608
13102TIP3    H260798   2.531   6.782   2.679  3.1760  1.3182 -0.4936
13103TIP3   OH260799   2.165   5.891   0.463  0.3663  0.3427  0.7333
13103TIP3    H160800   2.205   5.819   0.513  0.8749  0.5420  0.6150
13103TIP3    H260801   2.208   5.887   0.378  0.0704  0.5075  0.5780
13104TIP3   OH260802   1.172   6.145   3.126  0.2162 -0.5600  0.0655
13104TIP3    H160803   1.213   6.232   3.124 -2.9984  1.0690  0.8432
13104TIP3    H260804   1.186   6.114   3.216  2.3535 -1.3907 -0.5273
13105TIP3   OH260805   3.128   5.576   2.458  0.4886  0.5941 -0.2232
13105TIP3    H160806   3.069   5.589   2.532 -0.6580  1.1036 -1.2035
13105TIP3    H260807   3.208   5.539   2.496 -0.9917 -1.4726  0.9500
13106TIP3   OH260808   0.963   4.989  15.503  0.4842  0.6497 -0.7132
13106TIP3    H160809   0.870   5.010  15.510  0.4745  0.8218 -1.2895
13106TIP3    H260810   0.996   4.992  15.593 -0.0481  0.6712 -0.5194
13107TIP3   OH260811   3.127   3.288   2.101 -0.2812  0.4311  0.2602
13107TIP3    H160812   3.058   3.227   2.074  1.9047 -1.5540 -1.0840
13107TIP3    H260813   3.139   3.271   2.194 -0.5251 -0.3430  0.1519
13108TIP3   OH260814   2.225   6.247   0.201 -0.0263  0.4757 -0.4318
13108TIP3    H160815   2.221   6.299   0.121  0.0143 -0.0888 -0.7988
13108TIP3    H260816   2.318   6.241   0.221  0.1589 -1.7828 -1.9067
13109TIP3   OH260817   3.675   4.045   1.010 -1.2513  0.1019 -0.1345
13109TIP3    H160818   3.596   4.099   1.006 -0.6459  1.0893  1.0618
13109TIP3    H260819   3.686   4.012   0.921 -0.3735  3.7826 -1.4687
13110TIP3   OH260820   1.865   5.842   0.374  0.5369 -0.2248 -0.5869
13110TIP3    H160821   1.800   5.903   0.339  0.0120 -0.5568 -0.2175
13110TIP3    H260822   1.898   5.884   0.453 -0.8431 -1.0154  0.4403
13111TIP3   OH260823   4.150   3.847   1.223  0.2224 -0.2872 -0.2225
13111TIP3    H160824   4.113   3.772   1.269 -0.1141 -0.4498 -0.7568
13111TIP3    H260825   4.088   3.866   1.153  0.3517  0.4355 -0.1524
13112TIP3   OH260826   1.943   5.091  15.513  0.1328  0.1444 -0.2207
13112TIP3    H160827   1.919   5.178  15.483 -0.2784  0.1670  0.1648
13112TIP3    H260828   2.018   5.066  15.458  0.6220  0.9685  0.0616
13113TIP3   OH260829   1.542   0.085   1.042  0.5508 -1.2601  0.3120
13113TIP3    H160830   1.570  -0.007   1.040 -1.6883 -1.9332 -1.6961
13113TIP3    H260831   1.558   0.117   0.954  0.0212 -0.0974  0.6307
13114TIP3   OH260832   1.637   0.829   2.381  0.2894  0.3070 -0.6803
13114TIP3    H160833   1.689   0.901   2.416  0.3972  0.0871 -0.3789
13114TIP3    H260834   1.698   0.779   2.326  0.3392  0.1804 -0.5119
13115TIP3   OH260835   0.640   5.311  15.984  0.1864 -0.0937  0.2563
13115TIP3    H160836   0.713   5.279  15.931  0.6373 -0.3006  1.0063
13115TIP3    H260837   0.680   5.371  16.047 -0.2856 -0.2271  0.6841
13116TIP3   OH260838   1.552   5.187   0.224  0.4882 -0.2194 -0.1853
13116TIP3    H160839   1.559   5.217   0.315  0.1745 -1.2212  0.1770
13116TIP3    H260840   1.627   5.129   0.212  0.0881 -0.7120 -0.3218
13117TIP3   OH260841   1.506   5.538  15.877  0.0262 -0.4800 -0.1798
13117TIP3    H160842   1.529   5.613  15.932 -1.7295  0.6929 -0.9826
13117TIP3    H260843   1.429   5.500  15.919 -0.4432 -0.4616 -1.0012
13118TIP3   OH260844   2.801   4.112   1.146  0.1450 -0.2460 -0.2080
13118TIP3    H160845   2.878   4.118   1.203 -0.2596 -1.3371  0.4705
13118TIP3    H260846   2.828   4.154   1.064  0.8456  1.0476  0.6640
13119TIP3   OH260847   3.374   6.531   2.507 -0.2323  0.0980  0.5022
13119TIP3    H160848   3.446   6.544   2.568 -1.0287  0.7862  1.3015
13119TIP3    H260849   3.349   6.439   2.518  0.2286 -0.0212  0.5466
13120TIP3   OH260850   3.142   6.331  15.692 -0.0902 -0.0715 -0.2103
13120TIP3    H160851   3.052   6.312  15.666  0.5727 -0.1899 -2.5535
13120TIP3    H260852   3.194   6.263  15.650  1.3988  1.6977 -1.3052
13121TIP3   OH260853   4.309   6.208   0.938 -0.2190  0.0927 -0.4702
13121TIP3    H160854   4.237   6.146   0.948  0.6896 -0.9419 -0.2039
13121TIP3    H260855   4.288   6.257   0.858 -0.4994 -1.1711 -1.1769
13122TIP3   OH260856   3.169   0.189   0.499 -0.3308  0.1910 -0.9338
13122TIP3    H160857   3.109   0.204   0.426 -0.3233 -0.2745 -1.0388
13122TIP3    H260858   3.138   0.108   0.540 -0.3059  0.4255 -0.4498
13123TIP3   OH260859   4.724   7.193  15.422 -0.2096  0.2492 -0.4583
13123TIP3    H160860   4.645   7.148  15.392  1.1078 -1.6735 -1.1403
13123TIP3    H260861   4.742   7.155  15.508  0.3939  0.1274 -0.6348
13124TIP3   OH260862   0.452   4.922   0.653  0.2514  0.0325  0.0906
13124TIP3    H160863   0.513   4.849   0.648  0.5369  0.1435  1.9150
13124TIP3    H260864   0.440   4.938   0.746 -0.6828  1.5867 -0.2762
13125TIP3   OH260865   1.359   0.731   3.094  0.0894 -0.0955  0.0018
13125TIP3    H160866   1.300   0.754   3.166 -1.0159 -1.7735 -0.3438
13125TIP3    H260867   1.443   0.770   3.119 -0.5925  0.4016  1.6021
13126TIP3   OH260868   1.773   7.162   0.030 -0.1341 -0.1361 -0.6663
13126TIP3    H160869   1.855   7.212   0.032 -0.8805  1.0765  0.1327
13126TIP3    H260870   1.742   7.170  -0.060  1.2941 -1.7294 -1.3285
13127TIP3   OH260871   2.451   6.887   1.069  0.1344 -0.4720 -0.3494
13127TIP3    H160872   2.537   6.920   1.097 -0.0948 -0.2976  0.1448
13127TIP3    H260873   2.442   6.803   1.112 -0.8584  0.4540  1.3095
13128TIP3   OH260874   6.813   6.095  15.141  0.4454  0.2462 -0.5803
13128TIP3    H160875   6.849   6.105  15.229  1.0463 -1.9905 -0.5476
13128TIP3    H260876   6.890   6.097  15.083  0.0015  2.4153 -1.1581
13129TIP3   OH260877   4.868   5.545  15.759 -0.2335  0.7293  0.1516
13129TIP3    H160878   4.841   5.560  15.668 -0.1873 -2.7174 -0.4916
13129TIP3    H260879   4.943   5.602  15.772 -0.0540  1.0451 -2.0946
13130TIP3   OH260880   1.660   4.824   0.720  0.4046  0.1643  0.6304
13130TIP3    H160881   1.740   4.872   0.699  2.1755 -3.5398 -1.7583
13130TIP3    H260882   1.691   4.743   0.760 -2.0801 -1.6410 -0.9623
13131TIP3   OH260883   4.434   7.250   2.859 -0.2084  0.6024 -0.2135
13131TIP3    H160884   4.469   7.339   2.853 -0.2528  0.5412 -1.4557
13131TIP3    H260885   4.497   7.203   2.914 -0.8128  1.6930  1.4568
13132TIP3   OH260886   1.560   2.204   2.361  0.1789  0.3946  0.6970
13132TIP3    H160887   1.580   2.282   2.412  1.4180  0.8062 -0.3763
13132TIP3    H260888   1.624   2.138   2.391  0.9472  0.6562 -0.3263
13133TIP3   OH260889   1.958   5.354   0.580  0.3043 -0.2204  0.5741
13133TIP3    H160890   2.018   5.409   0.630  2.9366 -1.7469 -0.7987
13133TIP3    H260891   1.961   5.390   0.491 -3.2902  1.6377  1.1272
13134TIP3   OH260892   6.208   5.230   1.800 -0.1496 -0.1165  0.8209
13134TIP3    H160893   6.140   5.247   1.866  0.3086 -1.7139  1.7361
13134TIP3    H260894   6.287   5.268   1.837 -0.0643 -0.3079  0.8380
13135TIP3   OH260895   0.717   5.994   0.464  0.1549  0.1429 -0.3475
13135TIP3    H160896   0.737   6.026   0.552 -1.1874  1.6369 -0.5711
13135TIP3    H260897   0.635   6.036   0.441  0.5441 -0.1463 -2.3740
13136TIP3   OH260898   3.996   4.908   0.591 -0.3366 -0.2335  0.3950
13136TIP3    H160899   4.010   4.961   0.513 -2.8047 -1.2798 -0.7937
13136TIP3    H260900   3.921   4.853   0.570 -0.5172 -1.1323  3.2032
13137TIP3   OH260901   2.305   5.106   2.947 -0.7136 -0.2647  0.2427
13137TIP3    H160902   2.298   5.025   2.896  0.3777  0.7346 -1.5267
13137TIP3    H260903   2.227   5.156   2.925 -0.4496 -0.0117 -0.1136
13138TIP3   OH260904   0.907   4.486  15.939  0.2472  0.6853 -0.0663
13138TIP3    H160905   0.923   4.414  16.001  0.8911 -0.1528 -1.1792
13138TIP3    H260906   0.942   4.563  15.983 -0.2506  0.2779  1.0542
13139TIP3   OH260907   2.566   5.482  15.997 -0.2881  0.4710  0.2365
13139TIP3    H160908   2.551   5.512  15.908  2.1494  1.7144  0.2149
13139TIP3    H260909   2.542   5.389  15.996  0.4697  0.2890 -1.9049
13140TIP3   OH260910   1.164   4.788   0.509 -0.1091 -0.2076 -0.6448
13140TIP3    H160911   1.179   4.814   0.600  1.5645  2.0579 -1.5032
13140TIP3    H260912   1.076   4.819   0.489 -0.0481  0.3170 -0.1264
13141TIP3   OH260913   2.834   0.041   1.495 -0.4628  0.7025 -0.0443
13141TIP3    H160914   2.917   0.064   1.537 -0.3213 -2.2922  1.4612
13141TIP3    H260915   2.849   0.056   1.402  1.3796  1.2666  0.3261
13142TIP3   OH260916   2.236   4.501   1.298  0.0106  0.4415  0.4467
13142TIP3    H160917   2.258   4.493   1.391  0.4643  0.4270  0.3390
13142TIP3    H260918   2.286   4.431   1.256  0.4008  0.9395  0.0888
13143TIP3   OH260919   7.254   4.475   0.940  0.4409 -0.4564 -0.3391
13143TIP3    H160920   7.164   4.491   0.912  1.1497  1.0792 -1.7289
13143TIP3    H260921   7.291   4.419   0.872  0.3623 -1.6429  0.5670
13144TIP3   OH260922   2.243   5.561  15.359 -0.5904 -0.2977  0.3159
13144TIP3    H160923   2.243   5.540  15.265 -0.9916  0.0018  0.2501
13144TIP3    H260924   2.173   5.507  15.396  0.5716 -1.5668  0.7011
13145TIP3   OH260925   2.483   5.268   0.568  0.4822  0.7422  0.4459
13145TIP3    H160926   2.559   5.212   0.553 -0.4299 -0.4604  0.2859
13145TIP3    H260927   2.492   5.339   0.504  1.2915  0.4351  0.2182
13146TIP3   OH260928   3.270   7.097  15.958 -0.1901 -0.0222  0.0889
13146TIP3    H160929   3.305   7.041  16.028 -0.9389  0.4997  0.9008
13146TIP3    H260930   3.176   7.099  15.976 -0.1636  1.5141  0.0691
13147TIP3   OH260931   0.715   5.075   1.480 -0.1870  0.3655  0.7646
13147TIP3    H160932   0.698   5.045   1.569  0.9367 -2.5543  0.0549
13147TIP3    H260933   0.802   5.115   1.484  0.0129 -0.0794  0.9178
13148TIP3   OH260934   1.955   0.531   1.888  0.1613 -0.2244  0.4109
13148TIP3    H160935   2.032   0.479   1.912 -1.0047 -2.5345 -0.7103
13148TIP3    H260936   1.989   0.619   1.876  2.3411 -0.8548  1.5834
13149TIP3   OH260937   2.838   0.025   0.108 -0.0806  0.3450 -0.5587
13149TIP3    H160938   2.856   0.119   0.103 -1.4062  0.6756  0.4994
13149TIP3    H260939   2.826   0.008   0.202  0.6041 -0.9719 -0.7013
13150TIP3   OH260940   3.081   0.687   1.094 -0.2455  0.4559  0.2129
13150TIP3    H160941   3.147   0.620   1.077 -1.1760 -0.2468 -0.7145
13150TIP3    H260942   3.059   0.676   1.187 -0.7542 -0.8768 -0.0532
13151TIP3   OH260943   2.877   6.246   1.595 -0.2709  0.5018  0.0187
13151TIP3    H160944   2.802   6.305   1.607  0.1294  0.9148  0.4856
13151TIP3    H260945   2.850   6.188   1.524 -1.5389 -0.1602  1.0136
13152TIP3   OH260946   3.088   5.781  15.575  0.1786 -0.0600  0.0275
13152TIP3    H160947   3.026   5.814  15.639  2.1031  1.0678  1.3453
13152TIP3    H260948   3.068   5.829  15.495  1.1686  2.4201  1.2034
13153TIP3   OH260949   2.727   5.850   2.203  1.0512 -0.0030 -0.2964
13153TIP3    H160950   2.679   5.803   2.135  0.5627 -0.6964  0.5325
13153TIP3    H260951   2.806   5.797   2.218  0.9792 -0.0396 -0.0550
13154TIP3   OH260952   3.627   0.364   2.936  0.0032  0.2338 -0.6216
13154TIP3    H160953   3.562   0.413   2.987 -0.0188 -1.1870  0.7650
13154TIP3    H260954   3.579   0.287   2.905  0.4165  0.3484 -1.5370
13155TIP3   OH260955   2.510   1.648   2.547 -0.6058  0.1936  0.2864
13155TIP3    H160956   2.598   1.686   2.550  0.4209 -2.0691 -0.5801
13155TIP3    H260957   2.507   1.591   2.624 -0.2181 -2.0503 -1.3353
13156TIP3   OH260958   2.535   5.818   4.712  0.4322 -0.8360 -0.0632
13156TIP3    H160959   2.459   5.840   4.767 -0.1677  0.0757 -1.2340
13156TIP3    H260960   2.586   5.899   4.707  0.9884 -1.1821 -0.0683
13157TIP3   OH260961   1.264   6.832   2.577  0.0402 -0.1585  0.3889
13157TIP3    H160962   1.288   6.804   2.665 -0.3309 -1.8853 -0.0340
13157TIP3    H260963   1.196   6.771   2.550 -1.6345  1.9211 -0.1557
13158TIP3   OH260964   3.911   7.076  14.628 -0.5904 -0.0227 -0.1881
13158TIP3    H160965   3.853   7.152  14.636 -0.7560 -0.1647 -0.0652
13158TIP3    H260966   3.858   7.002  14.655 -1.1949 -0.5112 -2.5666
13159TIP3   OH260967   1.695   6.890   0.457  0.3005  0.2517 -0.0227
13159TIP3    H160968   1.706   6.973   0.410 -1.6345 -0.0794 -1.1348
13159TIP3    H260969   1.783   6.851   0.456  1.0346  1.8467 -0.3121
13160TIP3   OH260970   0.546   5.072  15.896 -0.6660  0.7591 -0.8975
13160TIP3    H160971   0.451   5.069  15.891 -0.7626 -0.1280  1.1086
13160TIP3    H260972   0.565   5.157  15.936 -0.8445 -0.8292  2.7178
13161TIP3   OH260973   1.602   5.714   0.970  0.1388  0.0847 -0.1062
13161TIP3    H160974   1.591   5.750   0.882 -0.7497  0.5458  0.1915
13161TIP3    H260975   1.678   5.656   0.962  0.8453  1.0913 -0.8692
13162TIP3   OH260976   1.713   7.143  13.653  0.1732 -0.0306 -0.2357
13162TIP3    H160977   1.679   7.069  13.703 -0.1406  0.5926  0.4970
13162TIP3    H260978   1.778   7.105  13.594  0.1201 -0.8674  0.2375
13163TIP3   OH260979   2.271   4.976   1.224 -0.4714  0.8395  0.5251
13163TIP3    H160980   2.222   4.970   1.306  0.1253  0.8627  0.8888
13163TIP3    H260981   2.300   4.886   1.207  0.6426  1.0742  1.1169
13164TIP3   OH260982   2.489   5.214  15.615 -0.0854  0.3716 -0.3197
13164TIP3    H160983   2.482   5.304  15.584 -0.0100  1.1117  1.7369
13164TIP3    H260984   2.583   5.201  15.630 -0.1654  0.1678  0.0009
13165TIP3   OH260985   2.638   1.445   2.746 -0.4099  0.2639 -0.4868
13165TIP3    H160986   2.661   1.397   2.666  0.9463 -0.1605  0.1543
13165TIP3    H260987   2.630   1.377   2.813 -0.7272  0.7067 -0.0763
13166TIP3   OH260988   1.434   5.718   1.661  0.5050 -0.4848 -0.7658
13166TIP3    H160989   1.452   5.627   1.636  2.2553 -0.8597  1.6587
13166TIP3    H260990   1.500   5.769   1.614  0.1509 -0.5676 -1.3554
13167TIP3   OH260991   4.420   6.970   1.633 -0.4030  0.1206 -0.8497
13167TIP3    H160992   4.388   6.969   1.543 -1.4597  0.9796 -0.5036
13167TIP3    H260993   4.513   6.949   1.626 -0.8584 -1.6892 -1.9585
13168TIP3   OH260994   0.811   6.733   2.020 -0.0804 -0.3195 -0.0657
13168TIP3    H160995   0.868   6.809   2.033 -0.9953  0.1509  1.2828
13168TIP3    H260996   0.824   6.709   1.928 -1.2954  2.7013 -1.0860
13169TIP3   OH260997   1.375   4.217  15.849  0.3043 -0.3558 -0.5381
13169TIP3    H160998   1.300   4.164  15.822 -0.5940  0.1713  0.8626
13169TIP3    H260999   1.425   4.230  15.769 -1.3171 -0.3793 -1.5818
13170TIP3   OH261000   0.249   6.928   0.754  0.0700 -0.3610 -0.3695
13170TIP3    H161001   0.155   6.912   0.765  0.2829 -2.7765 -1.8289
13170TIP3    H261002   0.289   6.885   0.829  0.2133 -1.9854 -1.3507
13171TIP3   OH261003   1.163   5.956  14.923 -0.0228 -0.0462  0.4449
13171TIP3    H161004   1.200   5.961  15.011  0.5089 -0.3565  0.2407
13171TIP3    H261005   1.120   6.041  14.910  3.1791  1.5625 -0.4320
13172TIP3   OH261006   3.363   4.854   1.783 -0.2703  0.4848 -0.8563
13172TIP3    H161007   3.442   4.842   1.835 -1.0061  0.4875  0.2859
13172TIP3    H261008   3.391   4.907   1.708  0.4535  1.9132  0.4138
13173TIP3   OH261009   0.178   6.734   2.569 -0.0172 -0.3308  0.5506
13173TIP3    H161010   0.168   6.685   2.488 -0.1552 -1.6762  1.3540
13173TIP3    H261011   0.269   6.765   2.568  0.1787 -0.9189  0.1967
13174TIP3   OH261012   1.138   6.047   2.543  0.1869 -0.2829 -0.4193
13174TIP3    H161013   1.229   6.045   2.515  0.9709 -1.0408  2.0749
13174TIP3    H261014   1.112   5.955   2.549 -0.5085 -0.0905 -0.3599
13175TIP3   OH261015   1.122   4.192   1.980  0.2013  0.1507 -0.0202
13175TIP3    H161016   1.118   4.282   2.013  0.5544  0.2262 -0.1873
13175TIP3    H261017   1.164   4.200   1.894 -0.6123 -0.0630 -0.4393
13176TIP3   OH261018   1.851   6.310   1.561  0.1795  0.3396  0.5183
13176TIP3    H161019   1.853   6.282   1.469 -1.7300 -1.5804  1.0157
13176TIP3    H261020   1.817   6.234   1.608  1.8402  1.0310  2.9441
13177TIP3   OH261021   2.389   6.831   0.691 -0.1636 -0.3313  0.2685
13177TIP3    H161022   2.359   6.741   0.696 -0.3337 -0.2724  0.3151
13177TIP3    H261023   2.324   6.881   0.740 -1.4404  0.1445 -1.8224
13178TIP3   OH261024   3.271   6.300   5.539 -0.0705  0.1632 -0.2364
13178TIP3    H161025   3.316   6.349   5.609 -2.0813 -0.0068  1.2135
13178TIP3    H261026   3.231   6.226   5.584  0.4132 -1.1631 -1.9487
13179TIP3   OH261027   4.023   4.721   0.795  0.4725 -0.1498 -0.2183
13179TIP3    H161028   4.019   4.764   0.709  0.3496  0.3283  0.0270
13179TIP3    H261029   3.933   4.723   0.827  0.5738 -0.0522  0.0599
13180TIP3   OH261030   2.853   6.300   1.089  0.3013 -0.7651  0.2711
13180TIP3    H161031   2.856   6.212   1.052  0.6183  0.1607 -2.0197
13180TIP3    H261032   2.806   6.352   1.024  2.2845  1.2808  0.3845
13181TIP3   OH261033   2.191   6.182   1.983  0.2042 -0.6931 -0.6260
13181TIP3    H161034   2.242   6.258   1.955  1.6822 -1.3772  0.1103
13181TIP3    H261035   2.124   6.171   1.915  0.9211  0.3511 -1.5188
13182TIP3   OH261036   4.160   4.804   1.144  0.1446 -0.0120 -0.2659
13182TIP3    H161037   4.256   4.799   1.149  0.2799  1.1093 -1.6545
13182TIP3    H261038   4.143   4.855   1.066 -1.6416 -2.6582 -1.6752
13183TIP3   OH261039   2.488   4.333   0.037 -0.2667 -0.5614 -0.1479
13183TIP3    H161040   2.560   4.393   0.016 -0.7290  0.1559  0.2657
13183TIP3    H261041   2.461   4.296  -0.047  1.1831 -1.5356 -0.1982
13184TIP3   OH261042   2.506   6.998   0.087 -0.2449  0.8015 -0.1639
13184TIP3    H161043   2.433   6.959   0.039 -0.9215  3.0947 -1.0824
13184TIP3    H261044   2.468   7.074   0.132  0.7458 -0.2851  2.6395
13185TIP3   OH261045   2.645   5.169   2.057  0.5026 -0.0425 -1.1068
13185TIP3    H161046   2.556   5.169   2.093  0.6680  1.0970 -0.6671
13185TIP3    H261047   2.692   5.104   2.108 -0.3381 -1.3738 -2.0074
13186TIP3   OH261048   1.429   5.789   0.460 -0.0691 -0.4065  0.5323
13186TIP3    H161049   1.412   5.882   0.449 -1.8101 -0.6295  1.0986
13186TIP3    H261050   1.474   5.782   0.545  2.7894  0.1731 -0.8732
13187TIP3   OH261051   3.643   5.273   2.488 -0.2116  0.2600 -0.0317
13187TIP3    H161052   3.675   5.246   2.574 -1.4853 -1.4692 -0.0859
13187TIP3    H261053   3.718   5.261   2.429  0.2741  0.2138  0.5986
13188TIP3   OH261054   1.599   6.450   2.770 -0.8259 -0.0631  0.4126
13188TIP3    H161055   1.522   6.459   2.825  0.6042  0.6354  2.3770
13188TIP3    H261056   1.645   6.534   2.780  1.5577 -1.4351  1.4861
13189TIP3   OH261057   4.224   6.594   3.024 -0.4697 -0.0373  0.1106
13189TIP3    H161058   4.226   6.576   2.930  1.5817  0.9760 -0.0667
13189TIP3    H261059   4.229   6.508   3.066 -0.3507 -0.4230 -0.6945
13190TIP3   OH261060   4.708   5.362   1.635 -0.3610 -0.0118 -0.0559
13190TIP3    H161061   4.773   5.293   1.622 -0.5971 -0.1638 -0.4229
13190TIP3    H261062   4.671   5.377   1.549  0.2612  1.1536 -0.1271
13191TIP3   OH261063   2.305   3.838  14.898 -0.2502 -0.3543 -0.7373
13191TIP3    H161064   2.252   3.762  14.921  1.4597 -1.4105 -0.1671
13191TIP3    H261065   2.363   3.851  14.973 -1.5472  2.4961 -0.1362
13192TIP3   OH261066   3.071   4.196   2.429  0.0776  0.5753  0.3980
13192TIP3    H161067   3.069   4.101   2.416 -0.3046  0.3920  1.7857
13192TIP3    H261068   2.979   4.222   2.430  0.1992  1.1658 -1.3064
13193TIP3   OH261069   4.182   3.597   0.582  0.1010  0.6756  0.2186
13193TIP3    H161070   4.096   3.575   0.619  0.4419 -0.7219  0.2076
13193TIP3    H261071   4.236   3.618   0.658  0.2510 -0.2604  0.3849
13194TIP3   OH261072   4.877   4.593   0.651  0.0266  0.2152 -0.2329
13194TIP3    H161073   4.908   4.504   0.633 -0.7081  0.2208 -1.6468
13194TIP3    H261074   4.953   4.638   0.688 -0.1189 -1.4833  2.1760
13195TIP3   OH261075   0.843   5.219  15.832 -0.2425  0.0537  0.1933
13195TIP3    H161076   0.930   5.183  15.846 -1.8844 -3.7748  1.1101
13195TIP3    H261077   0.839   5.238  15.738  1.3347 -0.3826  0.0338
13196TIP3   OH261078   3.088   6.396   0.579  0.4308  0.1527  0.3863
13196TIP3    H161079   3.054   6.455   0.646 -1.0665  0.9166 -0.9882
13196TIP3    H261080   3.063   6.309   0.608  1.0064  0.3519  1.4958
13197TIP3   OH261081   2.248   0.351   1.348  0.3747 -0.5781  0.0549
13197TIP3    H161082   2.278   0.410   1.417  1.2204  1.1190 -1.7148
13197TIP3    H261083   2.294   0.381   1.269 -2.0147 -1.2542 -1.6503
13198TIP3   OH261084   4.195   6.488  14.507  0.2664  0.2056 -0.4837
13198TIP3    H161085   4.235   6.518  14.589  0.7274  1.8598 -1.3023
13198TIP3    H261086   4.103   6.477  14.528  0.5575 -0.3544  0.5246
13199TIP3   OH261087   7.232   4.724  15.374 -0.3352 -0.0988 -0.0379
13199TIP3    H161088   7.196   4.810  15.394 -1.5746 -0.9162  1.3314
13199TIP3    H261089   7.157   4.665  15.378  0.8297 -1.5577  1.0439
13200TIP3   OH261090   3.569   1.302   1.157 -0.9659  0.3223 -0.2046
13200TIP3    H161091   3.504   1.257   1.211  0.7070 -0.3869  1.2935
13200TIP3    H261092   3.586   1.384   1.204  0.2331 -0.1333  0.1872
13201TIP3   OH261093   1.189   7.083   2.497  0.2496 -0.1359 -0.5428
13201TIP3    H161094   1.205   6.998   2.538 -0.5626 -0.0419 -0.0343
13201TIP3    H261095   1.274   7.107   2.459  0.5492 -1.0512 -0.4712
13202TIP3   OH261096   1.844   5.202   0.253  0.4740 -0.6307 -0.4166
13202TIP3    H161097   1.895   5.134   0.297  0.8104  0.3852  0.8108
13202TIP3    H261098   1.881   5.206   0.165  0.0677 -2.4201 -0.6898
13203TIP3   OH261099   2.844   4.823   0.671 -0.1478 -0.4681 -0.6281
13203TIP3    H161100   2.872   4.781   0.752 -1.4664 -0.2577 -0.0533
13203TIP3    H261101   2.751   4.840   0.684 -0.3473 -0.3763 -2.1684
13204TIP3   OH261102   3.378   1.667   0.591  0.8163  0.5362 -0.1649
13204TIP3    H161103   3.452   1.659   0.530  1.9319 -0.3661  1.2638
13204TIP3    H261104   3.389   1.592   0.650 -2.0897 -0.4739 -0.8240
13205TIP3   OH261105   2.277   4.993   0.181  0.1843 -0.2504 -0.0482
13205TIP3    H161106   2.250   5.083   0.200  2.3173 -0.0043  2.1216
13205TIP3    H261107   2.252   4.944   0.259 -0.6134 -1.4581 -1.0622
13206TIP3   OH261108   3.098   5.415   1.874  0.2197 -0.4614  0.1813
13206TIP3    H161109   3.183   5.373   1.887  0.8874  1.3129  1.8613
13206TIP3    H261110   3.048   5.353   1.821  3.0482 -0.8844 -2.1102
13207TIP3   OH261111   2.172   7.208   0.316  0.2060  0.5483 -0.2196
13207TIP3    H161112   2.162   7.247   0.229 -1.5120 -0.8222 -0.6645
13207TIP3    H261113   2.150   7.115   0.303 -1.2283  0.5737  1.9057
13208TIP3   OH261114   3.087   3.824   0.902 -0.3922  0.1401  0.0875
13208TIP3    H161115   3.182   3.825   0.909 -0.4190 -0.5213  0.6320
13208TIP3    H261116   3.059   3.757   0.964 -1.0684 -1.2331 -1.6520
13209TIP3   OH261117   1.007   5.320  15.137  0.0228  0.1668  0.1894
13209TIP3    H161118   1.005   5.314  15.042  2.4299  0.4179  0.0906
13209TIP3    H261119   1.056   5.243  15.165 -0.5565  0.1623  1.2200
13210TIP3   OH261120   1.491   4.966  15.970  0.3028 -0.0289 -0.0260
13210TIP3    H161121   1.402   4.947  16.002  0.6065 -0.6964  0.4397
13210TIP3    H261122   1.548   4.944  16.044  0.8312  0.7904 -0.1812
13211TIP3   OH261123   3.630   6.143   0.165 -0.2389 -0.0213 -0.3336
13211TIP3    H161124   3.621   6.049   0.149 -1.2319  0.2658 -1.4882
13211TIP3    H261125   3.659   6.149   0.257  1.4088 -1.4995 -0.7272
13212TIP3   OH261126   0.767   3.956  15.499  0.3662  0.6808  0.3045
13212TIP3    H161127   0.816   3.921  15.573  0.2077 -0.1435  0.0292
13212TIP3    H261128   0.721   3.880  15.463 -0.2947  1.2536 -0.0657
13213TIP3   OH261129   2.484   4.659   1.509 -0.2261 -0.4218  0.1682
13213TIP3    H161130   2.415   4.673   1.574 -0.8667 -0.8843 -0.3892
13213TIP3    H261131   2.483   4.564   1.493  0.6185 -0.4440  0.2373
13214TIP3   OH261132   1.080   6.097   1.230  0.2591  0.8520 -0.2204
13214TIP3    H161133   1.119   6.039   1.295  2.4174  2.6097  0.1308
13214TIP3    H261134   1.024   6.040   1.177 -1.2394 -0.6826  2.9207
13215TIP3   OH261135   2.900   0.269  15.193  0.2039 -0.5595 -0.2032
13215TIP3    H161136   2.954   0.238  15.266  1.1881  0.9273 -0.2678
13215TIP3    H261137   2.961   0.318  15.137 -1.3475  1.9908  0.2201
13216TIP3   OH261138   4.128   0.893   3.372  0.3931 -0.4676 -0.2962
13216TIP3    H161139   4.171   0.807   3.380  2.8467  0.7995  0.5533
13216TIP3    H261140   4.113   0.920   3.462  0.4666  0.4074 -0.5489
13217TIP3   OH261141   1.067   3.544   1.211  0.1464 -0.3649  0.5210
13217TIP3    H161142   1.158   3.537   1.242  0.9551 -3.2400 -2.3070
13217TIP3    H261143   1.015   3.504   1.281  1.1814 -0.2363  1.3851
13218TIP3   OH261144   3.061   5.845   4.439 -0.1395 -0.0312  0.3047
13218TIP3    H161145   3.095   5.756   4.448  1.5574  0.4464 -1.0409
13218TIP3    H261146   3.093   5.874   4.354  0.3327  2.2750  1.2217
13219TIP3   OH261147   3.459   6.340  15.773 -0.2850  0.2265 -0.1112
13219TIP3    H161148   3.416   6.364  15.691 -0.3101 -2.8096 -1.0544
13219TIP3    H261149   3.531   6.403  15.782 -0.6708  0.9812 -2.1391
13220TIP3   OH261150   1.922   5.488   0.970 -0.3968  0.6481  0.0286
13220TIP3    H161151   1.912   5.441   1.053 -2.3711  1.5002  0.2843
13220TIP3    H261152   1.874   5.435   0.906 -0.2737  0.8591 -0.2412
13221TIP3   OH261153   3.413   5.734   2.484  0.7228  0.2871  1.2685
13221TIP3    H161154   3.492   5.693   2.519 -1.2157 -3.9127  0.9653
13221TIP3    H261155   3.423   5.731   2.389  0.5323  0.4206  1.2427
13222TIP3   OH261156   4.184   1.113   2.351 -0.4386 -0.1402  0.9755
13222TIP3    H161157   4.250   1.043   2.343  0.8832  1.1399  0.3794
13222TIP3    H261158   4.101   1.070   2.328  0.5917 -1.1101 -1.1668
13223TIP3   OH261159   6.715   3.697  15.455  0.2273  0.0169 -0.5438
13223TIP3    H161160   6.678   3.633  15.516 -0.3564  0.8386 -0.0234
13223TIP3    H261161   6.783   3.649  15.408  0.9933 -0.5068  1.0633
13224TIP3   OH261162   5.232   0.935  15.566  0.4230  1.0696 -0.0887
13224TIP3    H161163   5.188   0.858  15.601  0.0604  0.0846 -2.5718
13224TIP3    H261164   5.325   0.917  15.575  0.3364  0.4310 -0.4400
13225TIP3   OH261165   3.860   0.771  13.979  0.5327 -0.1216 -0.0169
13225TIP3    H161166   3.860   0.802  13.888  0.7754  0.4462  0.1827
13225TIP3    H261167   3.950   0.779  14.008  0.4876 -0.4651  0.2277
13226TIP3   OH261168   4.674   6.094   1.388 -0.7041 -0.8405 -0.0900
13226TIP3    H161169   4.715   6.166   1.437  0.3003 -1.7609  0.4563
13226TIP3    H261170   4.581   6.114   1.389 -0.5139  0.0395  0.7577
13227TIP3   OH261171   4.378   6.399  15.338 -0.3904  0.1695  0.5931
13227TIP3    H161172   4.299   6.361  15.378 -1.0316 -1.2368 -1.8471
13227TIP3    H261173   4.345   6.448  15.262  1.0828 -0.8080 -0.7271
13228TIP3   OH261174   6.907   6.716   2.763  0.2939 -0.4279 -0.1693
13228TIP3    H161175   6.890   6.722   2.857  0.7932 -0.5997 -0.0667
13228TIP3    H261176   6.885   6.626   2.740  0.0666 -0.3555 -0.2413
13229TIP3   OH261177   0.125   5.227   0.439 -0.0010 -0.0563  0.3513
13229TIP3    H161178   0.142   5.138   0.471 -2.7463 -0.5505  0.5520
13229TIP3    H261179   0.035   5.245   0.465  1.0604  3.5040  1.9222
13230TIP3   OH261180   2.895   5.603   1.697 -0.4564 -0.4980  0.0160
13230TIP3    H161181   2.981   5.563   1.685 -0.7332 -0.5700 -1.9124
13230TIP3    H261182   2.874   5.588   1.789  1.5968 -0.4602  0.5229
13231TIP3   OH261183   5.691   6.563   0.850  0.1744 -0.3260  0.1721
13231TIP3    H161184   5.757   6.493   0.857  1.9372  1.4002  1.2573
13231TIP3    H261185   5.697   6.609   0.934 -0.8858  1.2078 -0.5835
13232TIP3   OH261186   2.391   4.903   1.730 -0.2747  0.0678  0.2231
13232TIP3    H161187   2.368   4.810   1.727 -2.7688  0.7170 -2.2694
13232TIP3    H261188   2.484   4.903   1.753 -1.3030 -2.8350  5.0982
13233TIP3   OH261189   3.033   0.716   0.708 -0.3959 -0.2953 -0.5992
13233TIP3    H161190   2.996   0.751   0.789 -2.2807  0.2598 -1.6634
13233TIP3    H261191   3.072   0.792   0.665  0.2337 -0.5087 -0.4004
13234TIP3   OH261192   3.439   0.169   2.884  0.1845 -0.1220 -0.2420
13234TIP3    H161193   3.362   0.114   2.870 -1.5477  1.7208  1.6454
13234TIP3    H261194   3.462   0.154   2.976 -0.5203  2.4718  0.3995
13235TIP3   OH261195   5.764   0.247   1.525  0.3704 -0.0343  0.0830
13235TIP3    H161196   5.712   0.284   1.454  1.9495 -0.2057 -1.1770
13235TIP3    H261197   5.735   0.156   1.531  0.2804 -0.0348 -0.3732
13236TIP3   OH261198   2.237   5.681   0.630  0.3365 -0.5387 -0.4787
13236TIP3    H161199   2.184   5.619   0.679  1.3658 -2.4252 -1.6668
13236TIP3    H261200   2.309   5.704   0.689 -0.8468  0.7178  0.5094
13237TIP3   OH261201   2.792   0.712   0.403  0.4481  0.3674 -0.0653
13237TIP3    H161202   2.853   0.723   0.476 -0.5919 -0.5446  0.9756
13237TIP3    H261203   2.731   0.785   0.411  0.7560  0.6630 -0.4410
13238TIP3   OH261204   3.114   0.088   1.903 -0.6969  0.5953  0.1981
13238TIP3    H161205   3.128   0.078   1.998  1.6765  0.3917 -0.1385
13238TIP3    H261206   3.148   0.176   1.884  1.0424 -0.2851 -0.8391
13239TIP3   OH261207   4.477   0.536   2.429  0.7366 -0.2960  0.1082
13239TIP3    H161208   4.551   0.543   2.368 -0.2727 -0.9619 -1.1984
13239TIP3    H261209   4.405   0.503   2.376 -0.7379  1.1410  1.1976
13240TIP3   OH261210   1.830   4.530  15.424  0.3746 -0.0042  0.0464
13240TIP3    H161211   1.916   4.572  15.418 -0.4088  1.6949  0.3543
13240TIP3    H261212   1.770   4.601  15.446 -1.3136 -0.9233 -1.3936
13241TIP3   OH261213   5.018   1.946  15.885  0.3155 -0.0446 -0.3555
13241TIP3    H161214   4.993   1.885  15.955 -1.4127 -0.0450 -0.9438
13241TIP3    H261215   5.113   1.954  15.893  0.0020  1.1527  2.9808
13242TIP3   OH261216   3.842   0.255   1.681  0.4901 -0.6796 -0.1127
13242TIP3    H161217   3.871   0.202   1.607  1.9663  0.6491 -0.5171
13242TIP3    H261218   3.804   0.334   1.641  1.2611  0.0312  0.5255
13243TIP3   OH261219   7.061   1.629  15.104  0.6195 -0.0886 -0.1163
13243TIP3    H161220   7.055   1.668  15.017  1.7666 -0.9884 -0.6192
13243TIP3    H261221   7.153   1.602  15.112 -0.1534 -2.8564  0.1083
13244TIP3   OH261222   6.239   6.206   0.526 -0.1119  0.5112  0.3487
13244TIP3    H161223   6.305   6.178   0.462  0.0335  0.4835  0.5103
13244TIP3    H261224   6.290   6.244   0.598 -0.2279 -0.3230  0.8732
13245TIP3   OH261225   5.893   5.827   2.195 -0.4359 -0.0218 -0.6278
13245TIP3    H161226   5.825   5.759   2.189 -0.8931  0.2898  0.8666
13245TIP3    H261227   5.855   5.893   2.253  0.3427  1.1154 -1.4242
13246TIP3   OH261228   6.512   7.287   0.450 -0.0970  0.4145 -0.1588
13246TIP3    H161229   6.455   7.211   0.459 -0.7753  0.8681 -0.5520
13246TIP3    H261230   6.467   7.356   0.499 -0.4154  1.0544 -1.3130
13247TIP3   OH261231   4.446   5.952   0.757 -0.1546 -0.2000 -0.7041
13247TIP3    H161232   4.452   5.973   0.851 -0.3088 -0.0534 -0.7275
13247TIP3    H261233   4.493   5.869   0.749  1.0937  0.5100 -0.7471
13248TIP3   OH261234   4.953   7.081   2.507 -0.3672  0.3456 -0.5289
13248TIP3    H161235   4.896   7.013   2.541  0.3312 -0.0444 -0.1208
13248TIP3    H261236   4.948   7.152   2.571 -1.2127  0.7379 -1.0327
13249TIP3   OH261237   2.850   6.110   2.107 -0.0938 -0.5768 -0.2727
13249TIP3    H161238   2.810   6.165   2.175 -0.6057  1.0345 -1.8175
13249TIP3    H261239   2.816   6.022   2.124 -0.5562 -0.1238  1.2842
13250TIP3   OH261240   3.726   5.711  15.298  0.0538  0.1094 -0.6232
13250TIP3    H161241   3.719   5.725  15.392  0.0293 -0.2508 -0.5678
13250TIP3    H261242   3.636   5.696  15.269  0.1151 -0.2586 -0.6253
13251TIP3   OH261243   0.058   4.787   0.796  0.2518 -0.1162 -0.6735
13251TIP3    H161244   0.020   4.751   0.876 -2.5249 -1.0297 -2.3247
13251TIP3    H261245   0.108   4.715   0.758  0.0159 -0.2591 -0.7149
13252TIP3   OH261246   3.744   4.865   1.393 -0.0983  0.3985 -0.1403
13252TIP3    H161247   3.756   4.921   1.470  1.4050  2.0231 -1.5063
13252TIP3    H261248   3.810   4.797   1.401 -1.2634 -0.6184  1.0094
13253TIP3   OH261249   5.167   2.072   1.911 -0.1069 -0.3230 -0.2421
13253TIP3    H161250   5.131   2.156   1.939 -0.8574 -0.8078  0.3024
13253TIP3    H261251   5.197   2.031   1.992  1.5902  0.0157 -0.6778
13254TIP3   OH261252   3.855   7.289   1.028 -0.0001  0.4176 -0.2874
13254TIP3    H161253   3.838   7.209   1.078 -1.0885  1.1038  0.4529
13254TIP3    H261254   3.769   7.317   0.999  0.5147  0.6491 -1.6005
13255TIP3   OH261255   6.571   5.911   5.333 -0.0608 -0.3871  0.3923
13255TIP3    H161256   6.605   5.989   5.289 -1.2593 -0.4914 -0.7225
13255TIP3    H261257   6.636   5.892   5.401  0.6909  1.0532  0.0914
13256TIP3   OH261258   3.723   7.244   3.093 -0.0179  0.1315  0.2644
13256TIP3    H161259   3.662   7.172   3.114 -0.8776  1.0985  1.1156
13256TIP3    H261260   3.678   7.294   3.025 -0.0435  0.6828  0.6860
13257TIP3   OH261261   5.881   7.042   0.015  0.5350  0.0930 -0.6325
13257TIP3    H161262   5.900   7.086  -0.069 -0.6183  0.1936 -0.8428
13257TIP3    H261263   5.787   7.050   0.025  0.8050  1.0996  1.2500
13258TIP3   OH261264   3.365   0.183  15.098  0.4854  0.4844  0.2678
13258TIP3    H161265   3.312   0.200  15.177 -0.0331  0.2224 -0.0184
13258TIP3    H261266   3.300   0.171  15.029  0.9376  0.4724 -0.1493
13259TIP3   OH261267   4.028   5.454   0.065 -0.3885  0.3193 -0.6071
13259TIP3    H161268   4.089   5.470  -0.007  1.1903  1.3443  0.9382
13259TIP3    H261269   4.030   5.359   0.077  1.1188  0.3668 -0.3957
13260TIP3   OH261270   3.862   5.520   0.793 -0.1210  0.3708 -0.0669
13260TIP3    H161271   3.943   5.485   0.830 -0.3644  1.6393  1.7401
13260TIP3    H261272   3.797   5.452   0.809  0.2688 -0.0342 -0.1987
13261TIP3   OH261273   2.850   6.616   0.100 -0.4338  0.0092  0.2582
13261TIP3    H161274   2.771   6.577   0.137 -1.5117 -0.4115 -2.3633
13261TIP3    H261275   2.821   6.701   0.066  0.4354  0.2535  0.1199
13262TIP3   OH261276   1.666   6.766   1.850  0.1416  0.0659  0.0755
13262TIP3    H161277   1.737   6.743   1.909  0.1848 -0.1793 -0.0695
13262TIP3    H261278   1.628   6.681   1.824  0.6615  0.1307 -0.9048
13263TIP3   OH261279   4.233   3.762   0.313 -0.1010  0.0401  0.8881
13263TIP3    H161280   4.189   3.733   0.234 -0.9825  2.0474  0.6080
13263TIP3    H261281   4.196   3.709   0.383  0.8221 -1.8838 -0.0426
13264TIP3   OH261282   5.497   7.216   0.292  0.1084  0.8131 -0.1111
13264TIP3    H161283   5.412   7.201   0.334  0.2321  0.4270  0.0031
13264TIP3    H261284   5.559   7.166   0.344  0.1782 -0.1366 -1.0950
13265TIP3   OH261285   5.917   0.439   0.323  0.2055  0.0908  0.4014
13265TIP3    H161286   5.996   0.477   0.360  0.7421  0.3703 -0.9829
13265TIP3    H261287   5.916   0.469   0.232 -1.1812 -0.3894  0.2411
13266TIP3   OH261288   2.526   4.930   0.338 -0.2745  0.1187  0.0766
13266TIP3    H161289   2.578   4.850   0.345 -1.0422 -0.3604  0.4107
13266TIP3    H261290   2.474   4.917   0.258 -0.7611  0.0573  0.3980
13267TIP3   OH261291   3.347   7.017  15.342 -0.1554 -0.5473 -0.0862
13267TIP3    H161292   3.291   6.940  15.331 -1.6444  0.4293  0.4985
13267TIP3    H261293   3.311   7.082  15.283 -0.8024  0.6985  1.6280
13268TIP3   OH261294   4.196   0.149   3.890 -0.3348 -0.4302  0.0851
13268TIP3    H161295   4.285   0.181   3.897  0.2913 -2.5253  2.3820
13268TIP3    H261296   4.206   0.054   3.884 -2.4077 -0.6696  0.1871
13269TIP3   OH261297   1.624   0.132   0.784 -0.1589  0.2365  0.3207
13269TIP3    H161298   1.653   0.216   0.820 -2.7507  0.8079  1.2307
13269TIP3    H261299   1.584   0.155   0.700 -1.0636 -0.0499  0.6697
13270TIP3   OH261300   3.866   0.730   3.873 -0.4227  0.2838 -0.6496
13270TIP3    H161301   3.787   0.685   3.904  0.7556 -1.0922  0.3719
13270TIP3    H261302   3.887   0.793   3.942  0.7578 -1.0332  0.1993
13271TIP3   OH261303   3.536   4.966  13.859 -0.4361 -0.7945 -0.3905
13271TIP3    H161304   3.491   4.988  13.941 -1.9974 -1.4647 -1.0515
13271TIP3    H261305   3.484   5.009  13.791  0.7070 -0.4614 -1.0625
13272TIP3   OH261306   5.272   4.857   3.145  0.2782 -0.4495 -0.6925
13272TIP3    H161307   5.296   4.873   3.237 -0.4946 -0.3827 -0.4972
13272TIP3    H261308   5.176   4.853   3.146  0.1772  1.0500 -1.7353
13273TIP3   OH261309   4.676   1.269   4.087  0.9113  0.4024  0.0494
13273TIP3    H161310   4.675   1.198   4.151  0.2109  0.1037 -0.2925
13273TIP3    H261311   4.587   1.271   4.051  0.7818  1.7482  0.3916
13274TIP3   OH261312   3.212   0.405   1.079 -0.0632 -0.1417  0.4233
13274TIP3    H161313   3.149   0.333   1.086 -0.5911  0.1271 -1.3992
13274TIP3    H261314   3.212   0.428   0.986  1.5422  0.9308  0.6689
13275TIP3   OH261315   5.474   4.998  15.583 -0.1761  0.2007  0.3904
13275TIP3    H161316   5.408   5.068  15.586  0.6487  1.1243 -1.5534
13275TIP3    H261317   5.429   4.925  15.540  0.2719  1.1460 -1.7926
13276TIP3   OH261318   3.795   6.845   1.937  0.2012 -0.7026  0.2161
13276TIP3    H161319   3.847   6.857   1.858 -0.9713 -2.7029 -0.8822
13276TIP3    H261320   3.735   6.919   1.938  1.6990  0.5515  0.4584
13277TIP3   OH261321   4.128   6.587   1.206  0.2280  0.4434 -0.3520
13277TIP3    H161322   4.200   6.613   1.263  0.6641 -0.0524 -0.6710
13277TIP3    H261323   4.149   6.627   1.122  0.4455 -0.1938 -0.6065
13278TIP3   OH261324   4.559   1.238   0.147  0.1674 -0.2360 -0.5279
13278TIP3    H161325   4.648   1.271   0.139  0.4979 -1.4934 -2.5955
13278TIP3    H261326   4.539   1.202   0.060 -1.9868 -0.8589  0.1867
13279TIP3   OH261327   5.476   6.700   0.991 -0.0750  0.7754 -0.2892
13279TIP3    H161328   5.426   6.626   1.026  2.7232 -0.4061  1.2707
13279TIP3    H261329   5.526   6.662   0.919 -0.1978  1.6381 -0.8372
13280TIP3   OH261330   1.975   4.374   1.188 -0.1562 -0.0264 -0.0060
13280TIP3    H161331   1.977   4.333   1.102  0.8613  0.4622 -0.2165
13280TIP3    H261332   2.058   4.421   1.195 -0.9887  1.4204  0.5191
13281TIP3   OH261333   4.296   5.736  14.672  0.0093  0.6076 -0.6337
13281TIP3    H161334   4.387   5.706  14.668 -0.5378 -0.8678 -2.2190
13281TIP3    H261335   4.293   5.792  14.750  2.0270 -0.1586  0.0178
13282TIP3   OH261336   3.290   5.512  15.284  0.2772 -0.7701  0.5470
13282TIP3    H161337   3.226   5.562  15.234  1.8013 -0.3202 -0.9848
13282TIP3    H261338   3.271   5.420  15.264 -0.2665 -0.6680  0.5887
13283TIP3   OH261339   3.067   0.164   1.113  0.0877  0.2669  0.2429
13283TIP3    H161340   3.120   0.084   1.121  0.0642  0.3328  1.0349
13283TIP3    H261341   3.048   0.170   1.019 -0.5279 -1.0605  0.2753
13284TIP3   OH261342   3.215   7.055   2.961  0.3016 -0.0150 -0.0007
13284TIP3    H161343   3.145   7.054   2.896 -0.4344  0.1082  0.7741
13284TIP3    H261344   3.288   7.009   2.920  0.2495  1.0902 -1.3540
13285TIP3   OH261345   3.977   5.828  15.570 -0.2056  0.0940  0.3523
13285TIP3    H161346   3.989   5.807  15.663 -2.2968  0.7464  0.7765
13285TIP3    H261347   4.020   5.755  15.524 -0.8660 -1.2554  1.8222
13286TIP3   OH261348   5.199   6.147   1.559  0.3909 -0.0233 -0.1943
13286TIP3    H161349   5.110   6.170   1.531  0.6145 -0.2628 -1.1070
13286TIP3    H261350   5.239   6.108   1.482  0.8763 -1.0874  0.5943
13287TIP3   OH261351   6.022   5.965   0.866  0.3471 -0.0346 -0.4792
13287TIP3    H161352   6.064   5.925   0.942 -0.4535  0.9896  0.5052
13287TIP3    H261353   5.945   6.009   0.901  0.7769  1.7172 -1.6674
13288TIP3   OH261354   3.753   5.502   1.525  0.1880 -0.5484  0.3438
13288TIP3    H161355   3.807   5.423   1.530 -0.8858 -1.2721  0.6871
13288TIP3    H261356   3.769   5.537   1.438  1.2517 -0.7243  0.4602
13289TIP3   OH261357   2.790   5.095  14.115  0.5420 -0.7028 -0.1628
13289TIP3    H161358   2.819   5.032  14.180  0.7374 -0.1773  0.2544
13289TIP3    H261359   2.754   5.041  14.044 -0.6939 -1.2341  0.8660
13290TIP3   OH261360   4.878   6.719   1.478 -0.0965  0.3627  0.3756
13290TIP3    H161361   4.886   6.729   1.384  0.4897 -1.8815  0.1692
13290TIP3    H261362   4.956   6.760   1.514  0.2810  0.1290 -0.1867
13291TIP3   OH261363   4.889   5.273   0.090 -0.3772 -0.6189 -0.1796
13291TIP3    H161364   4.955   5.331   0.128  0.6451 -1.0882 -1.1794
13291TIP3    H261365   4.826   5.331   0.048  1.9312 -0.2109 -3.2960
13292TIP3   OH261366   1.490   5.890   1.219  0.0137 -0.1556  0.3178
13292TIP3    H161367   1.541   5.874   1.140  0.2228  0.5845  0.3051
13292TIP3    H261368   1.444   5.807   1.234  1.0595 -0.7683  0.2197
13293TIP3   OH261369   7.147   7.244  14.900  0.2371 -0.3820 -0.1768
13293TIP3    H161370   7.166   7.219  14.991  1.9695 -2.1773 -1.0128
13293TIP3    H261371   7.224   7.293  14.871 -0.1585 -0.1170 -0.7916
13294TIP3   OH261372   5.632   1.931  15.367 -0.8416 -0.0647 -0.4092
13294TIP3    H161373   5.691   1.982  15.422  1.5173  1.2868 -3.9810
13294TIP3    H261374   5.563   1.992  15.342 -0.4716  0.1165 -1.0203
13295TIP3   OH261375   4.784   6.219   2.283  0.1147  0.1171  0.0913
13295TIP3    H161376   4.809   6.128   2.277 -0.1970  0.0284  0.0965
13295TIP3    H261377   4.709   6.219   2.343  0.2419  0.3998  0.2524
13296TIP3   OH261378   6.583   5.185   1.012 -0.1901  0.2631  0.1123
13296TIP3    H161379   6.499   5.183   0.967  0.4679  3.0673 -1.3628
13296TIP3    H261380   6.570   5.245   1.086 -0.4012 -1.9709  1.9655
13297TIP3   OH261381   5.272   7.135   0.464 -0.3554 -0.3339  0.1043
13297TIP3    H161382   5.191   7.096   0.431 -0.7980  0.0957  0.6740
13297TIP3    H261383   5.245   7.182   0.543  0.7638 -1.6016  1.2293
13298TIP3   OH261384   1.886   5.757   0.106 -0.0270 -0.8112  0.3484
13298TIP3    H161385   1.868   5.783   0.196 -0.2302  0.0296  0.0665
13298TIP3    H261386   1.928   5.671   0.114 -0.0643 -0.7518  1.2375
13299TIP3   OH261387   5.164   5.506   1.113 -0.1648  0.1586  0.2827
13299TIP3    H161388   5.195   5.430   1.063  1.3910 -0.3314  1.9352
13299TIP3    H261389   5.231   5.519   1.180 -1.8804  1.1997  1.8321
13300TIP3   OH261390   4.289   6.096   3.691 -0.1912  0.2167  0.1538
13300TIP3    H161391   4.322   6.016   3.733 -0.3077 -0.1832 -0.5165
13300TIP3    H261392   4.235   6.065   3.619 -1.4398  0.8849  0.7864
13301TIP3   OH261393   4.928   6.824   0.502  0.0360 -0.9669  0.2726
13301TIP3    H161394   5.000   6.852   0.559  1.3491 -0.2174 -1.7133
13301TIP3    H261395   4.944   6.731   0.487 -0.5960 -1.2893  1.4923
13302TIP3   OH261396   0.092   4.643   1.092 -0.2826 -0.4849 -0.0830
13302TIP3    H161397   0.051   4.713   1.142  0.7162 -0.6220  0.9455
13302TIP3    H261398   0.019   4.596   1.051 -1.2939 -1.8418  3.1727
13303TIP3   OH261399   4.646   7.248   1.677 -0.2037  0.5757  0.4973
13303TIP3    H161400   4.637   7.302   1.598  0.2888 -1.9697 -1.3887
13303TIP3    H261401   4.729   7.202   1.665  0.3305  0.8259  2.9740
13304TIP3   OH261402   4.247   6.386   3.182 -0.1308 -0.0331 -0.1508
13304TIP3    H161403   4.312   6.333   3.135  0.2399 -0.3222  0.6883
13304TIP3    H261404   4.249   6.353   3.272  0.2200  1.4995  0.4114
13305TIP3   OH261405   0.397   5.103   0.886  0.0900  0.3853 -0.1672
13305TIP3    H161406   0.312   5.096   0.844 -0.2275 -1.0754  0.7126
13305TIP3    H261407   0.380   5.094   0.980  0.9600  2.2548  0.2142
13306TIP3   OH261408   4.806   0.524  15.577  0.2419  0.0280 -0.0184
13306TIP3    H161409   4.900   0.519  15.599  0.4896 -1.2592 -1.2646
13306TIP3    H261410   4.773   0.436  15.595 -1.2283  1.0493  2.4823
13307TIP3   OH261411   3.905   6.229   0.931  0.2646  0.3410 -0.1145
13307TIP3    H161412   3.919   6.269   1.016 -0.4367 -0.6411  0.4660
13307TIP3    H261413   3.990   6.236   0.887  0.3496  1.7917  0.2499
13308TIP3   OH261414   3.419   7.124  14.902 -0.2369 -0.1451 -0.0787
13308TIP3    H161415   3.475   7.096  14.830 -0.2173  0.3065 -0.2392
13308TIP3    H261416   3.471   7.190  14.949 -1.7112  2.3638 -1.8851
13309TIP3   OH261417   3.021   1.732  14.095  0.5698  0.1253  0.3088
13309TIP3    H161418   3.088   1.776  14.147 -0.5724  1.1881  0.9269
13309TIP3    H261419   2.954   1.799  14.081  0.3687 -0.4505 -1.6434
13310TIP3   OH261420   3.459   4.736   0.884  0.0080 -0.0679 -0.4692
13310TIP3    H161421   3.466   4.831   0.883  0.2345 -0.0839 -0.4767
13310TIP3    H261422   3.397   4.716   0.814  2.8143 -0.1344 -3.0600
13311TIP3   OH261423   1.924   5.867   0.640 -0.6969  0.5048 -0.0762
13311TIP3    H161424   1.916   5.851   0.734 -0.3318 -1.9162 -0.4321
13311TIP3    H261425   2.008   5.911   0.629 -0.8026  0.9140  0.7230
13312TIP3   OH261426   4.553   1.168  14.588 -0.0885  0.4590  0.2906
13312TIP3    H161427   4.491   1.101  14.618 -0.0879 -0.0973 -0.9326
13312TIP3    H261428   4.498   1.245  14.571 -0.5145 -0.1417 -1.1349
13313TIP3   OH261429   2.167   5.934   1.430 -0.4083  0.4595 -0.2868
13313TIP3    H161430   2.123   5.886   1.500 -1.2047  0.8774 -0.5016
13313TIP3    H261431   2.184   5.868   1.362  0.9267 -0.0846  0.5407
13314TIP3   OH261432   3.317   5.399   2.607 -0.7472 -0.1300 -0.8901
13314TIP3    H161433   3.395   5.454   2.607 -1.0356  0.3251 -2.9177
13314TIP3    H261434   3.350   5.311   2.592 -0.2842 -0.5664  2.3626
13315TIP3   OH261435   7.156   5.808   0.765 -0.4343 -0.5294  0.6036
13315TIP3    H161436   7.075   5.828   0.718  0.5250  1.9550 -0.0669
13315TIP3    H261437   7.195   5.734   0.717  0.3051  1.6585 -2.2809
13316TIP3   OH261438   3.063   0.200   0.834 -0.2662 -0.1002 -0.3501
13316TIP3    H161439   3.063   0.143   0.757 -0.3203 -2.1297  1.1452
13316TIP3    H261440   3.071   0.288   0.797 -0.5985 -1.0093 -2.7046
13317TIP3   OH261441   5.719   6.386   0.224 -0.1515  0.0221 -0.2387
13317TIP3    H161442   5.773   6.334   0.165 -0.2767 -0.7709  0.3307
13317TIP3    H261443   5.729   6.343   0.309 -0.7668  0.5527  0.1021
13318TIP3   OH261444   5.582   4.431   1.896  0.6160 -0.8781 -0.0959
13318TIP3    H161445   5.513   4.457   1.958  0.2062 -1.2567 -0.3932
13318TIP3    H261446   5.573   4.336   1.889  0.8481 -0.8664 -0.5210
13319TIP3   OH261447   5.034   0.441  15.711  0.7507 -0.3137 -0.4357
13319TIP3    H161448   5.017   0.417  15.803  0.1183 -0.3566 -0.5567
13319TIP3    H261449   5.084   0.368  15.676 -1.8411 -1.8918 -1.0238
13320TIP3   OH261450   2.025   6.128   1.776 -0.3478  0.2180  0.2824
13320TIP3    H161451   2.034   6.140   1.681 -1.5903  0.1916  0.1589
13320TIP3    H261452   1.931   6.128   1.792 -0.1346  0.7372  1.5947
13321TIP3   OH261453   3.262   0.450   0.801  0.4334  0.5112  0.1331
13321TIP3    H161454   3.230   0.538   0.784  0.1024  0.4019  0.1926
13321TIP3    H261455   3.296   0.420   0.716 -2.2661 -0.4674 -0.6575
13322TIP3   OH261456   3.265   6.272   0.364  0.0516 -0.0713 -0.3548
13322TIP3    H161457   3.186   6.312   0.400 -0.4456 -0.2082 -1.2833
13322TIP3    H261458   3.283   6.197   0.421 -2.0886 -1.7063 -1.7806
13323TIP3   OH261459   3.615   0.052   3.423  0.4667 -0.0455  0.0299
13323TIP3    H161460   3.543   0.028   3.481  0.3414 -0.4045 -0.2738
13323TIP3    H261461   3.668  -0.027   3.415  0.7659  0.1496  0.0627
13324TIP3   OH261462   1.635   0.574   1.718  0.3991 -0.7309  0.1915
13324TIP3    H161463   1.576   0.643   1.690 -0.7518 -1.1092  1.6192
13324TIP3    H261464   1.626   0.506   1.652  0.0988 -0.3080 -0.2047
13325TIP3   OH261465   3.129   1.371   0.499 -0.1869  0.0465  0.0839
13325TIP3    H161466   3.045   1.407   0.470  0.4116  2.7461  1.5412
13325TIP3    H261467   3.194   1.433   0.467  1.2411 -1.7137 -0.5348
13326TIP3   OH261468   3.574   5.281   2.021  0.4505  0.0597 -0.2786
13326TIP3    H161469   3.622   5.325   2.092 -1.2043  2.0102 -0.3305
13326TIP3    H261470   3.562   5.349   1.955  0.2790 -1.2364 -1.6039
13327TIP3   OH261471   3.449   1.041  14.566  0.5327 -0.1818  0.4550
13327TIP3    H161472   3.511   1.075  14.631 -0.5496 -0.1168  1.4724
13327TIP3    H261473   3.383   1.111  14.557 -0.9101 -1.3815  1.4742
13328TIP3   OH261474   4.436   6.220   0.143 -0.4480  0.5301 -0.5927
13328TIP3    H161475   4.391   6.302   0.122 -1.0409  0.2338 -0.4964
13328TIP3    H261476   4.448   6.222   0.238  0.6400  1.0606 -0.7375
13329TIP3   OH261477   4.281   1.213  13.662  0.4515  0.3799  0.4940
13329TIP3    H161478   4.372   1.238  13.675  0.0016  1.7470  1.1428
13329TIP3    H261479   4.240   1.290  13.623  0.1042 -1.0904 -2.1130
13330TIP3   OH261480   5.010   0.267   0.399 -0.0981 -0.5074 -0.3738
13330TIP3    H161481   5.004   0.236   0.308 -0.4235 -1.2273 -0.1135
13330TIP3    H261482   4.936   0.327   0.408  0.0435 -0.2918 -0.6411
13331TIP3   OH261483   5.607   5.901   1.124 -0.1001  0.2331 -0.0110
13331TIP3    H161484   5.646   5.813   1.121 -0.2252  0.2107 -0.8350
13331TIP3    H261485   5.658   5.947   1.191  0.8879 -0.0253 -0.5809
13332TIP3   OH261486   6.193   6.113  14.431  0.9694  0.0646 -0.2671
13332TIP3    H161487   6.131   6.142  14.498  1.7496  2.3764 -0.5108
13332TIP3    H261488   6.241   6.041  14.473 -0.5266 -0.4447  0.6106
13333TIP3   OH261489   3.784   5.110  14.724 -0.3309  0.3337  0.3744
13333TIP3    H161490   3.750   5.191  14.761 -0.1761  1.2548 -1.4515
13333TIP3    H261491   3.732   5.041  14.765 -1.9393  1.4917  0.3330
13334TIP3   OH261492   2.755   0.077  15.695 -0.1030  0.1108  0.1139
13334TIP3    H161493   2.719   0.031  15.619 -0.2293  0.7578 -0.2224
13334TIP3    H261494   2.810   0.012  15.739  0.8147  0.0357 -1.1232
13335TIP3   OH261495   2.973   5.157   1.782  0.3598 -0.0609  0.2290
13335TIP3    H161496   2.879   5.155   1.765  0.6420  0.5136 -1.5237
13335TIP3    H261497   2.993   5.069   1.814 -0.7122 -0.3059  0.2572
13336TIP3   OH261498   2.171   7.077   0.630 -0.5439 -0.2761 -0.9117
13336TIP3    H161499   2.131   7.019   0.565 -0.6139 -1.1007 -0.1515
13336TIP3    H261500   2.113   7.071   0.706  0.6527 -0.9540 -0.0348
13337TIP3   OH261501   1.760   4.638   0.198  0.1498 -0.1638 -0.2536
13337TIP3    H161502   1.717   4.555   0.220  2.1041 -0.9792  0.5749
13337TIP3    H261503   1.696   4.705   0.224 -1.0353 -1.3691  0.0089
13338TIP3   OH261504   4.326   3.028   0.931  0.2038 -0.2250 -0.0815
13338TIP3    H161505   4.259   3.022   0.999  0.9072 -0.5659  0.5974
13338TIP3    H261506   4.282   3.000   0.851 -0.4112 -0.6084  0.3861
13339TIP3   OH261507   3.647   1.366   2.081  0.0328  0.4070 -0.3485
13339TIP3    H161508   3.741   1.349   2.093 -0.1899  0.4220  1.5634
13339TIP3    H261509   3.631   1.449   2.126 -1.1192 -0.1923  0.3692
13340TIP3   OH261510   3.222   1.824   0.422 -0.2728  0.1825  0.6115
13340TIP3    H161511   3.218   1.740   0.377  1.5417  0.1220  0.5172
13340TIP3    H261512   3.283   1.810   0.494  0.1784  1.4619  0.5024
13341TIP3   OH261513   2.542   6.089   0.982  0.0859  0.0454 -0.3099
13341TIP3    H161514   2.542   6.156   0.913 -0.6268 -0.4441 -0.7892
13341TIP3    H261515   2.539   6.139   1.064  2.5676  0.6685 -0.5789
13342TIP3   OH261516   2.633   0.372  14.992  0.1604 -0.3059  0.1901
13342TIP3    H161517   2.653   0.351  14.901  0.5027  0.9334 -0.0356
13342TIP3    H261518   2.549   0.330  15.009  0.0326 -0.4208 -0.7364
13343TIP3   OH261519   6.036   6.949   3.956 -0.5167 -0.1450  0.0597
13343TIP3    H161520   5.947   6.920   3.933 -1.5604  1.8851  1.3704
13343TIP3    H261521   6.023   7.035   3.996  1.9379 -0.3687  1.4120
13344TIP3   OH261522   6.953   6.810   1.653  0.7490 -0.1318  0.2056
13344TIP3    H161523   7.045   6.794   1.675  0.6108  2.2633  2.6997
13344TIP3    H261524   6.954   6.822   1.558  2.9735 -0.3853  0.1521
13345TIP3   OH261525   5.275   0.540   1.790 -0.0985 -0.0895 -0.1421
13345TIP3    H161526   5.186   0.525   1.822  0.4184 -1.4223  0.7148
13345TIP3    H261527   5.296   0.461   1.740  0.1058  0.8138 -1.5293
13346TIP3   OH261528   4.873   6.647  15.299  0.3232  0.8551  0.4290
13346TIP3    H161529   4.870   6.742  15.308 -1.2145  0.7427  1.3708
13346TIP3    H261530   4.807   6.615  15.360 -2.4064 -0.5979 -3.0907
13347TIP3   OH261531   5.975   6.159   4.778 -0.0842  0.2278 -0.6894
13347TIP3    H161532   5.945   6.247   4.799  1.0617  0.2867  0.7869
13347TIP3    H261533   5.903   6.102   4.806  0.3286  0.5095  1.0100
13348TIP3   OH261534   4.457   5.934  15.206 -0.3896 -0.2480  0.2996
13348TIP3    H161535   4.449   6.024  15.239 -0.2358 -0.2868  0.4425
13348TIP3    H261536   4.378   5.920  15.155 -0.2966  0.0590  0.0703
13349TIP3   OH261537   1.244   6.109   3.417 -0.2799 -0.0625  0.0769
13349TIP3    H161538   1.285   6.188   3.383  1.3285 -0.8354  0.1926
13349TIP3    H261539   1.188   6.140   3.488  0.4922  0.9506  0.2491
13350TIP3   OH261540   2.844   7.028   1.010 -0.2682  0.1329 -0.1749
13350TIP3    H161541   2.934   6.998   1.025 -0.5118 -0.1408  0.7582
13350TIP3    H261542   2.836   7.032   0.915 -0.1347 -2.4668 -0.3249
13351TIP3   OH261543   3.845   0.059   2.059 -0.3800 -0.2059  0.2709
13351TIP3    H161544   3.800   0.074   1.976  0.5618 -2.0304 -0.6131
13351TIP3    H261545   3.778   0.021   2.117 -1.0375  1.0729  0.3679
13352TIP3   OH261546   2.800   6.739   0.562 -0.2224  0.5763 -0.1660
13352TIP3    H161547   2.854   6.677   0.513 -1.4912 -0.6916  0.0017
13352TIP3    H261548   2.799   6.705   0.652 -2.8654 -0.5355 -0.5681
13353TIP3   OH261549   3.570   0.030  13.224 -0.4162  0.2998  0.4244
13353TIP3    H161550   3.619  -0.030  13.168 -0.5800  1.6306 -1.1918
13353TIP3    H261551   3.600   0.011  13.313  0.8905 -0.8684 -0.2512
13354TIP3   OH261552   5.282   6.194   2.271  0.3915 -0.4396 -0.1762
13354TIP3    H161553   5.338   6.136   2.219  1.9203 -0.4164  1.3802
13354TIP3    H261554   5.219   6.228   2.209  2.9454  0.6148 -2.3082
13355TIP3   OH261555   5.344   0.809   3.308 -0.3651  0.1734 -0.3876
13355TIP3    H161556   5.254   0.839   3.295 -0.2207  0.6368 -0.3555
13355TIP3    H261557   5.336   0.725   3.352 -0.8114 -0.5169 -1.7669
13356TIP3   OH261558   4.829   6.419   0.238  0.7595  0.3705  0.1097
13356TIP3    H161559   4.882   6.482   0.190  0.3738 -0.8237 -1.9598
13356TIP3    H261560   4.765   6.387   0.174 -2.1405  1.3523  2.3775
13357TIP3   OH261561   5.513   5.953   2.158 -0.3243 -0.3908 -0.0032
13357TIP3    H161562   5.577   5.999   2.211 -2.5435  0.3400  2.1459
13357TIP3    H261563   5.532   5.979   2.068  1.2206  1.2365  0.7796
13358TIP3   OH261564   3.443   6.340   0.133 -0.5906  0.2404  0.5134
13358TIP3    H161565   3.375   6.323   0.197 -1.2570 -0.8681 -0.4560
13358TIP3    H261566   3.504   6.266   0.143 -0.5207  0.2403  0.1170
13359TIP3   OH261567   5.390   6.628   2.856  0.0638 -0.1787 -0.3320
13359TIP3    H161568   5.389   6.689   2.929 -0.6855 -0.3830 -0.1726
13359TIP3    H261569   5.309   6.577   2.865  1.8619 -2.9279  0.9908
13360TIP3   OH261570   4.577   7.302   4.039 -0.0824  0.1958 -0.2067
13360TIP3    H161571   4.495   7.319   4.085 -0.0151  1.3860 -0.5069
13360TIP3    H261572   4.585   7.374   3.977  1.2085  0.0975 -0.1622
13361TIP3   OH261573   4.358   6.506   2.233  0.1356 -0.0922  0.5806
13361TIP3    H161574   4.445   6.525   2.270  1.5842  0.9449 -3.0973
13361TIP3    H261575   4.369   6.423   2.187 -0.7479  0.1534 -0.0913
13362TIP3   OH261576   5.023   0.855   2.561  0.1947 -0.4833  0.3910
13362TIP3    H161577   5.024   0.762   2.538 -0.8805  0.1874 -2.4640
13362TIP3    H261578   4.940   0.867   2.607 -0.1991 -0.6759 -0.2766
13363TIP3   OH261579   4.291   0.770   2.011 -0.4214 -0.0777 -0.2046
13363TIP3    H161580   4.256   0.775   1.922  0.5015  1.4950 -0.4894
13363TIP3    H261581   4.240   0.700   2.053 -0.3087 -1.3881 -2.2057
13364TIP3   OH261582   4.126   6.277   1.549  0.4856  0.1037 -0.3249
13364TIP3    H161583   4.118   6.371   1.537  0.7286 -0.1688 -3.0382
13364TIP3    H261584   4.100   6.261   1.639 -2.3744  2.4353 -0.6881
13365TIP3   OH261585   4.444   4.376   0.747 -0.2802  0.0824 -0.3296
13365TIP3    H161586   4.446   4.288   0.786 -1.3818  0.5778  0.8941
13365TIP3    H261587   4.362   4.414   0.779  0.1996  1.5583 -0.8380
13366TIP3   OH261588   3.682   6.473   2.083  0.2955 -0.3004 -0.1385
13366TIP3    H161589   3.694   6.564   2.112 -2.1221  0.1393 -0.4364
13366TIP3    H261590   3.643   6.429   2.159  1.5517 -1.1211  0.0372
13367TIP3   OH261591   5.528   7.254   0.738  0.1630 -0.0576 -0.5584
13367TIP3    H161592   5.503   7.332   0.787 -1.5804 -0.3982 -0.8589
13367TIP3    H261593   5.446   7.221   0.701  1.1837 -0.8451 -2.1963
13368TIP3   OH261594   5.117   0.062   0.561 -0.3813 -0.0280  0.1650
13368TIP3    H161595   5.209   0.083   0.579 -0.1836 -1.0921  0.4186
13368TIP3    H261596   5.083   0.140   0.516 -0.0270  1.3630  2.2303
13369TIP3   OH261597   5.775   4.813   1.257  0.5570 -0.3597 -0.2197
13369TIP3    H161598   5.836   4.808   1.183  0.7405  0.5696 -0.1373
13369TIP3    H261599   5.827   4.850   1.328  0.1608 -0.5045  0.1465
13370TIP3   OH261600   5.962   0.057   1.938 -0.4417 -0.1027  1.0610
13370TIP3    H161601   6.032   0.023   1.993  0.1104  0.1795  0.5394
13370TIP3    H261602   6.003   0.073   1.853 -1.0781  0.2906  0.8177
13371TIP3   OH261603   3.962   7.174   1.885  0.2762 -0.3211 -0.3748
13371TIP3    H161604   3.940   7.223   1.964  1.9199 -3.2765  1.9860
13371TIP3    H261605   4.052   7.198   1.866  0.1485 -0.2548 -0.9247
13372TIP3   OH261606   3.939   6.442   0.338 -0.0850 -0.2592  0.3157
13372TIP3    H161607   3.871   6.448   0.405 -0.5404 -1.4033 -0.0522
13372TIP3    H261608   3.958   6.349   0.330  0.7071 -0.0448 -0.4143
13373TIP3   OH261609   7.040   4.238   2.589 -0.0674  0.0473  0.1510
13373TIP3    H161610   6.996   4.155   2.603  0.6936 -0.3270  0.3158
13373TIP3    H261611   6.969   4.300   2.570 -0.6803 -0.4965  0.6672
13374TIP3   OH261612   3.485   5.811   0.203  0.3827  0.4429 -0.1783
13374TIP3    H161613   3.448   5.731   0.242 -0.5444  0.5614 -0.8064
13374TIP3    H261614   3.409   5.865   0.183  0.9632  1.1117 -0.5722
13375TIP3   OH261615   5.567   7.125   3.219 -0.2635  0.3229  0.0896
13375TIP3    H161616   5.610   7.210   3.212 -0.8388  0.5935 -0.2227
13375TIP3    H261617   5.603   7.086   3.299  0.4127  0.6230 -0.0710
13376TIP3   OH261618   7.152   5.049  15.918  0.9603 -0.1949 -0.1339
13376TIP3    H161619   7.153   4.956  15.893 -1.2157 -0.1942 -0.2912
13376TIP3    H261620   7.100   5.092  15.850  0.6435  0.8851  0.7770
13377TIP3   OH261621   5.362   5.028   0.238 -0.1323  0.0957  0.0365
13377TIP3    H161622   5.392   4.946   0.198  1.6089  0.7987 -0.1575
13377TIP3    H261623   5.403   5.096   0.184  1.5924  1.0750  2.5381
13378TIP3   OH261624   4.322   4.362  15.918  0.4758  0.2507  0.3139
13378TIP3    H161625   4.233   4.348  15.951  0.7543 -2.8099 -0.1292
13378TIP3    H261626   4.312   4.426  15.848 -1.2011  0.8044  1.0295
13379TIP3   OH261627   4.718   5.483   0.036 -0.0575  0.7379 -0.2968
13379TIP3    H161628   4.700   5.535  -0.043  0.1082  0.1621 -0.7177
13379TIP3    H261629   4.789   5.530   0.080 -0.2047  1.1066 -0.4500
13380TIP3   OH261630   4.592   0.036   1.428 -0.1738  0.0716  0.9115
13380TIP3    H161631   4.646   0.089   1.371 -1.1176  0.9791  0.8428
13380TIP3    H261632   4.528  -0.005   1.370 -0.0271 -0.4100  1.0852
13381TIP3   OH261633   5.233   0.972   4.426 -0.5168 -0.0061  0.1170
13381TIP3    H161634   5.296   0.940   4.363 -1.1770 -1.6904  0.2770
13381TIP3    H261635   5.260   0.933   4.510  0.7961  2.8069  1.0346
13382TIP3   OH261636   4.372   5.957   1.530  0.1103 -0.3519  0.1619
13382TIP3    H161637   4.336   5.980   1.616  0.4516  0.2988  0.1285
13382TIP3    H261638   4.370   6.039   1.480  0.4716 -0.5975 -0.2567
13383TIP3   OH261639   4.921   6.513   1.625  0.3715  0.3247 -0.3522
13383TIP3    H161640   4.993   6.549   1.678  1.5826 -0.7620 -1.2531
13383TIP3    H261641   4.909   6.577   1.555  0.1464  0.7175  0.0331
13384TIP3   OH261642   4.326   0.926  15.796  0.6981  0.1592 -0.0941
13384TIP3    H161643   4.404   0.898  15.843  0.7117 -2.4908 -1.6052
13384TIP3    H261644   4.338   0.893  15.707 -1.5659  0.7680 -0.6741
13385TIP3   OH261645   4.954   6.298   4.483 -0.2934 -0.1879  0.0342
13385TIP3    H161646   4.890   6.369   4.478  1.8226  1.7233 -0.1698
13385TIP3    H261647   4.911   6.232   4.539 -0.5743  3.0962  3.9407
13386TIP3   OH261648   6.222   4.754   1.855  0.8229 -0.2883 -0.5841
13386TIP3    H161649   6.237   4.678   1.911 -1.0827 -1.7346 -1.9894
13386TIP3    H261650   6.295   4.813   1.875  0.5247 -0.9859  3.0010
13387TIP3   OH261651   1.684   6.451  15.726  0.2590 -0.2474  0.2269
13387TIP3    H161652   1.726   6.368  15.749  1.9627  0.0773 -1.5655
13387TIP3    H261653   1.618   6.427  15.661  0.4847 -0.2487 -0.0014
13388TIP3   OH261654   4.307   4.700   1.445  0.8725  0.0364 -0.1573
13388TIP3    H161655   4.308   4.604   1.444  1.0936  0.0452 -0.8527
13388TIP3    H261656   4.325   4.725   1.354  0.4300  0.7300 -0.0560
13389TIP3   OH261657   0.201   5.524  15.500  0.4387 -0.4375  0.5748
13389TIP3    H161658   0.121   5.567  15.531 -0.9316 -1.5620 -1.3011
13389TIP3    H261659   0.244   5.590  15.446  0.0727 -0.2778  0.4750
13390TIP3   OH261660   4.823   2.381  15.699 -0.1304 -0.2864  0.2177
13390TIP3    H161661   4.791   2.290  15.696 -0.4278 -0.2312  1.2676
13390TIP3    H261662   4.762   2.425  15.759  0.1066  0.5715 -0.1636
13391TIP3   OH261663   2.866   3.247   3.924 -0.0162 -0.3327  0.5385
13391TIP3    H161664   2.821   3.331   3.928  0.2851 -0.2091  1.5175
13391TIP3    H261665   2.822   3.199   3.854  0.3168  0.9316 -0.5663
13392TIP3   OH261666   4.180   6.590   0.552 -0.5162 -0.0684  0.4458
13392TIP3    H161667   4.114   6.617   0.616 -1.2472 -1.2385  0.1900
13392TIP3    H261668   4.208   6.672   0.511 -1.3830  0.4981  0.9757
13393TIP3   OH261669   3.673   0.773   2.278 -0.4735  0.2891 -0.4226
13393TIP3    H161670   3.712   0.773   2.191 -1.0459 -0.7025 -0.6891
13393TIP3    H261671   3.731   0.719   2.331 -0.4164  0.4452 -0.3270
13394TIP3   OH261672   5.147   6.753   0.909  0.8679  0.2652  0.2419
13394TIP3    H161673   5.233   6.746   0.867  0.1545  1.6995 -1.5073
13394TIP3    H261674   5.106   6.668   0.892  0.0350  1.2677 -3.3336
13395TIP3   OH261675   6.548   5.850   1.707 -0.0728 -0.0291 -0.0411
13395TIP3    H161676   6.465   5.826   1.665 -0.8950  0.7601  1.1102
13395TIP3    H261677   6.523   5.883   1.793  1.4598  0.0333  0.3958
13396TIP3   OH261678   4.748   6.389   1.179  0.1225 -0.2678  0.0048
13396TIP3    H161679   4.749   6.434   1.094  0.2451  0.9887  0.6639
13396TIP3    H261680   4.692   6.313   1.165 -1.7317  1.1654 -0.5886
13397TIP3   OH261681   4.928   7.328   4.015 -0.3332 -0.3696 -0.0019
13397TIP3    H161682   4.980   7.260   4.058  3.2184  2.3682  0.2790
13397TIP3    H261683   4.876   7.366   4.086 -1.1973 -1.7525  0.1215
13398TIP3   OH261684   1.290   0.354   1.081 -0.1879 -0.1898 -0.5017
13398TIP3    H161685   1.269   0.442   1.050 -2.1194 -0.6834 -0.6411
13398TIP3    H261686   1.241   0.295   1.023  2.2049 -1.4319 -1.3203
13399TIP3   OH261687   5.836   5.920   2.454  0.1651 -0.2219  0.1315
13399TIP3    H161688   5.757   5.875   2.483  0.2249 -0.2364  0.2761
13399TIP3    H261689   5.848   5.990   2.518  2.1530 -2.2658  2.1180
13400TIP3   OH261690   5.622   6.299   0.557 -0.1293 -0.0311 -0.3992
13400TIP3    H161691   5.650   6.207   0.559 -0.3120 -0.0983  3.2653
13400TIP3    H261692   5.528   6.295   0.540 -0.7122 -0.7950  2.5862
13401TIP3   OH261693   6.577   5.489   4.611 -0.4617 -0.0573  0.4214
13401TIP3    H161694   6.647   5.502   4.547  1.8750  0.4350  2.9890
13401TIP3    H261695   6.581   5.396   4.633 -1.0117 -0.1510  0.1242
13402TIP3   OH261696   2.421   1.413  14.782 -0.1838 -0.8383  0.1826
13402TIP3    H161697   2.401   1.368  14.864 -0.7401 -0.0599  0.4799
13402TIP3    H261698   2.402   1.349  14.714  0.2762 -1.4878  0.6569
13403TIP3   OH261699   3.761   6.462   0.525 -0.1662 -0.2451 -0.0088
13403TIP3    H161700   3.789   6.536   0.578  1.6069 -2.0224  1.6186
13403TIP3    H261701   3.667   6.475   0.512 -0.4430  0.6975  2.7600
13404TIP3   OH261702   3.857   5.383  15.786  0.1515  0.1777  0.3682
13404TIP3    H161703   3.932   5.357  15.732 -0.5562 -2.1128  0.4099
13404TIP3    H261704   3.896   5.410  15.870  1.0610  1.1020 -0.3403
13405TIP3   OH261705   3.713   5.508   0.562 -0.5227  0.2422  0.7744
13405TIP3    H161706   3.777   5.519   0.633  0.0263  0.9958  0.1701
13405TIP3    H261707   3.675   5.595   0.551 -2.4882 -0.4544  1.9053
13406TIP3   OH261708   4.890   6.938   1.848 -0.6841  0.5546 -0.2579
13406TIP3    H161709   4.892   6.973   1.937 -1.0437  0.5229 -0.2351
13406TIP3    H261710   4.840   6.857   1.855 -1.6234  1.0844 -0.6645
13407TIP3   OH261711   3.865   0.426   2.231  0.1075 -0.1508  0.3538
13407TIP3    H161712   3.799   0.438   2.162 -0.2885 -0.7785  0.6125
13407TIP3    H261713   3.905   0.342   2.211  1.9053  0.9349 -0.6726
13408TIP3   OH261714   6.069   6.777   2.725  0.1828 -0.5467  0.1525
13408TIP3    H161715   6.095   6.828   2.802 -0.0704 -1.8988  1.1422
13408TIP3    H261716   6.000   6.830   2.684 -0.4774 -0.3551  1.4813
13409TIP3   OH261717   6.056   7.074   1.206 -0.1292 -0.0656  0.0374
13409TIP3    H161718   5.982   7.123   1.241 -1.2949 -2.3941  0.9811
13409TIP3    H261719   6.071   7.112   1.120 -1.4437  1.4400  0.4365
13410TIP3   OH261720   0.680   5.528   1.900  0.2412 -0.5301 -0.1526
13410TIP3    H161721   0.664   5.435   1.881 -1.4153 -0.0999 -0.9561
13410TIP3    H261722   0.731   5.559   1.825  0.8502 -0.7959  0.1469
13411TIP3   OH261723   6.017   6.642   0.898  0.2619  0.3948 -0.0709
13411TIP3    H161724   6.031   6.559   0.853 -0.2479  0.6988 -0.8078
13411TIP3    H261725   6.104   6.681   0.903  0.4348  0.0266 -0.1470
13412TIP3   OH261726   5.777   0.035  15.711 -0.3721  0.4739 -0.6244
13412TIP3    H161727   5.812   0.121  15.687  0.4144 -0.1407 -1.6978
13412TIP3    H261728   5.703   0.055  15.768  0.0202  1.8589 -0.5684
13413TIP3   OH261729   4.502   6.742   1.080 -0.1486 -0.1003 -1.2461
13413TIP3    H161730   4.491   6.799   1.156 -1.6505 -1.3260 -0.5086
13413TIP3    H261731   4.417   6.744   1.036  0.1499 -0.8135 -1.8632
13414TIP3   OH261732   3.873   6.627   1.152 -1.1074 -0.3397  0.0345
13414TIP3    H161733   3.958   6.590   1.176  0.5704  1.7418 -2.4526
13414TIP3    H261734   3.830   6.557   1.103  0.5909 -0.2949 -1.5982
13415TIP3   OH261735   3.859   3.365  15.385  0.1495 -0.5907  0.3977
13415TIP3    H161736   3.783   3.406  15.426  0.4797 -0.0641  0.4819
13415TIP3    H261737   3.932   3.384  15.445  0.9900  1.6626 -1.2602
13416TIP3   OH261738   5.257   3.111  14.547  0.1852  0.0673 -0.5922
13416TIP3    H161739   5.165   3.116  14.522  0.1225  1.8656 -0.0210
13416TIP3    H261740   5.255   3.085  14.639  0.2987 -1.0675 -0.8963
13417TIP3   OH261741   7.079   6.293   1.766  0.3666 -0.0237 -0.6103
13417TIP3    H161742   6.984   6.296   1.763  0.4495  2.1924 -1.6165
13417TIP3    H261743   7.100   6.269   1.856 -1.1599 -3.9235 -1.1851
13418TIP3   OH261744   3.767   4.511  14.564  0.2277 -0.4252 -0.4600
13418TIP3    H161745   3.724   4.471  14.640 -0.4983  0.1882 -0.5438
13418TIP3    H261746   3.854   4.535  14.597 -1.2430  2.9491  1.2098
13419TIP3   OH261747   0.530   0.455   1.119 -0.4709  0.4487  0.1040
13419TIP3    H161748   0.620   0.464   1.087 -0.8152  1.3331 -0.6582
13419TIP3    H261749   0.506   0.544   1.144 -0.8558  0.0709  1.0675
13420TIP3   OH261750   5.969   5.397  15.919  0.0303 -0.4650  0.3504
13420TIP3    H161751   6.042   5.393  15.857  0.8919 -0.9105  1.3680
13420TIP3    H261752   5.947   5.305  15.936  0.0869 -0.3638  1.0144
13421TIP3   OH261753   4.160   0.706   1.764 -0.0245  0.1459  0.8303
13421TIP3    H161754   4.213   0.653   1.705  1.7914  1.3539  1.3316
13421TIP3    H261755   4.134   0.646   1.834  1.7573 -0.1730  1.2436
13422TIP3   OH261756   5.292   5.646   1.558 -0.1759 -0.3489  0.4996
13422TIP3    H161757   5.205   5.606   1.549 -1.8166  3.2436 -0.4240
13422TIP3    H261758   5.299   5.667   1.651 -0.5056 -0.2231  0.4970
13423TIP3   OH261759   6.097   4.711   1.467 -0.1204 -0.2859 -0.3498
13423TIP3    H161760   6.090   4.779   1.534  1.1420 -1.2602  0.8193
13423TIP3    H261761   6.168   4.740   1.410  0.2288 -0.4834 -0.0167
13424TIP3   OH261762   4.711   0.455   1.499 -0.3160  0.0894  0.2986
13424TIP3    H161763   4.765   0.517   1.450 -0.7869  1.0679  0.9938
13424TIP3    H261764   4.763   0.434   1.576 -0.6430  0.5334  0.6459
13425TIP3   OH261765   1.725   7.071   2.982  0.5411  0.4741 -0.4186
13425TIP3    H161766   1.742   6.987   3.024  1.6747  1.2956  0.8011
13425TIP3    H261767   1.737   7.136   3.051 -3.0473  1.4797 -0.6612
13426TIP3   OH261768   0.745   4.435   1.130  0.7595 -0.1101  0.1598
13426TIP3    H161769   0.668   4.491   1.124  0.5280 -0.2249  1.8243
13426TIP3    H261770   0.819   4.495   1.136  0.5360  0.0245  1.6576
13427TIP3   OH261771   5.149   6.803   1.192  0.2147  0.1733  0.4647
13427TIP3    H161772   5.092   6.730   1.217 -0.6464  1.3043  1.9070
13427TIP3    H261773   5.126   6.821   1.101 -2.0752  0.8952  1.1585
13428TIP3   OH261774   3.702   3.067   1.193  0.2445 -0.0808  0.6163
13428TIP3    H161775   3.766   3.020   1.139 -1.2939 -1.2640 -0.1807
13428TIP3    H261776   3.718   3.159   1.173  0.2628 -0.4670 -1.2059
13429TIP3   OH261777   5.302   6.076   1.793 -0.0137 -0.0301  0.2538
13429TIP3    H161778   5.228   6.052   1.850 -0.2176  0.0668  0.0297
13429TIP3    H261779   5.261   6.100   1.710  0.3040 -0.4171 -0.0146
13430TIP3   OH261780   1.369   5.764   2.537  0.6614  0.4748 -0.4896
13430TIP3    H161781   1.282   5.750   2.575  0.9772  2.3219  1.0251
13430TIP3    H261782   1.426   5.703   2.585  0.5707  0.8003  0.0362
13431TIP3   OH261783   0.314   4.592  15.996  0.8539 -0.2751  0.3845
13431TIP3    H161784   0.272   4.669  15.957  0.8935 -0.9158 -0.9649
13431TIP3    H261785   0.311   4.608  16.090 -2.3014 -0.2548  0.3408
13432TIP3   OH261786   6.483   0.124  15.122  0.1399 -0.1209 -0.5983
13432TIP3    H161787   6.486   0.220  15.118 -0.0086 -0.1129 -0.5220
13432TIP3    H261788   6.397   0.101  15.087  0.7317 -0.3025 -1.9439
13433TIP3   OH261789   6.891   7.104   3.121 -0.1921 -0.1710 -0.0626
13433TIP3    H161790   6.801   7.107   3.152 -0.0513 -1.3669  0.5098
13433TIP3    H261791   6.883   7.097   3.025 -0.7022 -0.2171 -0.0183
13434TIP3   OH261792   5.695   6.336   1.547 -0.0421  0.1577  0.0267
13434TIP3    H161793   5.786   6.315   1.527  0.2840  1.3471  0.2043
13434TIP3    H261794   5.646   6.315   1.467  0.2860 -1.0667  0.1406
13435TIP3   OH261795   5.841   7.098   1.799 -0.3927  0.3039  0.0733
13435TIP3    H161796   5.920   7.063   1.758 -1.1984 -1.2488 -0.2097
13435TIP3    H261797   5.810   7.027   1.855 -0.3024  1.7457  2.0051
13436TIP3   OH261798   4.192   5.883  15.121 -0.3777  0.2476 -0.3317
13436TIP3    H161799   4.113   5.873  15.069 -1.4577 -0.7415  1.4726
13436TIP3    H261800   4.206   5.798  15.162  0.6382  0.9136  0.7519
13437TIP3   OH261801   6.655   5.346   2.322 -0.4150  0.1280 -0.1897
13437TIP3    H161802   6.737   5.341   2.273  0.7520 -0.7745  1.7882
13437TIP3    H261803   6.591   5.377   2.258  1.5506  1.2951 -1.6628
13438TIP3   OH261804   6.380   0.078   1.504 -0.9340  0.0742  0.3222
13438TIP3    H161805   6.337   0.088   1.419 -0.8626 -0.9884  0.1535
13438TIP3    H261806   6.372  -0.015   1.525  1.8407 -0.2930 -0.0155
13439TIP3   OH261807   4.458   5.085   1.214 -0.5017  0.4018  0.7402
13439TIP3    H161808   4.379   5.117   1.258 -0.9603  0.9134 -0.4549
13439TIP3    H261809   4.429   5.057   1.128  0.4295 -0.4756  0.6970
13440TIP3   OH261810   4.258   5.099   1.542  0.7102  0.4080  0.2101
13440TIP3    H161811   4.246   5.062   1.630 -0.7785  0.8251  0.2029
13440TIP3    H261812   4.204   5.045   1.486  0.2434  1.2406 -0.1571
13441TIP3   OH261813   0.169   4.519  14.558 -0.0576 -0.2593  0.4502
13441TIP3    H161814   0.205   4.507  14.646 -1.1561 -2.0651  0.6952
13441TIP3    H261815   0.078   4.545  14.573  0.1520  0.8325 -0.1527
13442TIP3   OH261816   5.913   7.241   1.486  0.4855  0.0378  0.0578
13442TIP3    H161817   5.953   7.279   1.564 -1.8921 -0.2692  1.4802
13442TIP3    H261818   5.872   7.160   1.516  0.4076 -0.6136 -1.7259
13443TIP3   OH261819   4.659   0.813   1.445  0.5189  0.7510  0.3545
13443TIP3    H161820   4.702   0.746   1.392  0.4060  1.2218 -0.3371
13443TIP3    H261821   4.580   0.836   1.395  0.7285  1.6371  0.4155
13444TIP3   OH261822   5.626   3.608  13.810 -0.2301  0.1409  0.2029
13444TIP3    H161823   5.700   3.577  13.759 -1.9806  0.3110 -2.5050
13444TIP3    H261824   5.563   3.536  13.809  0.4056 -0.5509  3.6831
13445TIP3   OH261825   4.624   6.931   4.285 -0.4225 -0.4222  0.0250
13445TIP3    H161826   4.546   6.876   4.293 -0.3206 -0.4396  1.0429
13445TIP3    H261827   4.627   6.957   4.193 -1.5146 -0.5945 -0.0620
13446TIP3   OH261828   4.300   6.739   1.439  0.9764 -0.3905  0.0391
13446TIP3    H161829   4.370   6.685   1.475  1.4814  0.4436  0.3057
13446TIP3    H261830   4.345   6.805   1.385  0.5004  0.9767  1.2798
13447TIP3   OH261831   3.712   0.546   1.274 -0.0854 -0.6682  0.1414
13447TIP3    H161832   3.621   0.525   1.253 -0.6251  1.9940 -0.4048
13447TIP3    H261833   3.724   0.516   1.364 -2.1104  0.6476  0.8800
13448TIP3   OH261834   4.221   6.515  15.986 -0.3592  0.0173 -0.2062
13448TIP3    H161835   4.248   6.512  16.077  1.4462  3.7180 -0.5560
13448TIP3    H261836   4.134   6.554  15.987 -0.0975  0.6038 -0.0893
13449TIP3   OH261837   6.376   4.243   0.620 -0.2867  0.3169  0.2551
13449TIP3    H161838   6.350   4.223   0.531 -0.8417  0.1642  0.4529
13449TIP3    H261839   6.472   4.244   0.617 -0.3090  1.2156 -0.5393
13450TIP3   OH261840   4.777   7.226   1.266 -0.3132 -0.4215  0.6481
13450TIP3    H161841   4.749   7.209   1.356 -1.6290  1.5804  0.6625
13450TIP3    H261842   4.696   7.247   1.220  0.5536  0.1969 -0.6229
13451TIP3   OH261843   6.731   0.873   1.163 -0.1552  0.7274 -0.0656
13451TIP3    H161844   6.724   0.786   1.123 -0.5925  0.7390 -0.0158
13451TIP3    H261845   6.802   0.916   1.115  0.9712 -0.1388  0.7962
13452TIP3   OH261846   5.992   1.256   1.545 -0.5640  0.5078  0.6191
13452TIP3    H161847   5.999   1.272   1.451  0.9647  0.0545  0.6460
13452TIP3    H261848   6.022   1.337   1.586 -1.4944  0.8074  0.7301
13453TIP3   OH261849   6.203   2.564   1.764  0.2859  0.0545 -0.3770
13453TIP3    H161850   6.166   2.476   1.767 -1.3497  0.7678  1.3085
13453TIP3    H261851   6.127   2.622   1.754  1.2301  1.3539 -0.1801
13454TIP3   OH261852   6.252   6.176   1.279 -0.3347 -0.0102 -0.2756
13454TIP3    H161853   6.283   6.088   1.300 -2.6209 -0.4261  1.5085
13454TIP3    H261854   6.293   6.232   1.346 -3.2122 -0.5429  2.0091
13455TIP3   OH261855   7.246   6.151   1.595 -0.3979  0.2148 -0.0750
13455TIP3    H161856   7.180   6.189   1.654 -0.2298 -0.5412  0.6130
13455TIP3    H261857   7.214   6.062   1.577  0.8633 -0.4651  0.9593
13456TIP3   OH261858   6.846   5.504   2.495 -0.0492 -0.6643 -0.2712
13456TIP3    H161859   6.793   5.453   2.434  1.1544  0.1045 -2.0029
13456TIP3    H261860   6.936   5.492   2.465  0.4081  1.2190  0.2383
13457TIP3   OH261861   7.193   0.392   1.981  0.5778 -0.2153 -0.0071
13457TIP3    H161862   7.219   0.483   1.967 -1.7557  0.3397 -0.8962
13457TIP3    H261863   7.169   0.388   2.073  1.5751 -0.1866  0.2653
13458TIP3   OH261864   5.091   5.431  14.381 -0.1745  0.4933  0.1157
13458TIP3    H161865   5.101   5.492  14.307  0.7481 -1.0737 -1.0873
13458TIP3    H261866   5.051   5.354  14.342  0.8488 -0.5713  1.1352
13459TIP3   OH261867   6.758   6.041  15.837  0.6935 -0.2157 -0.8334
13459TIP3    H161868   6.755   5.997  15.753  0.7421 -0.6435 -0.6125
13459TIP3    H261869   6.767   5.970  15.901  0.7652  0.1129 -0.4791
13460TIP3   OH261870   6.877   5.065  14.489  0.5374 -0.1784  0.0469
13460TIP3    H161871   6.789   5.056  14.526  0.0286  3.0297 -0.2716
13460TIP3    H261872   6.863   5.105  14.403  2.3011  0.5065  0.0645
13461TIP3   OH261873   6.903   6.836   1.279  0.5700 -0.4918  0.0518
13461TIP3    H161874   6.942   6.754   1.310  1.4347 -0.0775  0.0827
13461TIP3    H261875   6.920   6.836   1.184  0.1018 -0.6009 -0.0316
13462TIP3   OH261876   6.542   4.231   0.287 -0.1084  0.3439 -0.0873
13462TIP3    H161877   6.521   4.322   0.304 -0.2166  0.0708  1.3177
13462TIP3    H261878   6.493   4.182   0.353 -0.8179 -0.7975 -1.4212
13463TIP3   OH261879   6.757   5.986   0.228  0.3015  0.4747 -0.0762
13463TIP3    H161880   6.719   6.001   0.314 -1.0064  0.7702 -0.6802
13463TIP3    H261881   6.844   6.026   0.232  0.8173 -0.8118  1.5516
13464TIP3   OH261882   4.446   0.819   1.270 -0.1088  0.1782 -0.3951
13464TIP3    H161883   4.361   0.824   1.314 -0.8124 -0.2061 -1.6710
13464TIP3    H261884   4.453   0.727   1.245  0.8304  0.1503 -0.0344
13465TIP3   OH261885   6.242   4.804   0.128  0.2779  0.3883 -0.2219
13465TIP3    H161886   6.286   4.782   0.211 -1.3254 -0.0727  0.5159
13465TIP3    H261887   6.291   4.755   0.062  1.3349  0.4578  0.4878
13466TIP3   OH261888   4.661   0.148   1.997 -0.5396  0.3971  0.2167
13466TIP3    H161889   4.725   0.089   1.957 -0.3464  0.7426  0.0196
13466TIP3    H261890   4.609   0.091   2.055 -0.3340  0.0397  0.0505
13467TIP3   OH261891   0.138   6.125   0.594 -0.1855 -0.2161  0.1814
13467TIP3    H161892   0.091   6.171   0.524 -1.2151 -2.3896 -0.5963
13467TIP3    H261893   0.187   6.056   0.549  0.0700 -0.8923  1.4799
13468TIP3   OH261894   5.283   5.775  15.390 -0.5461 -0.3773 -0.1778
13468TIP3    H161895   5.252   5.852  15.342 -1.9414 -0.8166  0.0003
13468TIP3    H261896   5.375   5.795  15.411 -0.8191  1.1108 -0.3652
13469TIP3   OH261897   5.116   1.011   1.373  0.4832  0.7459 -0.0136
13469TIP3    H161898   5.066   0.983   1.296 -1.1100 -1.6965  1.8343
13469TIP3    H261899   5.063   1.080   1.412  1.6572  2.5155 -1.4595
13470TIP3   OH261900   3.276   4.669   0.708  0.1347  0.7034 -0.4422
13470TIP3    H161901   3.232   4.718   0.639  1.2252  2.0620 -0.1991
13470TIP3    H261902   3.273   4.578   0.679 -0.1649  1.1631 -1.8683
13471TIP3   OH261903   5.215   4.294   0.130  0.5273  0.1431 -0.1214
13471TIP3    H161904   5.275   4.276   0.057  1.8362  1.9872  0.4508
13471TIP3    H261905   5.263   4.356   0.185 -1.1631  0.1550  1.3770
13472TIP3   OH261906   7.136   5.245  14.389  0.5545 -0.1828  0.4034
13472TIP3    H161907   7.175   5.216  14.471 -1.0298  0.0696  1.2494
13472TIP3    H261908   7.129   5.166  14.336  3.2896 -0.0626 -0.2435
13473TIP3   OH261909   6.078   0.160  14.796 -0.4078  0.7200  0.2743
13473TIP3    H161910   6.094   0.073  14.759 -0.1757  0.6567  0.5246
13473TIP3    H261911   6.065   0.216  14.719  1.1437  0.7995  0.0454
13474TIP3   OH261912   5.787   0.501  13.952  0.3295 -0.4943  0.1351
13474TIP3    H161913   5.875   0.507  13.914  0.8586 -1.1946  1.2472
13474TIP3    H261914   5.795   0.436  14.021 -1.1141 -0.6865  0.1214
13475TIP3   OH261915   6.663   7.079   2.591  0.1882 -0.0490 -0.2602
13475TIP3    H161916   6.610   7.005   2.564 -0.6187  0.0256  1.0678
13475TIP3    H261917   6.611   7.122   2.659  0.5662  1.8336 -1.1256
13476TIP3   OH261918   5.398   5.182   0.466  0.0828  0.1769 -0.1246
13476TIP3    H161919   5.355   5.242   0.405 -0.1232  2.4310  2.1287
13476TIP3    H261920   5.414   5.103   0.415 -1.4685  1.4129 -2.6371
13477TIP3   OH261921   4.597   5.719   0.608 -0.1888 -0.3823 -0.1008
13477TIP3    H161922   4.690   5.704   0.624 -0.1799 -0.5920 -0.3241
13477TIP3    H261923   4.554   5.642   0.645 -0.2331 -0.4975 -0.3897
13478TIP3   OH261924   7.128   6.175   1.344 -0.3961  0.6355  0.3791
13478TIP3    H161925   7.172   6.245   1.296  0.3668 -0.7391 -0.9953
13478TIP3    H261926   7.182   6.161   1.421  0.4115  0.3985 -0.2214
13479TIP3   OH261927   6.105   6.059   2.607 -0.0711  0.6256  0.0678
13479TIP3    H161928   6.040   6.114   2.564 -1.6649  0.9746  2.7587
13479TIP3    H261929   6.139   6.113   2.678  1.9202 -0.1771 -0.2431
13480TIP3   OH261930   1.504   6.747   1.502  0.8386 -0.0507 -0.2641
13480TIP3    H161931   1.573   6.689   1.470 -0.2692 -0.9827 -1.0039
13480TIP3    H261932   1.550   6.827   1.527  2.2564 -0.8552 -0.2198
13481TIP3   OH261933   5.958   1.342   1.288  0.5770 -0.0841  0.4420
13481TIP3    H161934   6.031   1.348   1.227  0.0375  0.8709 -0.1386
13481TIP3    H261935   5.881   1.363   1.234  0.0707  0.5115  1.3944
13482TIP3   OH261936   6.593   6.803   1.340  0.2089  0.2655  0.2362
13482TIP3    H161937   6.601   6.877   1.280  0.0780  0.4482  0.4428
13482TIP3    H261938   6.683   6.775   1.356  0.2877  0.6607  0.5067
13483TIP3   OH261939   0.260   3.466  14.952  0.6023  0.1498 -0.2090
13483TIP3    H161940   0.332   3.406  14.933 -0.0213 -0.4624 -0.6828
13483TIP3    H261941   0.299   3.535  15.004  1.2633 -0.8844  0.6917
13484TIP3   OH261942   4.346   5.145   0.172  0.0238 -0.2994 -0.5256
13484TIP3    H161943   4.333   5.113   0.083  0.0520  0.3973 -0.7830
13484TIP3    H261944   4.439   5.163   0.177  0.1443 -1.0270 -0.1198
13485TIP3   OH261945   3.145   2.493  15.517 -0.3109  0.4114 -0.0491
13485TIP3    H161946   3.181   2.539  15.441  0.5549 -0.5272 -0.2120
13485TIP3    H261947   3.057   2.465  15.489 -0.5990  1.4108 -0.1614
13486TIP3   OH261948   4.839   7.342   2.694  0.2802 -0.1110  0.4368
13486TIP3    H161949   4.765   7.306   2.645  0.8356 -0.4741 -0.1482
13486TIP3    H261950   4.804   7.420   2.737 -0.4220 -0.2431  0.1162
13487TIP3   OH261951   3.231   0.230  15.348 -0.3120  0.6294  0.5172
13487TIP3    H161952   3.200   0.301  15.404 -0.7959 -0.4711  1.6646
13487TIP3    H261953   3.164   0.162  15.356  0.2908 -0.0799 -0.3387
13488TIP3   OH261954   5.019   7.300   1.085 -0.0281  0.2303  0.5192
13488TIP3    H161955   5.024   7.393   1.064  0.0196 -0.1292 -1.1973
13488TIP3    H261956   4.933   7.288   1.124 -0.7277  0.7011 -0.8544
13489TIP3   OH261957   0.530   0.642  13.967 -0.5315 -0.0014 -0.0054
13489TIP3    H161958   0.504   0.578  14.033 -0.2216 -0.2611 -0.1360
13489TIP3    H261959   0.609   0.682  14.002  1.8662 -2.8698 -1.9936
13490TIP3   OH261960   5.502   7.056   1.698  0.4187 -0.4494 -0.3076
13490TIP3    H161961   5.554   6.999   1.756  0.3511 -2.0708 -1.7907
13490TIP3    H261962   5.527   7.029   1.610  1.1411  2.5571 -1.0849
13491TIP3   OH261963   5.281   5.822  15.977  0.2873 -0.6614  0.0338
13491TIP3    H161964   5.361   5.831  15.925 -0.8391  1.7911 -1.3800
13491TIP3    H261965   5.272   5.906  16.022 -1.9395 -0.5518 -0.5377
13492TIP3   OH261966   5.749   1.933   1.330 -0.2944 -0.0237  0.0099
13492TIP3    H161967   5.838   1.918   1.362 -0.7449 -1.7263  0.5261
13492TIP3    H261968   5.693   1.895   1.398 -1.4238  1.2399 -0.2019
13493TIP3   OH261969   4.229   1.533   0.470  0.0076 -0.0210 -0.3320
13493TIP3    H161970   4.223   1.483   0.389 -1.4144  0.5108 -0.5713
13493TIP3    H261971   4.273   1.614   0.445 -1.0273  0.4277 -0.7194
13494TIP3   OH261972   3.919   1.003  15.733  0.0681  0.2724  0.2078
13494TIP3    H161973   3.890   0.913  15.720  1.7409 -0.0374 -1.5533
13494TIP3    H261974   3.977   0.999  15.809 -2.2278  0.4407  2.0516
13495TIP3   OH261975   4.268   1.218  14.853 -0.2440  0.4316 -0.8433
13495TIP3    H161976   4.319   1.299  14.854 -1.1621  1.0204 -1.0794
13495TIP3    H261977   4.182   1.245  14.819 -0.8519 -0.4578 -0.0019
13496TIP3   OH261978   5.887   7.134   2.305  0.1772  0.1960  0.5909
13496TIP3    H161979   5.853   7.143   2.394 -0.7808 -2.8491  0.5894
13496TIP3    H261980   5.956   7.067   2.313  0.0647 -0.1118 -0.9647
13497TIP3   OH261981   5.926   7.143  15.775 -0.3472 -0.0861  0.1739
13497TIP3    H161982   5.902   7.101  15.693  2.1859  0.3884 -0.8498
13497TIP3    H261983   5.889   7.231  15.769 -1.8412 -0.6920  0.4004
13498TIP3   OH261984   6.583   1.993   3.536  0.1092 -0.6623 -0.2303
13498TIP3    H161985   6.499   1.955   3.509 -0.5934  0.7296 -0.0066
13498TIP3    H261986   6.608   2.051   3.464  0.3364 -0.2293  0.1971
13499TIP3   OH261987   6.201   1.079   1.211 -0.5147 -0.1783  0.6438
13499TIP3    H161988   6.278   1.024   1.217 -0.6168 -0.3531  0.3618
13499TIP3    H261989   6.156   1.069   1.295  0.2280  0.6058  1.1394
13500TIP3   OH261990   6.630   0.692  15.324  0.0959  0.5813  0.1443
13500TIP3    H161991   6.713   0.672  15.367  0.2480  1.0848  0.0884
13500TIP3    H261992   6.652   0.693  15.230 -0.1705 -0.2020  0.0642
13501TIP3   OH261993   6.682   6.545   4.430 -0.6014  0.1701 -0.1695
13501TIP3    H161994   6.631   6.514   4.354 -0.7813  0.6657 -0.2536
13501TIP3    H261995   6.723   6.625   4.399 -0.0089 -0.0688 -0.0007
13502TIP3   OH261996   3.245   3.438   1.173  0.3276  0.2206 -0.5320
13502TIP3    H161997   3.269   3.358   1.125  2.1137  0.0795  0.5635
13502TIP3    H261998   3.327   3.486   1.182 -0.0413  0.4331  2.0580
13503TIP3   OH261999   0.014   2.480  15.632  0.0756 -0.0827 -0.1036
13503TIP3    H162000  -0.053   2.415  15.651 -0.5098  0.6475  0.3345
13503TIP3    H262001   0.029   2.525  15.715  1.1861 -0.2991 -0.1669
13504TIP3   OH262002   6.634   6.192   1.590 -0.3751 -0.1450 -0.1320
13504TIP3    H162003   6.550   6.176   1.548  0.3470  0.8253 -2.0474
13504TIP3    H262004   6.685   6.113   1.575  0.4901  0.8332 -2.7390
13505TIP3   OH262005   7.252   3.650   1.067 -0.2811 -0.1268 -0.0574
13505TIP3    H162006   7.255   3.610   1.154 -1.0838 -0.1977 -0.0561
13505TIP3    H262007   7.343   3.651   1.038  0.0657  0.3989  1.0117
13506TIP3   OH262008   4.071   5.238  15.180  0.4416  0.2092  0.0620
13506TIP3    H162009   4.032   5.292  15.248  0.8503  0.0211  0.4489
13506TIP3    H262010   4.157   5.213  15.215  0.1553 -0.8969 -0.0001
13507TIP3   OH262011   6.495   5.748   0.047  0.0698  0.3973 -0.0434
13507TIP3    H162012   6.580   5.793   0.046 -0.1127  0.8075  1.5199
13507TIP3    H262013   6.517   5.655   0.053  0.4150  0.5113  0.5065
13508TIP3   OH262014   5.899   6.571   1.406 -0.0185  0.3685 -0.2296
13508TIP3    H162015   5.866   6.600   1.490  0.4729  0.8930 -0.2207
13508TIP3    H262016   5.947   6.490   1.425 -2.8292 -1.4174 -0.4957
13509TIP3   OH262017   4.402   5.330   1.537 -0.0327  0.0606  0.3208
13509TIP3    H162018   4.404   5.241   1.573  2.2557 -0.3429 -0.7247
13509TIP3    H262019   4.408   5.317   1.442  1.6274  1.3797  0.2351
13510TIP3   OH262020   5.659   6.704   2.137  0.4749 -0.3451 -0.0393
13510TIP3    H162021   5.566   6.718   2.157  0.7016  1.9224 -0.3813
13510TIP3    H262022   5.702   6.698   2.223  0.2365  0.2561  0.1219
13511TIP3   OH262023   6.698   4.611  14.953  0.8468  0.4085 -0.1795
13511TIP3    H162024   6.698   4.697  14.912 -2.5238 -0.2440 -1.6396
13511TIP3    H262025   6.751   4.556  14.895 -0.0414  0.6231 -1.1922
13512TIP3   OH262026   0.040   5.394   3.687  0.2416 -0.1194 -0.1395
13512TIP3    H162027   0.036   5.411   3.781  1.2027 -1.5916  0.1755
13512TIP3    H262028   0.126   5.427   3.661 -0.2286  0.7502 -0.6019
13513TIP3   OH262029   4.419   0.043  15.456 -0.0955  0.0067 -0.0784
13513TIP3    H162030   4.362   0.112  15.420  0.7169  1.5375  1.4993
13513TIP3    H262031   4.412  -0.028  15.393 -2.6457  0.6988 -0.6686
13514TIP3   OH262032   3.704   0.532  14.936 -0.1237 -0.0980 -0.2781
13514TIP3    H162033   3.708   0.614  14.887 -2.0078  0.3010  0.2056
13514TIP3    H262034   3.656   0.553  15.016 -0.5947 -1.6616 -0.1263
13515TIP3   OH262035   2.939   5.525   1.363  0.9623 -0.2617 -0.1505
13515TIP3    H162036   2.880   5.459   1.398  1.2906 -0.2777  0.3797
13515TIP3    H262037   3.011   5.529   1.426  1.1802  0.2581 -0.4261
13516TIP3   OH262038   4.970   4.278  15.773 -0.2894 -0.4284 -0.6853
13516TIP3    H162039   5.055   4.259  15.733  0.3164  1.3994 -0.3102
13516TIP3    H262040   4.978   4.245  15.862  0.9833  2.0382  0.1599
13517TIP3   OH262041   4.805   0.684  15.353  0.0568 -0.1000 -0.0887
13517TIP3    H162042   4.794   0.773  15.386  0.3347  0.1394 -0.6348
13517TIP3    H262043   4.805   0.629  15.432  0.8179  0.4770  0.3213
13518TIP3   OH262044   7.326   6.791   0.067  0.7275 -0.0924  0.1813
13518TIP3    H162045   7.336   6.775  -0.027  2.0260 -1.8503  0.5901
13518TIP3    H262046   7.236   6.768   0.087  0.8912 -1.2210 -0.3629
13519TIP3   OH262047   6.808   0.376  14.716 -0.1527 -0.5818  0.1262
13519TIP3    H162048   6.728   0.394  14.766  0.7786  1.3653  0.9560
13519TIP3    H262049   6.839   0.292  14.749 -2.4187 -1.8867 -0.9611
13520TIP3   OH262050   5.846   0.497   2.361 -0.0743 -0.0301  0.5565
13520TIP3    H162051   5.933   0.461   2.342  0.2396  1.0847 -0.1796
13520TIP3    H262052   5.857   0.543   2.445 -0.1939 -0.7032  0.9399
13521TIP3   OH262053   6.244   0.566  14.837 -0.6095 -0.1518  0.5914
13521TIP3    H162054   6.166   0.548  14.890 -0.6739 -0.5660  0.3554
13521TIP3    H262055   6.213   0.563  14.747 -0.0737 -1.5164  0.4503
13522TIP3   OH262056   6.110   5.972   0.598 -0.0655 -0.0889 -0.0381
13522TIP3    H162057   6.077   5.985   0.687 -0.3638  1.1061 -0.3180
13522TIP3    H262058   6.172   6.043   0.585 -0.5279  0.1436 -1.0286
13523TIP3   OH262059   3.516   5.527  15.989 -0.6074  0.1687 -0.4040
13523TIP3    H162060   3.496   5.580  16.066 -0.5760  0.8014 -0.8212
13523TIP3    H262061   3.610   5.513  15.993 -0.5976  0.2500 -0.3563
13524TIP3   OH262062   4.630   5.837   1.595 -0.5255  0.6287  0.1389
13524TIP3    H162063   4.603   5.760   1.646 -2.9136  1.6292  0.4066
13524TIP3    H262064   4.550   5.887   1.582  0.7698  2.3959 -1.2349
13525TIP3   OH262065   6.330   6.481   0.357  0.4871  0.6279  0.0443
13525TIP3    H162066   6.324   6.390   0.326  0.7574 -0.3006  2.5696
13525TIP3    H262067   6.284   6.480   0.441 -3.0010  3.7681 -1.6895
13526TIP3   OH262068   5.310   6.033   4.948  0.0930 -0.1548 -0.4360
13526TIP3    H162069   5.294   6.045   4.855  0.6500 -1.5750 -0.7280
13526TIP3    H262070   5.359   6.111   4.975 -0.0886  0.2628 -1.3181
13527TIP3   OH262071   7.158   5.092   0.800 -0.1315  0.1250 -0.2259
13527TIP3    H162072   7.192   5.071   0.887 -0.6287  1.2904  0.2603
13527TIP3    H262073   7.115   5.012   0.770  0.7453 -0.5349  0.2488
13528TIP3   OH262074   6.493   6.226   1.991 -0.5178  0.4401  0.2562
13528TIP3    H162075   6.517   6.185   2.074 -1.5139 -1.3007 -0.2862
13528TIP3    H262076   6.403   6.195   1.974 -0.2356  0.5499 -1.5931
13529TIP3   OH262077   6.131   1.513   0.894 -0.3070  0.4964 -0.7181
13529TIP3    H162078   6.118   1.490   0.802  1.1584  0.0908 -0.8381
13529TIP3    H262079   6.138   1.429   0.939  1.6704  0.6728 -0.6550
13530TIP3   OH262080   6.077   0.311   1.238  0.0956  0.2625 -0.1978
13530TIP3    H162081   6.130   0.231   1.240 -0.9549 -0.4495 -0.6647
13530TIP3    H262082   6.140   0.380   1.214  1.2995 -0.1686  1.5947
13531TIP3   OH262083   0.604   6.308   2.865 -0.9505  0.3111 -0.2400
13531TIP3    H162084   0.687   6.271   2.895 -1.2287 -0.4104 -0.3450
13531TIP3    H262085   0.544   6.296   2.940 -0.6733  1.8096  0.2291
13532TIP3   OH262086   5.058   6.275   1.065 -0.1523  0.0349 -0.4993
13532TIP3    H162087   5.038   6.235   1.150  1.2354  1.4877  0.5371
13532TIP3    H262088   4.977   6.268   1.015 -0.0623 -3.7981 -0.2592
13533TIP3   OH262089   6.071   5.756   0.433 -0.1377  0.2270  0.0469
13533TIP3    H162090   6.103   5.814   0.502 -2.7738 -0.1254  1.6694
13533TIP3    H262091   6.013   5.811   0.381  0.7725  0.1351 -1.0701
13534TIP3   OH262092   0.720   6.372   1.525  0.2751 -0.2077 -0.3834
13534TIP3    H162093   0.814   6.366   1.544  0.2170 -0.0189 -0.0233
13534TIP3    H262094   0.681   6.402   1.608  0.0233  0.6788 -0.8144
13535TIP3   OH262095   1.311   6.645   0.333  0.6623 -0.2913  0.8576
13535TIP3    H162096   1.333   6.731   0.369  1.7669  0.4416 -1.4939
13535TIP3    H262097   1.395   6.610   0.303 -0.2815 -0.6910 -1.3779
13536TIP3   OH262098   5.437   6.428   0.245 -0.6890  0.6936  0.1114
13536TIP3    H162099   5.527   6.458   0.253 -0.4433 -0.5245  2.5136
13536TIP3    H262100   5.444   6.341   0.205 -0.8027  0.5901  0.3180
13537TIP3   OH262101   4.940   5.277   1.342 -0.6665 -0.2006 -0.2921
13537TIP3    H162102   4.928   5.220   1.418 -1.2963  0.1515 -0.1283
13537TIP3    H262103   4.955   5.216   1.269 -0.5354 -0.5529  0.0254
13538TIP3   OH262104   6.901   6.325   1.418  0.0483 -0.4145 -0.0770
13538TIP3    H162105   6.896   6.275   1.500  1.5647 -0.9865 -0.3131
13538TIP3    H262106   6.984   6.298   1.379  0.5201  1.7415 -0.5953
13539TIP3   OH262107   4.782   0.730  15.765  0.1033 -0.0448  0.4077
13539TIP3    H162108   4.806   0.673  15.691  0.5889  0.7117 -0.0171
13539TIP3    H262109   4.813   0.817  15.740  1.4334 -0.0083  2.0511
13540TIP3   OH262110   5.339   1.398   1.015  0.3633 -0.3983 -0.1758
13540TIP3    H162111   5.286   1.329   1.054  1.6053  0.1264  2.6011
13540TIP3    H262112   5.345   1.375   0.923 -0.2096 -3.3635  0.4747
13541TIP3   OH262113   7.147   5.827   4.261  0.3749  0.3210  0.2593
13541TIP3    H162114   7.110   5.778   4.334 -0.2199  0.7497  0.2476
13541TIP3    H262115   7.120   5.918   4.277  3.0618  0.9719  1.3028
13542TIP3   OH262116   6.729   4.503   1.017  0.0634  0.1871 -0.0104
13542TIP3    H162117   6.668   4.454   0.963  1.1109  0.5915 -1.5917
13542TIP3    H262118   6.689   4.505   1.104 -1.6203 -0.4978 -0.7682
13543TIP3   OH262119   6.917   5.219   4.667 -0.5057  0.2578 -0.1284
13543TIP3    H162120   6.945   5.133   4.699  0.3853  0.3539 -0.6384
13543TIP3    H262121   6.965   5.281   4.722  0.1311  0.4243 -0.8621
13544TIP3   OH262122   4.783   7.225  14.892  0.2298 -0.7946 -0.4505
13544TIP3    H162123   4.756   7.134  14.901  0.4255 -0.8133 -0.0226
13544TIP3    H262124   4.803   7.253  14.982  1.8733 -0.8548 -0.7873
13545TIP3   OH262125   5.348   0.486   2.086 -0.0987 -0.3265 -0.0452
13545TIP3    H162126   5.298   0.526   2.015 -0.4340  0.1668  0.4584
13545TIP3    H262127   5.438   0.512   2.070  0.0924 -1.7003 -1.2857
13546TIP3   OH262128   0.229   0.836   2.244 -0.1064  0.2498  0.0016
13546TIP3    H162129   0.222   0.909   2.306  1.0832  1.9531 -1.8254
13546TIP3    H262130   0.267   0.765   2.295 -0.5909  1.1255  1.6283
13547TIP3   OH262131   0.299   7.128  15.506  0.1051 -0.2077 -0.2503
13547TIP3    H162132   0.293   7.047  15.456 -0.2838 -0.8026  0.7454
13547TIP3    H262133   0.393   7.146  15.511  0.1812 -0.4961 -0.6257
13548TIP3   OH262134   6.823   5.118  15.955 -0.0099 -0.0054 -0.2965
13548TIP3    H162135   6.835   5.025  15.972 -2.3582 -0.8496 -2.8204
13548TIP3    H262136   6.880   5.136  15.880 -0.9523  0.1146 -0.9990
13549TIP3   OH262137   4.911   6.104   0.134  0.2707 -0.2102  0.1141
13549TIP3    H162138   4.872   6.018   0.115  0.4631  0.0429 -1.4951
13549TIP3    H262139   4.843   6.167   0.110  0.6984  0.1373 -0.2009
13550TIP3   OH262140   7.219   6.220   2.017 -0.3634  0.1893  0.3816
13550TIP3    H162141   7.234   6.130   2.046 -0.0116  0.9064  2.5116
13550TIP3    H262142   7.156   6.255   2.079  0.5158  1.8180  0.3830
13551TIP3   OH262143   1.410   5.631   1.232  0.2315 -0.0182 -0.4386
13551TIP3    H162144   1.367   5.562   1.182 -0.4363 -1.5184  2.1443
13551TIP3    H262145   1.503   5.616   1.219  0.1210 -2.2984  1.2550
13552TIP3   OH262146   6.304   7.062   0.187  0.3597 -0.3704 -0.2973
13552TIP3    H162147   6.323   6.972   0.163 -0.2175 -0.2624 -1.1673
13552TIP3    H262148   6.377   7.112   0.150  1.1898 -0.5743  1.0077
13553TIP3   OH262149   6.782   7.279   0.517  0.4563 -0.3580 -0.0458
13553TIP3    H162150   6.688   7.276   0.503  0.0305 -0.0264  2.5950
13553TIP3    H262151   6.810   7.188   0.514 -0.4210 -0.7187  2.0733
13554TIP3   OH262152   5.716   1.927   0.576  0.0847  0.4759  0.1392
13554TIP3    H162153   5.694   1.944   0.484 -0.2042  1.4978  0.3864
13554TIP3    H262154   5.720   2.014   0.616  1.3763  0.1112  0.8365
13555TIP3   OH262155   5.061   6.371   4.213  0.1341  0.2007  0.5499
13555TIP3    H162156   5.089   6.293   4.262  0.6242 -0.1838 -0.3331
13555TIP3    H262157   4.986   6.342   4.162  0.3812  0.2828  0.1409
13556TIP3   OH262158   6.615   4.676   0.180 -0.1405  0.0507  0.0520
13556TIP3    H162159   6.623   4.770   0.197 -1.8872  0.2014  0.0879
13556TIP3    H262160   6.610   4.669   0.085  0.9461 -0.0974 -0.0035
13557TIP3   OH262161   4.248   6.218   3.954  0.5545 -0.2109 -0.1285
13557TIP3    H162162   4.241   6.204   3.859  1.4699  0.9436 -0.3740
13557TIP3    H262163   4.313   6.153   3.982 -0.0298 -0.8448 -0.2100
13558TIP3   OH262164   5.786   4.288   0.504 -0.2755 -0.3170 -0.0813
13558TIP3    H162165   5.805   4.309   0.596  2.5390  0.6538 -0.8266
13558TIP3    H262166   5.733   4.362   0.474 -2.4941 -1.3570  1.1099
13559TIP3   OH262167   6.662   4.946  15.120 -0.0078  0.2269  0.2905
13559TIP3    H162168   6.743   4.897  15.109  0.2204  0.7483 -0.3842
13559TIP3    H262169   6.666   5.016  15.055 -0.7987  0.5264  0.5425
13560TIP3   OH262170   4.272   0.297   2.693  0.0970  0.1619 -0.1887
13560TIP3    H162171   4.236   0.380   2.661  0.1202  0.3022  0.1463
13560TIP3    H262172   4.259   0.235   2.621  0.0783  0.4571 -0.4393
13561TIP3   OH262173   6.289   5.925   1.414  0.2043  0.4017 -0.0444
13561TIP3    H162174   6.326   5.842   1.445  0.2629  0.4030 -0.1091
13561TIP3    H262175   6.286   5.981   1.492 -1.9262 -0.4152  0.4782
13562TIP3   OH262176   4.190   0.484   1.505  0.5535  0.4068 -0.0150
13562TIP3    H162177   4.253   0.422   1.467 -0.4610 -0.8356  0.2707
13562TIP3    H262178   4.166   0.444   1.589 -2.7772 -0.6352 -1.3915
13563TIP3   OH262179   6.893   7.074   2.044 -0.3545 -0.0108 -0.0259
13563TIP3    H162180   6.944   7.097   2.122 -3.5552  2.3526  1.4462
13563TIP3    H262181   6.838   7.001   2.072 -0.6911  0.0818 -0.4489
13564TIP3   OH262182   4.165   6.884   0.572 -0.0708  0.3528 -0.1747
13564TIP3    H162183   4.200   6.904   0.485  0.3085  1.5492  0.2551
13564TIP3    H262184   4.070   6.886   0.561 -0.0315 -0.7050 -0.8285
13565TIP3   OH262185   6.288   5.484   0.637 -0.1345 -0.7226  0.3093
13565TIP3    H162186   6.194   5.501   0.626  0.3611  0.6820 -1.8982
13565TIP3    H262187   6.308   5.419   0.569  0.2434 -2.0494  1.6555
13566TIP3   OH262188   6.330   7.176   1.313 -0.1906 -0.4398 -0.6368
13566TIP3    H162189   6.395   7.141   1.252 -1.4904 -4.0858 -0.0180
13566TIP3    H262190   6.355   7.142   1.399 -1.9769 -0.5564 -0.1274
13567TIP3   OH262191   5.808   5.864   1.606 -0.4399  0.1400  0.0447
13567TIP3    H162192   5.845   5.847   1.693 -1.1136 -1.7214 -0.0066
13567TIP3    H262193   5.716   5.839   1.614 -0.7705  1.0262 -0.9064
13568TIP3   OH262194   5.154   5.209   1.476  0.1206 -0.4355  0.2699
13568TIP3    H162195   5.129   5.260   1.553 -0.3653 -2.1084  1.2397
13568TIP3    H262196   5.095   5.239   1.407  0.4391  0.9372  0.5818
13569TIP3   OH262197   0.069   4.742   0.373  0.4270  0.3736  0.3381
13569TIP3    H162198   0.038   4.671   0.430  1.4338 -0.6835 -0.3995
13569TIP3    H262199   0.006   4.744   0.301  0.0449  0.6572  0.6754
13570TIP3   OH262200   6.712   7.163  15.972 -0.0083  0.1174  0.3048
13570TIP3    H162201   6.727   7.108  16.049 -1.4212 -0.3570  0.2607
13570TIP3    H262202   6.681   7.102  15.905 -1.7852  0.9715  0.3136
13571TIP3   OH262203   6.884   6.023  15.406  0.1203  0.5205 -0.6054
13571TIP3    H162204   6.824   5.983  15.469 -0.6305  1.5688 -0.6441
13571TIP3    H262205   6.935   5.949  15.372 -0.8379 -0.3250 -0.2472
13572TIP3   OH262206   4.153   0.086   1.284 -0.0116 -0.0563 -0.5761
13572TIP3    H162207   4.197   0.138   1.217  2.0407 -1.0745 -0.0349
13572TIP3    H262208   4.220   0.068   1.349 -1.4974 -0.7313  0.8139
13573TIP3   OH262209   5.494   0.148   1.885 -0.0667 -0.1104 -0.0693
13573TIP3    H162210   5.557   0.190   1.826  0.6775 -0.2332  0.6221
13573TIP3    H262211   5.537   0.067   1.912 -0.5035 -0.1777  0.4381
13574TIP3   OH262212   5.179   6.539   1.760  0.2514  0.5599 -0.7963
13574TIP3    H162213   5.189   6.584   1.844 -0.6297  0.0781 -0.4161
13574TIP3    H262214   5.212   6.451   1.777  1.6359  0.9453 -1.4358
13575TIP3   OH262215   4.413   3.898   0.505 -0.1402  0.3453 -0.0878
13575TIP3    H162216   4.464   3.936   0.432  0.1739  0.3146  0.1135
13575TIP3    H262217   4.330   3.872   0.465 -0.2197  0.9250 -0.3021
13576TIP3   OH262218   5.246   6.076   1.302 -0.0923 -0.5295 -0.2674
13576TIP3    H162219   5.181   6.078   1.232 -1.1751 -1.9931  0.6729
13576TIP3    H262220   5.283   5.987   1.298  0.4224 -0.3547  0.4952
13577TIP3   OH262221   0.825   6.836  15.234  0.1622 -0.5658  0.1360
13577TIP3    H162222   0.833   6.748  15.198 -0.9584 -0.0666 -1.3928
13577TIP3    H262223   0.834   6.894  15.158 -0.0572  0.5984  0.9800
13578TIP3   OH262224   6.467   1.610   1.195 -0.4566 -0.1204  0.4627
13578TIP3    H162225   6.410   1.537   1.220  2.1937 -2.4060  0.2254
13578TIP3    H262226   6.522   1.624   1.272  0.8265 -0.1922 -0.4260
13579TIP3   OH262227   0.516   6.550   3.483  1.1764  0.0951 -0.0256
13579TIP3    H162228   0.461   6.619   3.519  0.3926 -0.6197  0.1860
13579TIP3    H262229   0.483   6.537   3.394  0.7193 -0.6102  0.2383
13580TIP3   OH262230   1.202   0.519   2.457  0.1778 -0.0855 -0.3852
13580TIP3    H162231   1.247   0.603   2.463  1.2229 -0.6329 -0.3991
13580TIP3    H262232   1.248   0.472   2.388 -0.8334 -0.4135 -0.8429
13581TIP3   OH262233   6.878   2.734   2.801  0.0641  0.2005  0.2145
13581TIP3    H162234   6.886   2.743   2.706  1.9440  0.5479  0.3921
13581TIP3    H262235   6.801   2.678   2.813  1.6517 -2.4935 -1.5955
13582TIP3   OH262236   4.413   0.194   2.329  0.2027  0.7054  0.1401
13582TIP3    H162237   4.401   0.254   2.256  2.2784  1.1883  0.1616
13582TIP3    H262238   4.498   0.152   2.312 -1.1086 -2.0807  0.2405
13583TIP3   OH262239   0.932   6.950   2.393  0.2262  0.1938  0.1274
13583TIP3    H162240   1.009   6.987   2.435 -0.4809  0.5630  1.1107
13583TIP3    H262241   0.900   7.019   2.335  0.1451  0.3538  0.3613
13584TIP3   OH262242   4.982   3.027   0.408 -0.6417  0.3852 -0.2865
13584TIP3    H162243   5.035   3.008   0.330 -2.7719  4.1267 -2.7953
13584TIP3    H262244   5.002   2.955   0.468  2.3827 -1.7308 -3.5868
13585TIP3   OH262245   6.742   0.836   0.832 -0.6102  0.3531 -0.8210
13585TIP3    H162246   6.800   0.900   0.874  0.2665 -1.6035  1.0684
13585TIP3    H262247   6.796   0.794   0.765 -0.5924  0.2382 -0.7343
13586TIP3   OH262248   0.799   2.453   4.412  0.0108 -0.4285  0.6890
13586TIP3    H162249   0.769   2.513   4.344 -1.2079  0.6826  2.1833
13586TIP3    H262250   0.767   2.367   4.384 -1.5828  0.2112  0.4806
13587TIP3   OH262251   3.590   5.343   3.786  1.0535  0.3292  0.0371
13587TIP3    H162252   3.661   5.279   3.775 -1.2654 -2.1485 -1.3504
13587TIP3    H262253   3.527   5.320   3.717 -1.5914  1.7010  1.9145
13588TIP3   OH262254   3.453   6.932   2.835 -0.0023 -0.4302 -0.0115
13588TIP3    H162255   3.532   6.984   2.819  0.0887 -0.3091  0.8165
13588TIP3    H262256   3.438   6.886   2.752  1.3647 -1.0223  0.0382
13589TIP3   OH262257   0.106   5.799   3.941  0.0784 -0.0196 -0.0652
13589TIP3    H162258   0.134   5.864   3.878  0.4088  0.5248  0.6357
13589TIP3    H262259   0.010   5.798   3.934 -0.0358  1.7309  1.0858
13590TIP3   OH262260   6.742   2.246   4.267 -0.5490 -0.0653  0.4735
13590TIP3    H162261   6.726   2.152   4.271 -3.4674  0.2413 -1.9111
13590TIP3    H262262   6.821   2.255   4.214 -1.3070 -1.1184 -0.8681
13591TIP3   OH262263   7.287   1.511   3.060  0.0384 -0.4293 -0.5657
13591TIP3    H162264   7.228   1.475   2.994  0.9008  1.0715 -2.2004
13591TIP3    H262265   7.282   1.606   3.047  0.5795 -0.1541  1.2192
13592TIP3   OH262266   5.557   7.256   3.533  0.2552 -0.3106 -0.1021
13592TIP3    H162267   5.569   7.257   3.628  1.7923  0.8575 -0.2991
13592TIP3    H262268   5.616   7.187   3.503 -0.9639 -1.3548 -0.1265
13593TIP3   OH262269   6.283   2.637   3.234  0.1549 -0.4458 -0.3072
13593TIP3    H162270   6.204   2.607   3.277 -0.9195  1.2119 -1.0555
13593TIP3    H262271   6.290   2.729   3.259  2.1698 -0.7149  0.2163
13594TIP3   OH262272   1.856   0.130   2.801  0.2552 -0.9473 -0.6092
13594TIP3    H162273   1.824   0.048   2.763 -0.8036 -1.0582  0.5203
13594TIP3    H262274   1.793   0.196   2.773  0.1697 -0.8108 -0.0973
13595TIP3   OH262275   6.842   5.143   3.904  0.2010 -0.0688 -0.5387
13595TIP3    H162276   6.901   5.211   3.938  1.3208 -1.2326 -0.0790
13595TIP3    H262277   6.900   5.084   3.855 -0.7816 -0.5878 -1.0748
13596TIP3   OH262278   2.487   2.541   2.548 -0.6845 -0.2652 -0.3012
13596TIP3    H162279   2.413   2.598   2.565  0.7147  1.1100  1.2955
13596TIP3    H262280   2.545   2.552   2.623  0.7811 -1.9035 -1.1352
13597TIP3   OH262281   0.976   1.139   2.661 -0.1705  0.3008  0.7536
13597TIP3    H162282   0.890   1.100   2.651  0.8587 -1.7200 -0.5594
13597TIP3    H262283   0.994   1.178   2.575  0.4816  0.1344  0.8131
13598TIP3   OH262284   4.945   0.797   4.713 -0.0059 -0.6724  0.1990
13598TIP3    H162285   4.925   0.854   4.639  0.2109 -1.8046 -0.7505
13598TIP3    H262286   4.861   0.780   4.754 -0.0249  0.5982  0.6795
13599TIP3   OH262287   6.604   0.865   2.828  0.5969  0.1466 -0.5823
13599TIP3    H162288   6.605   0.904   2.915  0.4784 -0.9595 -0.0804
13599TIP3    H262289   6.575   0.936   2.770 -0.5387  0.5325  0.4396
13600TIP3   OH262290   6.769   1.817   4.092  0.3131 -0.5043 -0.6063
13600TIP3    H162291   6.859   1.849   4.087  0.8310 -1.5669  1.3406
13600TIP3    H262292   6.766   1.744   4.031  0.5442  0.0327 -1.2678
13601TIP3   OH262293   0.514   2.388   1.674  0.4221  0.5439 -0.1993
13601TIP3    H162294   0.435   2.370   1.726  1.6600 -0.4896  1.3809
13601TIP3    H262295   0.532   2.481   1.689 -0.0593  0.5949  0.0566
13602TIP3   OH262296   2.342   0.992   3.068 -0.1590 -0.3750 -0.2796
13602TIP3    H162297   2.276   0.922   3.071 -1.1852  0.5750 -0.1093
13602TIP3    H262298   2.394   0.979   3.147 -0.4306 -0.8745 -0.1783
13603TIP3   OH262299   6.828   1.220   2.647  0.4749  0.0739 -0.0986
13603TIP3    H162300   6.819   1.127   2.625  1.7129 -0.2638  0.7308
13603TIP3    H262301   6.740   1.248   2.671  0.1570 -0.9853  0.0203
13604TIP3   OH262302   0.781   5.556  15.677  0.1088 -0.1172  0.0908
13604TIP3    H162303   0.843   5.488  15.703 -0.5554 -0.3881  0.9892
13604TIP3    H262304   0.835   5.622  15.634  0.8187 -1.0065 -0.4032
13605TIP3   OH262305   6.512   2.515   4.152 -0.9243 -0.0042  0.1909
13605TIP3    H162306   6.504   2.442   4.214  0.9857 -1.2062 -0.9336
13605TIP3    H262307   6.424   2.524   4.115 -1.5014 -0.8573  1.3075
13606TIP3   OH262308   3.579   2.193   2.898 -0.6953 -0.5575  0.2989
13606TIP3    H162309   3.657   2.234   2.934 -2.2633  1.5718  1.3512
13606TIP3    H262310   3.565   2.237   2.815 -0.2352 -1.6405 -0.3701
13607TIP3   OH262311   1.044   5.375   4.982 -0.1132 -0.0446 -0.0201
13607TIP3    H162312   1.075   5.411   5.066 -0.9906  1.4085 -0.2949
13607TIP3    H262313   1.028   5.453   4.928 -2.0898 -0.8627 -0.6396
13608TIP3   OH262314   1.247   6.525   2.774 -0.1118 -0.4440 -0.0971
13608TIP3    H162315   1.243   6.440   2.730 -0.0044 -2.0239  2.8120
13608TIP3    H262316   1.157   6.543   2.800 -0.1357  0.3456 -0.7140
13609TIP3   OH262317   0.953   1.613   3.010 -0.5476 -0.6603  0.3888
13609TIP3    H162318   0.935   1.681   2.945 -0.6080 -0.4185  0.6558
13609TIP3    H262319   1.041   1.583   2.989  0.0753  0.5544  1.1904
13610TIP3   OH262320   0.600   6.611   2.173  0.4685 -0.2344  0.0684
13610TIP3    H162321   0.658   6.669   2.124  1.2039 -0.9813  0.0563
13610TIP3    H262322   0.581   6.658   2.254  1.0269  0.0379  0.0391
13611TIP3   OH262323   2.819   0.999   3.151  0.4413 -0.7626  0.6033
13611TIP3    H162324   2.887   0.932   3.145 -0.5377 -1.7211 -0.1059
13611TIP3    H262325   2.866   1.080   3.169  1.8563 -1.2398 -0.8306
13612TIP3   OH262326   0.964   6.447   2.654  0.5505 -0.4259 -0.3976
13612TIP3    H162327   0.982   6.370   2.600 -3.4461 -1.1066 -0.8612
13612TIP3    H262328   0.966   6.521   2.593 -0.3903 -0.7486 -0.8190
13613TIP3   OH262329   2.135   1.387   4.310  0.0956  0.6140  0.2616
13613TIP3    H162330   2.159   1.453   4.245  0.3546 -0.1040 -0.3683
13613TIP3    H262331   2.196   1.401   4.382  0.3425  0.8664  0.0045
13614TIP3   OH262332   2.630   1.253   0.800  0.0814  0.1684  0.0009
13614TIP3    H162333   2.703   1.286   0.853 -0.9101  0.5723  1.1244
13614TIP3    H262334   2.665   1.174   0.759  1.0538  0.1863  0.7659
13615TIP3   OH262335   3.068   0.144   3.788  0.3811  0.1260 -0.3620
13615TIP3    H162336   3.095   0.085   3.718  0.0412  3.2088 -3.2373
13615TIP3    H262337   2.974   0.126   3.800  0.4118 -0.3396 -0.8197
13616TIP3   OH262338   1.942   7.295   3.425 -0.0701 -0.1603 -0.3648
13616TIP3    H162339   1.873   7.347   3.467 -1.2443 -1.9393 -0.0425
13616TIP3    H262340   1.954   7.219   3.482  0.2960 -1.1964 -1.7711
13617TIP3   OH262341   0.078   1.329   3.668 -0.0714 -0.1523 -0.4128
13617TIP3    H162342  -0.008   1.369   3.682  0.0414  0.2696 -0.9260
13617TIP3    H262343   0.065   1.237   3.692 -1.1272 -0.4919 -2.2320
13618TIP3   OH262344   3.586   0.538   3.457 -0.3144  0.6971  0.0202
13618TIP3    H162345   3.516   0.591   3.420  1.1434  1.9390 -1.0581
13618TIP3    H262346   3.653   0.602   3.481 -0.0253 -0.3596  2.0984
13619TIP3   OH262347   3.945   0.104   3.717  0.1047  0.1385 -0.1273
13619TIP3    H162348   3.982   0.024   3.753  0.1050  0.2316  0.0768
13619TIP3    H262349   3.964   0.172   3.782 -3.0456 -0.3761  1.4313
13620TIP3   OH262350   3.471   2.949   3.284  0.3871  0.0339  0.1735
13620TIP3    H162351   3.390   2.999   3.291 -0.9037 -2.1130  0.9364
13620TIP3    H262352   3.444   2.865   3.248  2.7256  0.3345 -2.4208
13621TIP3   OH262353   6.308   1.499   2.782 -0.5778  0.3730 -0.6765
13621TIP3    H162354   6.336   1.582   2.821  0.4998 -0.3484  0.1429
13621TIP3    H262355   6.221   1.483   2.818 -0.6802  1.0346 -0.6409
13622TIP3   OH262356   0.139   6.235   1.487 -0.8404 -0.0418 -0.4693
13622TIP3    H162357   0.206   6.176   1.522 -0.2590  0.7188 -0.2791
13622TIP3    H262358   0.056   6.201   1.523 -0.1836  1.2477  2.4453
13623TIP3   OH262359   6.090   1.027   1.464  0.3339  0.4360 -0.9342
13623TIP3    H162360   6.059   1.100   1.518  3.1865  0.1847  1.1420
13623TIP3    H262361   6.030   0.955   1.483  0.2955  0.8651  0.5907
13624TIP3   OH262362   3.138   2.859   3.432 -0.3543 -0.4992 -0.2487
13624TIP3    H162363   3.192   2.920   3.381  0.1059 -1.1836 -0.5830
13624TIP3    H262364   3.192   2.781   3.441 -1.9545 -1.8823 -2.1253
13625TIP3   OH262365   0.558   1.213   1.338  0.7886 -0.0952 -0.0678
13625TIP3    H162366   0.597   1.145   1.393 -0.0467 -0.7312 -0.2416
13625TIP3    H262367   0.590   1.194   1.250  0.5972 -0.2463 -0.1074
13626TIP3   OH262368   1.294   1.726   1.512  0.1595  0.1737  0.8650
13626TIP3    H162369   1.363   1.694   1.455 -0.2749  0.0517  0.4019
13626TIP3    H262370   1.243   1.648   1.535  0.4599  0.1868  1.5992
13627TIP3   OH262371   2.610   7.293   4.689 -0.5363  0.4430 -0.7455
13627TIP3    H162372   2.697   7.287   4.730 -0.8825  0.5467  0.0173
13627TIP3    H262373   2.609   7.379   4.648 -0.3999  0.5799 -0.4639
13628TIP3   OH262374   7.008   0.603   2.753  0.6120  0.4131  0.1951
13628TIP3    H162375   7.077   0.591   2.819  0.2832 -0.0087  0.4626
13628TIP3    H262376   7.045   0.666   2.691  1.2404  0.1895  0.3384
13629TIP3   OH262377   1.211   0.786   3.313 -0.0294 -0.1009  0.1694
13629TIP3    H162378   1.251   0.867   3.345 -2.5518  0.9479  0.7495
13629TIP3    H262379   1.249   0.718   3.369 -1.7408  1.3017  3.1524
13630TIP3   OH262380   6.979   2.215   4.131 -0.1686  0.2596  0.1917
13630TIP3    H162381   6.950   2.173   4.049 -0.3616  0.1886  0.2956
13630TIP3    H262382   7.022   2.296   4.103  1.1748 -0.5243 -0.0865
13631TIP3   OH262383   1.947   0.639   3.274  0.4433  0.3896  0.1659
13631TIP3    H162384   1.949   0.700   3.347 -0.7227  0.0105  0.5250
13631TIP3    H262385   2.038   0.632   3.246  0.9488  0.3158  1.7687
13632TIP3   OH262386   1.246   0.354   2.713 -0.2350  0.2962  0.1213
13632TIP3    H162387   1.301   0.383   2.786 -0.3561  2.3870 -0.5604
13632TIP3    H262388   1.158   0.385   2.736 -0.8080 -1.5104  0.3968
13633TIP3   OH262389   2.489   6.067   4.914 -0.1147 -0.0588  0.3234
13633TIP3    H162390   2.508   6.160   4.899  0.2958 -0.2232 -0.1930
13633TIP3    H262391   2.454   6.064   5.003 -0.2805  0.6118  0.2830
13634TIP3   OH262392   6.618   0.085   1.830  0.1406  0.2558  0.1597
13634TIP3    H162393   6.681   0.065   1.899 -0.3542  0.5738  0.7016
13634TIP3    H262394   6.593   0.175   1.846  0.2257  0.4176 -0.6003
13635TIP3   OH262395   6.687   5.906   2.129 -0.0183 -0.2881 -0.8353
13635TIP3    H162396   6.702   5.854   2.208 -1.6826  1.9527  0.9971
13635TIP3    H262397   6.645   5.845   2.069 -0.3784 -1.5341  0.6386
13636TIP3   OH262398   6.937   0.948   4.858  0.2691 -0.4450 -0.6517
13636TIP3    H162399   7.009   1.005   4.829  0.2904 -0.8883 -1.4704
13636TIP3    H262400   6.981   0.872   4.896  0.2315 -0.2919 -0.2937
13637TIP3   OH262401   2.838   0.203   4.370  0.8496  0.1241  0.4217
13637TIP3    H162402   2.893   0.141   4.323 -0.4723 -0.9991  0.3257
13637TIP3    H262403   2.896   0.238   4.439  1.7147 -0.9518  0.2649
13638TIP3   OH262404   6.581   0.997   3.058  0.4488  0.1704  0.0650
13638TIP3    H162405   6.530   1.063   3.012  0.9713  0.0175 -0.7417
13638TIP3    H262406   6.610   1.041   3.139  1.2985  1.1209 -0.7478
13639TIP3   OH262407   1.545   0.944   4.414  0.2318  0.7775 -0.3960
13639TIP3    H162408   1.531   0.950   4.508  2.8644  0.7405  0.0475
13639TIP3    H262409   1.461   0.967   4.375 -0.4112  2.5068  1.9367
13640TIP3   OH262410   0.904   3.773   3.390  0.1300  0.4687  0.0420
13640TIP3    H162411   0.841   3.841   3.413 -1.4877 -0.5677 -1.2164
13640TIP3    H262412   0.852   3.705   3.347  2.1097 -0.4238 -1.0273
13641TIP3   OH262413   1.363   6.723   3.374  0.0813  0.1962  0.3708
13641TIP3    H162414   1.300   6.790   3.398 -2.0455 -0.8367 -2.1082
13641TIP3    H262415   1.337   6.647   3.427  0.0571  0.1623  0.3092
13642TIP3   OH262416   6.164   0.020   3.445 -0.1199 -0.2820 -0.2132
13642TIP3    H162417   6.117  -0.030   3.512 -0.4496 -0.1026 -0.3097
13642TIP3    H262418   6.101   0.085   3.415 -0.8570 -2.0598 -2.6082
13643TIP3   OH262419   2.097   1.389   3.957  0.2166  0.8003  0.0575
13643TIP3    H162420   2.015   1.344   3.977 -0.3070  1.2442 -1.0441
13643TIP3    H262421   2.127   1.423   4.041 -1.0785  1.2286  0.3635
13644TIP3   OH262422   1.553   5.892   3.557 -0.5587  0.4463 -0.1585
13644TIP3    H162423   1.555   5.935   3.472 -0.6498  0.4054 -0.1811
13644TIP3    H262424   1.616   5.941   3.610  1.9895 -1.5436 -1.2007
13645TIP3   OH262425   0.490   1.444   2.770  0.1544 -0.2567  0.0226
13645TIP3    H162426   0.433   1.459   2.694  1.3880 -0.9516 -1.0653
13645TIP3    H262427   0.522   1.531   2.794 -0.0334 -0.0609 -0.4377
13646TIP3   OH262428   6.934   5.959   0.873  0.5614  0.2084  0.3686
13646TIP3    H162429   6.873   6.017   0.826  0.0968 -0.0572  0.6390
13646TIP3    H262430   6.943   5.883   0.816 -0.2605 -0.2600  0.8570
13647TIP3   OH262431   5.228   1.002   2.700  0.5041 -0.0298 -0.6140
13647TIP3    H162432   5.156   0.987   2.638 -0.2067  1.6035 -0.2241
13647TIP3    H262433   5.271   1.081   2.667  1.1228 -0.0785  0.0695
13648TIP3   OH262434   6.249   0.790   3.161  0.0811  0.0347 -0.0429
13648TIP3    H162435   6.284   0.879   3.175 -0.0943 -0.2529  2.6438
13648TIP3    H262436   6.246   0.753   3.249 -2.7672 -1.5590 -0.7659
13649TIP3   OH262437   0.147   5.380   4.946 -0.1972  0.1163 -0.2682
13649TIP3    H162438   0.228   5.365   4.996 -0.5370 -0.2507  0.1841
13649TIP3    H262439   0.175   5.430   4.869  0.3778  0.4404  0.1456
13650TIP3   OH262440   5.664   0.367   4.119 -0.0646 -0.1608 -0.2176
13650TIP3    H162441   5.636   0.290   4.071  1.7723 -0.5591 -0.6895
13650TIP3    H262442   5.696   0.428   4.052 -0.0875  0.3988  0.2654
13651TIP3   OH262443   5.709   1.597   2.605  0.3024 -0.3881 -0.2411
13651TIP3    H162444   5.700   1.569   2.696 -0.9198  0.8156  0.0363
13651TIP3    H262445   5.801   1.623   2.597  0.4643 -0.6805  0.6037
13652TIP3   OH262446   1.341   1.325   2.034  0.1168 -0.6549  0.5624
13652TIP3    H162447   1.387   1.274   1.967 -1.8413 -2.1138  0.2955
13652TIP3    H262448   1.402   1.396   2.055  0.5199  0.2870 -3.2773
13653TIP3   OH262449   1.906   0.537   3.653 -0.2542  0.2347 -0.2378
13653TIP3    H162450   1.849   0.463   3.632 -0.7991  0.2878  1.0071
13653TIP3    H262451   1.985   0.496   3.689 -0.6999  0.2664  0.7849
13654TIP3   OH262452   0.751   6.166   2.266 -0.1085 -0.0724  0.1590
13654TIP3    H162453   0.837   6.186   2.229  0.4325  0.2025  1.5454
13654TIP3    H262454   0.693   6.232   2.227  0.4023  0.0589 -0.3854
13655TIP3   OH262455   2.407   0.806   5.837  0.4591 -0.2208  0.0336
13655TIP3    H162456   2.377   0.870   5.901 -0.9561 -1.1234  0.2967
13655TIP3    H262457   2.457   0.743   5.889 -0.1952 -0.6339  0.1730
13656TIP3   OH262458   0.893   1.216   3.092  0.1580 -0.0770 -0.3248
13656TIP3    H162459   0.919   1.142   3.147 -0.0073  1.3696  1.7127
13656TIP3    H262460   0.797   1.216   3.095  0.0148 -1.6348 -2.8631
13657TIP3   OH262461   2.853   0.518   2.983  0.1815  0.2186  0.1711
13657TIP3    H162462   2.779   0.578   2.978 -1.5074 -1.7687  0.4778
13657TIP3    H262463   2.814   0.432   2.967  2.2435 -0.9796  1.4516
13658TIP3   OH262464   0.153   1.734   3.331  0.4646  0.4367 -0.5132
13658TIP3    H162465   0.154   1.787   3.252  1.0854  1.1455 -0.0355
13658TIP3    H262466   0.246   1.716   3.349  0.3723  0.8703  0.4351
13659TIP3   OH262467   3.837   0.511   3.229 -0.1085 -0.1855 -0.0978
13659TIP3    H162468   3.840   0.548   3.317  1.3519 -1.3924  0.3749
13659TIP3    H262469   3.768   0.445   3.232 -1.0533  0.7727 -0.2775
13660TIP3   OH262470   7.172   0.257   1.314 -0.3813  0.0447 -0.2219
13660TIP3    H162471   7.226   0.188   1.276  0.3016  0.5023 -0.1096
13660TIP3    H262472   7.083   0.223   1.312  0.1745 -1.6530  1.6405
13661TIP3   OH262473   0.073   0.296   5.229 -0.2185  0.2516  1.0499
13661TIP3    H162474   0.155   0.261   5.264 -0.3396 -0.5989  0.4850
13661TIP3    H262475   0.044   0.231   5.165 -1.5833  0.3194  1.5900
13662TIP3   OH262476   7.073   1.606   3.652 -0.0130 -0.1323 -0.5118
13662TIP3    H162477   7.061   1.514   3.630  2.2614  0.0327 -2.5719
13662TIP3    H262478   7.168   1.619   3.654 -0.2931  2.1202  0.0141
13663TIP3   OH262479   0.213   1.762   3.963 -0.2770 -0.0302 -0.4217
13663TIP3    H162480   0.129   1.801   3.987 -0.2218  0.6614 -1.3252
13663TIP3    H262481   0.257   1.747   4.047 -1.5151 -0.9128  0.0809
13664TIP3   OH262482   1.404   5.932   2.833  0.1384  0.2043  0.3429
13664TIP3    H162483   1.455   5.967   2.760  1.9153  0.2422  1.5890
13664TIP3    H262484   1.320   5.977   2.827  1.1523  2.0514 -0.1945
13665TIP3   OH262485   2.914   0.846   2.839 -0.4819 -0.4117  0.4251
13665TIP3    H162486   2.935   0.842   2.932 -1.1278 -2.1676  0.5194
13665TIP3    H262487   2.841   0.785   2.828 -0.9568  0.4073 -1.0882
13666TIP3   OH262488   1.501   2.555   3.032  1.3146  0.0039 -0.2041
13666TIP3    H162489   1.457   2.475   3.063  1.3637  0.0390 -0.0442
13666TIP3    H262490   1.492   2.617   3.105  0.4419  0.4661 -0.6943
13667TIP3   OH262491   7.209   1.469   2.715 -0.1034  0.0700  0.6553
13667TIP3    H162492   7.259   1.425   2.784 -1.7021 -0.8537  1.2684
13667TIP3    H262493   7.256   1.450   2.634  2.2742  1.8750  1.5853
13668TIP3   OH262494   0.782   1.358   2.316 -0.0393 -0.1377 -0.7688
13668TIP3    H162495   0.744   1.407   2.244 -2.1675 -3.0154 -1.7186
13668TIP3    H262496   0.713   1.354   2.382  1.3084  1.0474  0.7461
13669TIP3   OH262497   1.909   1.480   4.536 -0.0069  0.2658 -0.6944
13669TIP3    H162498   1.996   1.498   4.500  0.2851 -0.8821 -0.5888
13669TIP3    H262499   1.924   1.412   4.602 -0.9857  0.0270 -0.7079
13670TIP3   OH262500   2.734   1.188   3.856 -0.1805 -0.2633  0.2891
13670TIP3    H162501   2.720   1.281   3.872 -1.7141 -0.2748 -0.8090
13670TIP3    H262502   2.748   1.181   3.761  1.1513 -1.0144  0.5260
13671TIP3   OH262503   1.488   5.838   4.393  0.2244 -0.2992  0.2497
13671TIP3    H162504   1.538   5.911   4.430 -1.2746  1.1492 -0.4894
13671TIP3    H262505   1.554   5.780   4.356  1.4554  0.6827  0.8693
13672TIP3   OH262506   6.355   1.324   5.393 -0.0301  0.1548 -0.2405
13672TIP3    H162507   6.416   1.309   5.320  0.4149 -0.2930  0.2151
13672TIP3    H262508   6.304   1.400   5.367 -0.8520 -0.8688 -1.6630
13673TIP3   OH262509   2.892   1.298   1.679  1.0700  0.2758 -0.2144
13673TIP3    H162510   2.906   1.215   1.725  0.6714  0.3834  0.1056
13673TIP3    H262511   2.844   1.352   1.742  0.0706  0.2526 -0.9388
13674TIP3   OH262512   0.473   0.029   2.896  0.1231  0.6061 -1.0624
13674TIP3    H162513   0.398   0.042   2.955  0.6795  0.0484 -0.2177
13674TIP3    H262514   0.493   0.117   2.864  0.3751  1.0544  0.2898
13675TIP3   OH262515   5.699   2.197   0.636  0.4434 -0.2736 -0.5613
13675TIP3    H162516   5.694   2.228   0.726 -0.9489 -1.6258 -0.1626
13675TIP3    H262517   5.630   2.246   0.590 -0.0901 -0.9460 -0.4804
13676TIP3   OH262518   0.333   6.626   2.029 -0.6004  0.2783  0.0000
13676TIP3    H162519   0.424   6.607   2.051 -0.3681  1.9493  0.5842
13676TIP3    H262520   0.320   6.586   1.943  0.1547 -1.4762  0.6757
13677TIP3   OH262521   7.171   2.246   4.982 -0.1670 -0.3967 -0.4091
13677TIP3    H162522   7.204   2.336   4.990  0.5937 -0.3271 -3.7113
13677TIP3    H262523   7.076   2.257   4.975 -0.1530  0.0778  0.1087
13678TIP3   OH262524   6.549   1.153   2.442 -0.0936  0.3437 -0.3363
13678TIP3    H162525   6.594   1.135   2.359 -2.5299  1.6823 -2.0061
13678TIP3    H262526   6.552   1.248   2.451 -0.6992  0.2826  0.6124
13679TIP3   OH262527   5.700   1.746   1.536 -0.4593 -0.0619 -0.3454
13679TIP3    H162528   5.733   1.765   1.623 -0.1482  1.2708 -0.7477
13679TIP3    H262529   5.607   1.728   1.549 -0.3085 -0.3755  0.3176
13680TIP3   OH262530   6.907   7.144   2.830  0.2463  0.1914 -0.0530
13680TIP3    H162531   6.995   7.181   2.824  0.2076  0.4069  0.6706
13680TIP3    H262532   6.885   7.119   2.740  0.7143  0.9036 -0.3705
13681TIP3   OH262533   1.049   0.756   1.566 -0.0346 -0.2470 -0.1898
13681TIP3    H162534   1.117   0.746   1.499  0.2611 -0.2997  0.1185
13681TIP3    H262535   1.095   0.791   1.642 -0.5496  0.7603 -0.3362
13682TIP3   OH262536   2.643   2.052   3.436 -0.3329 -0.6806 -0.0616
13682TIP3    H162537   2.654   1.978   3.496  0.5405  0.7856  1.6374
13682TIP3    H262538   2.726   2.100   3.442 -1.9438  2.1050  1.2414
13683TIP3   OH262539   0.203   0.524   3.974 -0.0258 -0.3891  0.3087
13683TIP3    H162540   0.221   0.493   3.885 -2.7908 -0.0524 -0.4093
13683TIP3    H262541   0.266   0.477   4.029  2.0464 -0.2589 -1.8512
13684TIP3   OH262542   7.316   1.102   3.138 -0.8623  0.6357 -0.0927
13684TIP3    H162543   7.370   1.033   3.177 -1.8549  0.5301  1.1252
13684TIP3    H262544   7.232   1.059   3.120 -0.8595  1.0387 -1.1053
13685TIP3   OH262545   6.020   2.903   1.061  0.7768 -0.1322  0.1586
13685TIP3    H162546   5.962   2.979   1.056  1.2128  0.2238  0.4043
13685TIP3    H262547   6.058   2.908   1.149  1.0597 -0.4432  0.0545
13686TIP3   OH262548   0.528   1.126   2.349 -0.1508 -0.0995  0.2823
13686TIP3    H162549   0.558   1.090   2.266  1.0412 -1.7359  1.3854
13686TIP3    H262550   0.460   1.189   2.325  0.0576 -0.6720 -1.9072
13687TIP3   OH262551   1.193   0.875   1.755  0.5182  0.3861 -0.3023
13687TIP3    H162552   1.154   0.886   1.842  1.9743 -1.7099  0.6528
13687TIP3    H262553   1.201   0.964   1.721 -1.7816  1.1147  0.9283
13688TIP3   OH262554   5.752   2.966   2.099  0.4339 -0.0113  0.1291
13688TIP3    H162555   5.703   2.937   2.176  2.1287  2.0157  2.0124
13688TIP3    H262556   5.830   2.912   2.098  1.2018  1.0632  0.7987
13689TIP3   OH262557   0.107   2.392   5.443 -0.3543  0.5607  0.1005
13689TIP3    H162558   0.013   2.408   5.432 -0.4640 -0.1883 -0.0577
13689TIP3    H262559   0.147   2.427   5.363 -0.5500  0.4116 -0.0627
13690TIP3   OH262560   0.952   2.727   3.940  0.2504 -0.1958  0.5662
13690TIP3    H162561   0.864   2.738   3.977  0.5056 -1.2178  1.5034
13690TIP3    H262562   0.972   2.812   3.900 -0.7169  0.4018  1.3318
13691TIP3   OH262563   0.958   6.712   2.278 -0.1944  0.1673 -0.4065
13691TIP3    H162564   0.905   6.703   2.199 -2.6843 -1.7418  1.4102
13691TIP3    H262565   0.935   6.797   2.313 -0.0894  0.4385 -0.9843
13692TIP3   OH262566   2.544   1.365   4.259  0.4507 -0.1717  0.2286
13692TIP3    H162567   2.486   1.376   4.334  0.4797 -2.4231  0.6241
13692TIP3    H262568   2.561   1.270   4.255  4.1004  0.4296  0.1023
13693TIP3   OH262569   0.156   7.236   2.825  0.1011  0.6149 -0.3307
13693TIP3    H162570   0.210   7.180   2.769  0.2960 -0.2848  0.7512
13693TIP3    H262571   0.217   7.271   2.890 -0.4845  0.1105  0.4979
13694TIP3   OH262572   0.578   0.665   2.823 -0.1925 -0.2563  0.1623
13694TIP3    H162573   0.614   0.612   2.751 -1.1388 -1.4498  0.5418
13694TIP3    H262574   0.624   0.634   2.901  0.2454  0.4651  0.1922
13695TIP3   OH262575   6.825   7.089   3.565 -0.3204 -0.1171  0.2763
13695TIP3    H162576   6.758   7.046   3.619  2.0996 -1.0063  2.7163
13695TIP3    H262577   6.880   7.136   3.629  2.1866 -0.5758 -1.4592
13696TIP3   OH262578   6.530   0.133   2.501  0.0954 -0.8649  0.3125
13696TIP3    H162579   6.460   0.081   2.461 -0.3733  0.1493 -0.2406
13696TIP3    H262580   6.579   0.168   2.427  0.2090 -0.2841  0.6530
13697TIP3   OH262581   6.943   0.140   4.741 -0.1798  0.1516  0.5809
13697TIP3    H162582   6.969   0.222   4.783 -3.0020  0.5687  1.6228
13697TIP3    H262583   6.963   0.073   4.806 -0.2153  0.2862  0.7314
13698TIP3   OH262584   2.383   0.827   4.030  0.2050 -1.0010  0.1766
13698TIP3    H162585   2.331   0.905   4.050  0.0656 -0.7693 -1.0259
13698TIP3    H262586   2.381   0.776   4.111 -0.8323 -0.3926  0.5525
13699TIP3   OH262587   7.253   0.694   4.351 -0.2290  0.3822 -0.0021
13699TIP3    H162588   7.277   0.661   4.438  1.1308  1.8915  0.2096
13699TIP3    H262589   7.332   0.684   4.299 -1.5401 -2.1593 -1.5978
13700TIP3   OH262590   3.074   1.522   3.637 -0.0400  0.0485 -0.2878
13700TIP3    H162591   3.148   1.557   3.586 -0.0696  0.4035 -0.0905
13700TIP3    H262592   3.032   1.460   3.578 -0.3983  0.8597 -0.8902
13701TIP3   OH262593   2.986   2.479   3.297  0.5020 -0.5595 -0.0929
13701TIP3    H162594   3.081   2.488   3.301  0.5286  0.5374 -2.3191
13701TIP3    H262595   2.966   2.470   3.204 -1.6518  0.2898  0.2369
13702TIP3   OH262596   6.359   7.154   1.587  0.0379 -0.4524 -0.0385
13702TIP3    H162597   6.439   7.102   1.575 -0.2310 -0.7824 -0.4077
13702TIP3    H262598   6.295   7.092   1.622 -0.5231 -0.5711 -1.2543
13703TIP3   OH262599   0.166   3.029   1.400 -0.7141  0.2741  0.2451
13703TIP3    H162600   0.232   3.084   1.358  0.4147 -0.3718  1.1711
13703TIP3    H262601   0.215   2.974   1.461 -2.2175  0.4431  1.6258
13704TIP3   OH262602   1.703   2.580   5.036  0.2793  0.2451 -0.2057
13704TIP3    H162603   1.735   2.642   5.102 -0.7405  0.5543  0.0159
13704TIP3    H262604   1.639   2.631   4.985  0.0543 -0.3840 -0.5502
13705TIP3   OH262605   4.550   2.826   3.431 -0.1189 -0.0030  0.0245
13705TIP3    H162606   4.498   2.828   3.351 -1.0002 -0.3124  0.5723
13705TIP3    H262607   4.486   2.805   3.500  0.5782  0.4971  0.8331
13706TIP3   OH262608   0.375   7.059   3.254 -0.5318 -0.4112 -0.2155
13706TIP3    H162609   0.399   7.101   3.171  1.3222  1.1838  1.0665
13706TIP3    H262610   0.414   6.972   3.249  1.6374  0.5119 -0.1040
13707TIP3   OH262611   1.842   1.411   3.633  0.6806 -0.4756  0.2961
13707TIP3    H162612   1.818   1.440   3.720 -0.9515 -1.3363  0.1431
13707TIP3    H262613   1.814   1.482   3.575  1.0145 -0.2712  0.3825
13708TIP3   OH262614   3.017   1.127   0.508  0.6866  0.3568  0.2081
13708TIP3    H162615   3.044   1.218   0.521 -0.8647  0.6856  1.2913
13708TIP3    H262616   3.007   1.118   0.413  1.4515  1.1182  0.0412
13709TIP3   OH262617   0.742   0.714   1.864 -0.0384  0.0426  0.3736
13709TIP3    H162618   0.816   0.682   1.916  0.2029  1.9733  1.2681
13709TIP3    H262619   0.782   0.742   1.782  0.1036  0.2493  0.5115
13710TIP3   OH262620   2.047   1.212   1.554  0.3397  0.1046  0.8132
13710TIP3    H162621   2.055   1.215   1.649 -0.4862 -1.9028  0.9695
13710TIP3    H262622   1.967   1.163   1.538  0.0302  1.1474 -0.9207
13711TIP3   OH262623   0.252   2.029   4.068  0.0191  0.4473  0.1673
13711TIP3    H162624   0.299   2.100   4.112  2.2756 -1.3686  0.7945
13711TIP3    H262625   0.288   2.028   3.980 -0.5022  0.5287 -0.0447
13712TIP3   OH262626   2.733   0.848   2.436  1.0869 -0.4195 -0.4142
13712TIP3    H162627   2.679   0.856   2.515  1.1308 -0.0187 -0.4189
13712TIP3    H262628   2.704   0.767   2.394 -1.7812  1.3455 -2.0972
13713TIP3   OH262629   6.203   6.610   3.154 -0.9140 -0.3275  0.7402
13713TIP3    H162630   6.250   6.568   3.082  0.0880 -0.0347  1.2250
13713TIP3    H262631   6.260   6.599   3.230 -1.7002 -0.1139  1.3704
13714TIP3   OH262632   0.848   3.038   4.069 -0.0882  0.0460  0.7391
13714TIP3    H162633   0.778   3.000   4.122 -0.6001 -0.9545 -0.6287
13714TIP3    H262634   0.836   3.000   3.982  2.2681 -0.2697  0.5147
13715TIP3   OH262635   0.990   1.036   3.607  0.1802 -0.1666 -0.1554
13715TIP3    H162636   1.027   1.085   3.680 -0.3252  0.5653 -0.3757
13715TIP3    H262637   0.998   0.944   3.632  0.7215  0.0515  0.4710
13716TIP3   OH262638   6.189   7.286   4.106 -0.0052  0.5326 -0.5220
13716TIP3    H162639   6.233   7.355   4.156 -0.4686  0.1306  0.4542
13716TIP3    H262640   6.198   7.208   4.160 -0.7708  0.1539 -0.9364
13717TIP3   OH262641   6.527   1.460   3.097 -0.3390 -0.0970 -0.0664
13717TIP3    H162642   6.571   1.385   3.136 -2.6686 -0.7077  1.4769
13717TIP3    H262643   6.558   1.535   3.147 -0.7367 -0.4793  0.7676
13718TIP3   OH262644   1.634   2.375   1.620  0.0919 -0.2221  0.0954
13718TIP3    H162645   1.548   2.390   1.581  0.3893  2.6158  0.3720
13718TIP3    H262646   1.660   2.461   1.654  2.7009 -1.1865  0.6975
13719TIP3   OH262647   1.947   4.728   3.105  0.0867 -0.3051  0.5279
13719TIP3    H162648   1.930   4.644   3.147  2.0958 -1.0691 -0.0892
13719TIP3    H262649   1.903   4.721   3.020  1.0536 -1.1517  0.0758
13720TIP3   OH262650   6.670   0.941   4.762 -0.0421 -0.9007  0.3155
13720TIP3    H162651   6.625   0.872   4.812 -1.8446  1.2094  1.6765
13720TIP3    H262652   6.754   0.952   4.808 -0.2509 -1.3515  0.8148
13721TIP3   OH262653   0.511   2.138   4.185  0.2643  0.0223  0.3255
13721TIP3    H162654   0.534   2.051   4.219 -0.8938 -0.6742 -0.6100
13721TIP3    H262655   0.572   2.153   4.113  0.5108  0.0006  0.5315
13722TIP3   OH262656   0.180   6.775   4.764 -0.2795  0.5084  0.0524
13722TIP3    H162657   0.151   6.832   4.693 -0.3459  2.0158  1.2633
13722TIP3    H262658   0.099   6.737   4.799 -0.4673  1.5334  0.7699
13723TIP3   OH262659   2.236   0.288   5.052 -1.0000 -0.5786  0.0865
13723TIP3    H162660   2.185   0.221   5.097  1.1007 -2.8962 -0.8927
13723TIP3    H262661   2.220   0.273   4.959  0.8671 -0.8894 -0.2035
13724TIP3   OH262662   1.572   7.280   4.014  0.4958  0.1786 -0.2615
13724TIP3    H162663   1.660   7.249   4.032  0.6591  1.6045  1.5580
13724TIP3    H262664   1.566   7.284   3.918  1.8932 -1.3076 -0.4179
13725TIP3   OH262665   0.414   3.869   3.384  0.0709  0.2954  0.2809
13725TIP3    H162666   0.338   3.907   3.340 -0.4811  0.9740  1.7784
13725TIP3    H262667   0.489   3.893   3.330 -0.4769  2.0046  0.2643
13726TIP3   OH262668   7.050   5.298   4.938  0.4677 -0.1284 -0.5632
13726TIP3    H162669   7.121   5.248   4.978  0.3073  0.7160  0.7972
13726TIP3    H262670   6.972   5.272   4.988  0.3957  1.5252  0.2144
13727TIP3   OH262671   5.297   0.318   3.864  0.2826  0.7325  0.2420
13727TIP3    H162672   5.218   0.266   3.848 -0.0524  1.1683  0.4468
13727TIP3    H262673   5.301   0.328   3.959  1.2583 -0.3101  0.3117
13728TIP3   OH262674   0.376   0.555   4.908 -0.3652 -0.3756  0.5615
13728TIP3    H162675   0.441   0.622   4.930  0.5278 -1.7867  2.4341
13728TIP3    H262676   0.302   0.574   4.965 -1.1528  0.5498 -0.7584
13729TIP3   OH262677   3.900   0.375   4.006  0.0528 -0.1655  0.1691
13729TIP3    H162678   3.870   0.390   3.916 -1.4668 -0.9107  0.5363
13729TIP3    H262679   3.844   0.431   4.060 -1.2608 -2.1308  0.9257
13730TIP3   OH262680   2.163   1.296   2.743 -0.5362  0.3668 -0.0026
13730TIP3    H162681   2.116   1.257   2.817 -0.2945  1.3754  0.6824
13730TIP3    H262682   2.255   1.273   2.758 -0.8010 -1.7818 -1.4497
13731TIP3   OH262683   0.654   0.729   4.989 -0.6224  0.1435 -0.2323
13731TIP3    H162684   0.731   0.769   5.029 -0.2310 -0.2434 -0.5997
13731TIP3    H262685   0.580   0.779   5.025 -0.1036  1.6518 -1.1989
13732TIP3   OH262686   7.070   0.522   4.695  0.5025 -0.0597  0.3308
13732TIP3    H162687   7.165   0.526   4.689  0.7803 -2.2499  2.4396
13732TIP3    H262688   7.053   0.482   4.781 -2.3195  0.9916  0.3053
13733TIP3   OH262689   0.177   3.546   1.794  0.3030 -0.1954  0.3125
13733TIP3    H162690   0.105   3.483   1.791 -0.3810  0.5904  0.1389
13733TIP3    H262691   0.216   3.534   1.881  0.7404 -1.4695 -0.0535
13734TIP3   OH262692   5.384   2.167   1.758  0.5656 -0.2630 -0.5575
13734TIP3    H162693   5.307   2.148   1.811  1.7942  0.5448  1.5491
13734TIP3    H262694   5.458   2.152   1.816  1.8643  2.9970 -1.2685
13735TIP3   OH262695   1.314   1.432   0.437  0.3856  0.5677  0.4857
13735TIP3    H162696   1.324   1.506   0.497  0.1920 -0.1696  1.4470
13735TIP3    H262697   1.253   1.373   0.482 -0.2636  0.2888 -0.7190
13736TIP3   OH262698   6.309   3.636   3.076 -0.4266  0.1177 -0.2171
13736TIP3    H162699   6.268   3.652   2.991 -0.4257 -0.1870 -0.2779
13736TIP3    H262700   6.347   3.548   3.067  0.6258  0.5734 -0.3155
13737TIP3   OH262701   2.484   0.649   5.169  0.5480 -0.5533 -0.3275
13737TIP3    H162702   2.570   0.646   5.211  0.2884  0.7436  0.3087
13737TIP3    H262703   2.427   0.598   5.227  0.3628  0.5872  0.5062
13738TIP3   OH262704   3.753   1.734   2.722  0.3935  0.3346 -0.0219
13738TIP3    H162705   3.731   1.644   2.696  1.4820  0.0753 -0.0830
13738TIP3    H262706   3.798   1.770   2.646  3.3778 -0.3495  1.3481
13739TIP3   OH262707   6.520   1.681   3.883  0.5394 -0.7160  0.2975
13739TIP3    H162708   6.516   1.608   3.944 -1.4637  0.0820  1.1258
13739TIP3    H262709   6.429   1.707   3.869  1.1098  0.5181 -1.3290
13740TIP3   OH262710   2.931   1.978   2.472  0.4734  0.4685 -0.6032
13740TIP3    H162711   2.836   1.969   2.473  0.3862  1.5235  1.1666
13740TIP3    H262712   2.962   1.894   2.438 -1.0588 -0.1154 -0.5905
13741TIP3   OH262713   4.004   0.132   4.368  0.4075 -0.2540  0.0334
13741TIP3    H162714   4.021   0.163   4.457  0.1389  1.2408 -0.4265
13741TIP3    H262715   4.058   0.054   4.360  3.2945  1.6186  0.3109
13742TIP3   OH262716   3.040   0.395   1.949  0.3673  0.1166  0.7658
13742TIP3    H162717   3.016   0.461   2.014 -0.6345 -0.6635  1.2026
13742TIP3    H262718   2.956   0.361   1.917  0.8652 -0.2648 -0.1528
13743TIP3   OH262719   6.550   0.621   4.210  0.1358  0.2498 -0.1337
13743TIP3    H162720   6.543   0.526   4.215 -0.4988  0.3049  0.0321
13743TIP3    H262721   6.590   0.647   4.293  1.1437  0.0498 -0.5510
13744TIP3   OH262722   4.235   4.945   3.990 -0.0734 -0.2419 -0.1122
13744TIP3    H162723   4.201   5.032   3.968  2.1479  0.8089  0.4559
13744TIP3    H262724   4.285   4.959   4.071 -0.7619 -2.3032  0.6878
13745TIP3   OH262725   1.120   6.031   3.894 -0.2314  0.0458  0.1650
13745TIP3    H162726   1.106   6.125   3.904 -0.8433  0.0905 -0.9954
13745TIP3    H262727   1.197   6.024   3.837  0.8000 -0.1770  1.5530
13746TIP3   OH262728   0.426   0.317   2.421 -0.0674 -0.5167  0.4440
13746TIP3    H162729   0.474   0.400   2.423 -0.4623 -0.2971  1.0544
13746TIP3    H262730   0.491   0.252   2.395  0.3905 -0.1105  0.5663
13747TIP3   OH262731   0.211   2.134   2.956 -0.8175  0.1026  0.8095
13747TIP3    H162732   0.208   2.229   2.969 -1.7877  0.3560 -1.1079
13747TIP3    H262733   0.139   2.100   3.009  0.3566  0.2658  2.5763
13748TIP3   OH262734   0.001   0.364   2.679 -0.1869  0.8512 -0.2724
13748TIP3    H162735   0.028   0.456   2.677 -0.6726  0.9903 -0.4695
13748TIP3    H262736   0.042   0.326   2.601  0.1918  0.8470 -0.0750
13749TIP3   OH262737   2.114   0.975   5.282  0.6023  0.6718  0.1073
13749TIP3    H162738   2.164   0.896   5.264  0.2266  0.3004  0.6687
13749TIP3    H262739   2.023   0.951   5.263  0.2763  0.4513  1.8592
13750TIP3   OH262740   2.146   1.581   2.869 -0.1225 -0.0729 -0.2964
13750TIP3    H162741   2.178   1.647   2.808  1.4181 -0.0797  0.4910
13750TIP3    H262742   2.139   1.501   2.817 -0.2781  0.2730 -0.8157
13751TIP3   OH262743   3.163   0.260   2.343  0.4658  0.4896 -0.2474
13751TIP3    H162744   3.257   0.279   2.348  0.3246  1.8131 -1.8783
13751TIP3    H262745   3.121   0.335   2.385  0.1208  0.0531  0.1952
13752TIP3   OH262746   0.069   1.030   5.805  0.5121  1.0680 -0.3448
13752TIP3    H162747   0.118   1.111   5.815  3.0530 -0.4569  0.0351
13752TIP3    H262748   0.038   1.009   5.893  1.0964  0.8959 -0.1752
13753TIP3   OH262749   5.341   0.386   4.165 -0.2574  0.6559  0.5013
13753TIP3    H162750   5.326   0.302   4.210 -0.3213  0.9526  1.0458
13753TIP3    H262751   5.424   0.417   4.200  1.4016 -0.7118 -2.1038
13754TIP3   OH262752   6.880   0.842   5.538 -0.3166  0.0760  0.3636
13754TIP3    H162753   6.939   0.768   5.520 -0.0209  0.2614  0.5534
13754TIP3    H262754   6.798   0.819   5.494  0.5303  0.7356 -1.6341
13755TIP3   OH262755   0.662   0.245   3.348 -0.3557 -0.0356 -0.4455
13755TIP3    H162756   0.597   0.304   3.309 -0.9625 -1.3974 -1.5074
13755TIP3    H262757   0.715   0.216   3.274 -0.1504 -0.9306  0.0552
13756TIP3   OH262758   2.189   5.221   0.840 -0.0501 -0.5337 -0.7056
13756TIP3    H162759   2.240   5.178   0.772 -1.3704 -0.1497 -1.9613
13756TIP3    H262760   2.098   5.214   0.811 -0.6589 -0.5188  1.1042
13757TIP3   OH262761   4.453   0.305   1.966  0.3655 -0.1084 -0.3092
13757TIP3    H162762   4.534   0.255   1.976 -0.4371 -1.0771  1.6751
13757TIP3    H262763   4.477   0.378   1.908  2.8899  0.1357  0.9450
13758TIP3   OH262764   5.242   6.873   2.705  0.3856  0.0839 -0.2803
13758TIP3    H162765   5.276   6.916   2.783  0.2131 -1.1307  0.4774
13758TIP3    H262766   5.170   6.929   2.676  0.5036  0.5822  0.3922
13759TIP3   OH262767   2.550   1.156   4.056  0.5552 -0.1310 -0.1870
13759TIP3    H162768   2.610   1.150   3.982  0.1480 -1.1762 -0.4452
13759TIP3    H262769   2.570   1.079   4.109  0.8151  0.5885  0.7769
13760TIP3   OH262770   0.216   1.910   2.216  0.3728  0.6331 -0.4069
13760TIP3    H162771   0.160   1.948   2.148 -3.0372  2.7656  3.3662
13760TIP3    H262772   0.159   1.847   2.261  3.1036 -2.0539 -0.5774
13761TIP3   OH262773   6.943   2.791   4.351  0.1774  0.3206  0.0227
13761TIP3    H162774   6.971   2.882   4.365 -0.1173  0.3633  0.3296
13761TIP3    H262775   6.852   2.797   4.324 -0.4951 -0.0005  2.1318
13762TIP3   OH262776   1.752   1.717   2.203 -0.5412 -0.0010  0.0112
13762TIP3    H162777   1.665   1.748   2.230 -0.2453  1.5330 -0.7703
13762TIP3    H262778   1.796   1.795   2.170  2.3216 -0.0552  3.3789
13763TIP3   OH262779   0.243   0.491   3.294  0.0459  0.0222 -0.5749
13763TIP3    H162780   0.198   0.499   3.378 -0.4864  1.7276 -0.9995
13763TIP3    H262781   0.336   0.484   3.318 -0.2194 -0.9485  0.2031
13764TIP3   OH262782   2.205   3.312   2.055 -0.5398 -0.0808 -0.6898
13764TIP3    H162783   2.160   3.380   2.105 -0.0715 -0.8063  0.7695
13764TIP3    H262784   2.138   3.247   2.038 -0.0201 -1.3688  1.8631
13765TIP3   OH262785   6.659   3.245   3.844 -0.0436 -0.2244 -0.0501
13765TIP3    H162786   6.630   3.216   3.757 -0.1784  0.4503 -0.2345
13765TIP3    H262787   6.636   3.173   3.902 -1.7198  0.0999 -0.2716
13766TIP3   OH262788   0.723   2.101   4.002 -0.4262 -0.2501  0.1238
13766TIP3    H162789   0.714   2.061   3.916 -0.6730  1.2195 -0.5430
13766TIP3    H262790   0.766   2.035   4.055  1.0675 -0.6105 -1.5176
13767TIP3   OH262791   0.666   1.208   5.363 -0.1574 -0.1118  0.3258
13767TIP3    H162792   0.617   1.133   5.394 -1.0519  0.0098 -0.7894
13767TIP3    H262793   0.745   1.210   5.418 -0.4504 -1.4566  0.7930
13768TIP3   OH262794   0.123   0.590   2.633  0.6465 -0.4318  0.2440
13768TIP3    H162795   0.177   0.618   2.559  0.5971 -0.0086  0.3725
13768TIP3    H262796   0.185   0.576   2.704  0.8769 -2.2569 -0.2896
13769TIP3   OH262797   4.613   2.148   4.352 -0.3223 -0.2381  0.4482
13769TIP3    H162798   4.555   2.108   4.288  1.0806  0.9999 -1.6503
13769TIP3    H262799   4.557   2.206   4.402 -1.6837 -2.1620  1.2236
13770TIP3   OH262800   6.772   3.926   2.869 -0.3170 -0.5604 -0.0840
13770TIP3    H162801   6.866   3.942   2.880 -0.1287 -2.1226  0.7995
13770TIP3    H262802   6.750   3.867   2.941 -1.9890 -0.1592 -0.2650
13771TIP3   OH262803   2.857   1.452   2.345 -0.5732 -0.5187 -0.3383
13771TIP3    H162804   2.904   1.430   2.264  0.7209 -0.2264  0.3190
13771TIP3    H262805   2.851   1.547   2.344 -1.5450 -0.5827 -0.6310
13772TIP3   OH262806   1.712   1.856   4.982  0.5442 -0.1574  0.0644
13772TIP3    H162807   1.660   1.884   4.907  1.7415  0.6931 -0.4599
13772TIP3    H262808   1.654   1.798   5.031 -1.4911  2.1006  0.4082
13773TIP3   OH262809   2.375   1.775   3.262 -0.1007  0.1874 -0.4514
13773TIP3    H162810   2.312   1.724   3.210  1.3830  0.1580 -2.2601
13773TIP3    H262811   2.325   1.803   3.339 -1.5812 -2.0875 -0.5261
13774TIP3   OH262812   5.278   3.475   1.789 -0.9200 -0.4797 -0.4076
13774TIP3    H162813   5.231   3.484   1.872  1.2522  0.2301  0.7723
13774TIP3    H262814   5.364   3.443   1.814  0.4805  1.7775 -2.1930
13775TIP3   OH262815   1.133   1.933   1.402 -0.1077  0.2212 -0.6508
13775TIP3    H162816   1.157   1.872   1.472 -0.4918 -0.1344 -0.8259
13775TIP3    H262817   1.039   1.918   1.389  0.4704 -1.6958 -3.1227
13776TIP3   OH262818   0.154   3.295   3.163  0.0031 -0.4280  0.4481
13776TIP3    H162819   0.069   3.271   3.200  0.9332 -0.8226  2.3907
13776TIP3    H262820   0.166   3.387   3.186 -0.0760 -0.2536 -0.1949
13777TIP3   OH262821   7.225   0.162   3.060  0.4056  0.2693 -0.0425
13777TIP3    H162822   7.222   0.075   3.101  2.4024  1.0833  1.9549
13777TIP3    H262823   7.264   0.146   2.974 -1.1365 -1.0695 -0.5274
13778TIP3   OH262824   1.187   0.554   4.143  0.5023 -0.2517 -0.1834
13778TIP3    H162825   1.168   0.538   4.235  1.9066 -0.0974  0.1387
13778TIP3    H262826   1.151   0.642   4.126 -1.1518 -0.9088 -0.2125
13779TIP3   OH262827   1.518   3.631   3.000  0.5485  0.1823 -0.3068
13779TIP3    H162828   1.511   3.661   3.090 -0.4127  0.8287 -0.5796
13779TIP3    H262829   1.571   3.552   3.004  0.3983  0.1375  0.8412
13780TIP3   OH262830   7.033   5.511   0.471  0.1045  0.4861 -0.8892
13780TIP3    H162831   7.104   5.453   0.498 -0.7284  0.1037  0.5312
13780TIP3    H262832   7.072   5.598   0.468  0.3028  0.5040  1.3397
13781TIP3   OH262833   6.323   0.922   4.878 -0.2910  0.4285  0.5664
13781TIP3    H162834   6.392   0.856   4.881 -1.8032 -1.1619  0.9090
13781TIP3    H262835   6.365   1.001   4.913  0.9928 -0.8360  1.9830
13782TIP3   OH262836   6.603   2.512   2.033 -0.1849  0.4803  0.1425
13782TIP3    H162837   6.572   2.533   2.121  0.8016 -1.1542  0.8956
13782TIP3    H262838   6.610   2.417   2.032  0.9180  0.5651 -1.3261
13783TIP3   OH262839   6.031   5.571   0.624  0.1733  0.0635 -0.3330
13783TIP3    H162840   5.943   5.590   0.657 -0.1879 -1.5324 -0.3424
13783TIP3    H262841   6.047   5.638   0.557 -0.4352  1.2604  0.6887
13784TIP3   OH262842   6.803   5.807   1.140 -0.3808  0.4628  0.5096
13784TIP3    H162843   6.767   5.748   1.073  0.1678  0.1793  0.4638
13784TIP3    H262844   6.777   5.768   1.223  0.2886 -0.0430  0.4857
13785TIP3   OH262845   0.685   0.508   1.664  0.6609  0.1849 -0.3105
13785TIP3    H162846   0.757   0.531   1.606  0.7554  0.2002 -0.1887
13785TIP3    H262847   0.630   0.449   1.613  2.3155 -2.1950  0.5666
13786TIP3   OH262848   6.965   1.880   3.011 -0.1608 -0.3743  0.0415
13786TIP3    H162849   6.969   1.785   3.022  2.4869 -0.4942 -1.5983
13786TIP3    H262850   6.987   1.895   2.919 -1.7112  1.7717 -0.0142
13787TIP3   OH262851   0.045   0.434   3.496  0.4295  0.2004 -0.4370
13787TIP3    H162852  -0.031   0.466   3.544 -0.9389 -0.5184 -2.0852
13787TIP3    H262853   0.031   0.340   3.487  0.8176  0.2590 -1.9132
13788TIP3   OH262854   1.038   1.151   3.864  0.5441  0.1490 -0.7192
13788TIP3    H162855   1.128   1.164   3.893  0.0549  0.5422  0.6739
13788TIP3    H262856   0.988   1.145   3.945 -0.8615  1.2382 -1.4965
13789TIP3   OH262857   1.776   1.365   2.930  0.5602  0.5830  0.2166
13789TIP3    H162858   1.729   1.292   2.969 -0.2720 -0.1183 -1.9868
13789TIP3    H262859   1.864   1.360   2.965  0.3182 -1.0880  0.5968
13790TIP3   OH262860   7.297   0.337   4.726  0.4025  0.0667  0.1126
13790TIP3    H162861   7.214   0.347   4.774  0.8736 -0.6724  1.0914
13790TIP3    H262862   7.343   0.267   4.771  1.6941  0.6524 -0.2585
13791TIP3   OH262863   0.141   0.095   3.877 -0.0085 -0.5048  0.3499
13791TIP3    H162864   0.060   0.141   3.854  0.5511  0.7555  0.8581
13791TIP3    H262865   0.178   0.067   3.793  0.3199  1.1495 -0.0703
13792TIP3   OH262866   2.486   1.814   1.798 -0.0527  0.3136 -0.3716
13792TIP3    H162867   2.574   1.781   1.779  0.5672  1.9716 -0.4533
13792TIP3    H262868   2.501   1.899   1.839 -1.6252  0.5957 -0.3750
13793TIP3   OH262869   4.003   0.499   4.409  0.6871  0.0576 -0.1272
13793TIP3    H162870   3.972   0.571   4.464 -2.9329 -0.9262 -0.7705
13793TIP3    H262871   4.032   0.432   4.471 -1.3584 -0.1879  0.6046
13794TIP3   OH262872   2.488   6.596   3.841  0.7048 -0.3277  0.4332
13794TIP3    H162873   2.567   6.573   3.793  1.5807 -0.5014  1.9109
13794TIP3    H262874   2.436   6.516   3.843  1.0510 -0.5480  0.5058
13795TIP3   OH262875   2.333   0.500   2.637  0.5157 -0.2501  0.7003
13795TIP3    H162876   2.263   0.533   2.580  0.9059 -0.3698  0.1501
13795TIP3    H262877   2.287   0.469   2.715 -0.2200 -1.8295 -0.3343
13796TIP3   OH262878   4.180   3.891   2.587 -0.0885 -0.1601 -0.5393
13796TIP3    H162879   4.201   3.889   2.494  1.2002 -0.9884 -0.2548
13796TIP3    H262880   4.111   3.826   2.598 -0.4297  0.1348 -0.9613
13797TIP3   OH262881   3.025   1.093   1.809  0.1559  0.3897 -0.0018
13797TIP3    H162882   3.113   1.079   1.844 -0.1359  1.2286  1.0644
13797TIP3    H262883   2.982   1.008   1.817  1.3088 -0.4108 -1.8324
13798TIP3   OH262884   3.545   7.150   2.572  0.2525 -0.1474  0.1537
13798TIP3    H162885   3.549   7.244   2.591 -0.5177 -0.4982  2.1085
13798TIP3    H262886   3.453   7.126   2.585  0.5455 -1.2760  0.2089
13799TIP3   OH262887   1.215   0.667   3.742 -0.0681  0.0344  0.4643
13799TIP3    H162888   1.274   0.683   3.815 -2.8666 -1.9043  3.2511
13799TIP3    H262889   1.144   0.730   3.754  0.6976  1.5214 -2.1751
13800TIP3   OH262890   6.841   0.004   1.973 -0.1927 -0.3044  0.0619
13800TIP3    H162891   6.913   0.030   1.916  0.2251 -1.6190 -0.0260
13800TIP3    H262892   6.856  -0.089   1.989 -0.8161 -0.1526  1.5766
13801TIP3   OH262893   2.588   0.013   3.433  0.1216 -0.3407 -0.4081
13801TIP3    H162894   2.500   0.038   3.403 -0.4140  0.1822  1.5208
13801TIP3    H262895   2.625   0.093   3.469  0.0162 -1.3265  1.9749
13802TIP3   OH262896   3.379   2.421   2.922 -0.4477 -0.3536  0.4396
13802TIP3    H162897   3.327   2.342   2.934 -1.3223  0.3196  1.0894
13802TIP3    H262898   3.441   2.420   2.995 -1.1089  0.0732  1.0066
13803TIP3   OH262899   3.297   2.845   1.486  0.2462  0.5368  0.0403
13803TIP3    H162900   3.345   2.927   1.486  1.0187  0.0958 -1.1596
13803TIP3    H262901   3.302   2.814   1.396  0.6774 -1.2284  0.6474
13804TIP3   OH262902   2.614   3.286   5.107 -0.1568  0.4838  0.2223
13804TIP3    H162903   2.671   3.304   5.032  0.8709 -1.4273  0.5227
13804TIP3    H262904   2.604   3.191   5.108 -2.8227  0.7421  0.5973
13805TIP3   OH262905   1.720   5.590   5.356 -0.1745 -0.2287  0.3951
13805TIP3    H162906   1.652   5.574   5.421  0.9486 -0.7279  1.4821
13805TIP3    H262907   1.675   5.585   5.272 -1.2185 -1.9597  1.0273
13806TIP3   OH262908   0.909   5.205   2.927  0.3152 -0.7876  0.6628
13806TIP3    H162909   0.984   5.238   2.878 -1.1687 -1.5372 -2.2284
13806TIP3    H262910   0.939   5.122   2.964  2.0268  0.6554  2.6302
13807TIP3   OH262911   2.676   1.966   2.052  0.0937  0.7504  0.4842
13807TIP3    H162912   2.687   2.039   2.112 -0.6062  0.5887  0.8043
13807TIP3    H262913   2.675   2.006   1.965 -0.9038  1.1814  0.6918
13808TIP3   OH262914   4.762   1.255   2.959  0.0060 -0.4408  0.1951
13808TIP3    H162915   4.751   1.198   3.034 -1.7076 -2.6056 -1.6621
13808TIP3    H262916   4.849   1.233   2.925  0.2019 -0.4549  0.7071
13809TIP3   OH262917   3.351   1.292   1.707  0.2920 -0.6766 -0.6286
13809TIP3    H162918   3.278   1.337   1.664  0.0579  3.1349  3.4399
13809TIP3    H262919   3.429   1.339   1.677  0.6549 -1.4777 -0.9761
13810TIP3   OH262920   2.656   0.471   4.667 -0.3100  0.2632 -0.2581
13810TIP3    H162921   2.741   0.476   4.623 -0.1223 -1.1670 -0.0674
13810TIP3    H262922   2.672   0.510   4.753  0.5746 -1.4339  0.3770
13811TIP3   OH262923   2.246   1.034   3.645  0.2837  0.5804 -0.8134
13811TIP3    H162924   2.300   1.046   3.723 -2.1755 -0.0199  1.0642
13811TIP3    H262925   2.237   0.939   3.638 -0.4783  0.6761 -1.1248
13812TIP3   OH262926   5.631   0.528   3.067 -0.0229 -0.1788  0.0604
13812TIP3    H162927   5.595   0.491   2.987  1.3538  0.7580 -1.0385
13812TIP3    H262928   5.591   0.615   3.073 -0.2232 -0.2974  0.4672
13813TIP3   OH262929   3.588   1.407   3.568  0.4120 -0.0329 -0.1716
13813TIP3    H162930   3.570   1.401   3.661  1.0496  1.7477  0.0948
13813TIP3    H262931   3.545   1.330   3.530 -0.3253 -0.4777  1.5043
13814TIP3   OH262932   2.469   6.851   3.726  0.7250 -0.8080  0.3996
13814TIP3    H162933   2.488   6.762   3.753 -0.6456 -1.5608 -1.0234
13814TIP3    H262934   2.429   6.842   3.639 -0.0022  1.1404  0.4983
13815TIP3   OH262935   3.440   0.719   3.319 -0.0190 -0.4141  0.1297
13815TIP3    H162936   3.347   0.739   3.335  0.1190  0.6440 -0.3591
13815TIP3    H262937   3.460   0.765   3.237  1.0661 -0.2299  0.4995
13816TIP3   OH262938   0.967   1.604   1.210 -0.4838 -0.0106 -0.0333
13816TIP3    H162939   0.911   1.534   1.243 -2.4583  2.6363  2.5110
13816TIP3    H262940   0.959   1.674   1.275  2.5889  2.0169 -1.7225
13817TIP3   OH262941   1.714   1.978   4.322  0.1177  0.4848  0.1658
13817TIP3    H162942   1.744   1.898   4.365 -0.8766  0.4942  0.8924
13817TIP3    H262943   1.795   2.021   4.293  0.6125 -1.3155 -1.2314
13818TIP3   OH262944   3.295   2.130   2.937  0.2853  0.1877  0.2055
13818TIP3    H162945   3.386   2.111   2.960 -0.0233 -1.1531  0.3929
13818TIP3    H262946   3.276   2.069   2.865 -0.4527  0.4678  0.1602
13819TIP3   OH262947   3.247   3.762   2.670 -0.8949 -0.3959 -0.1457
13819TIP3    H162948   3.322   3.782   2.614 -0.0917 -0.0904  1.0393
13819TIP3    H262949   3.227   3.845   2.714 -3.1574  0.0401 -1.8862
13820TIP3   OH262950   1.208   7.155   4.992 -0.0762 -0.0642  0.5989
13820TIP3    H162951   1.272   7.203   5.046 -0.3258 -0.1546  0.9724
13820TIP3    H262952   1.167   7.093   5.052 -0.6179  0.0897  0.3927
13821TIP3   OH262953   4.982   2.219   3.192  0.3450 -0.1210 -0.5349
13821TIP3    H162954   4.931   2.220   3.111  0.7891  0.9922 -0.8148
13821TIP3    H262955   5.071   2.198   3.164  0.4344 -0.0631 -0.2995
13822TIP3   OH262956   6.267   2.545   2.675  1.0160 -0.0452  0.3914
13822TIP3    H162957   6.173   2.535   2.687  0.9838 -2.2710 -1.2255
13822TIP3    H262958   6.277   2.628   2.628  0.0901  1.3613  2.5999
13823TIP3   OH262959   3.549   1.958   2.562 -0.7580  0.4097 -0.1287
13823TIP3    H162960   3.575   1.937   2.651  1.4354  0.4630 -0.7197
13823TIP3    H262961   3.594   2.041   2.543 -0.5596 -0.0068 -1.5312
13824TIP3   OH262962   2.729   3.060   3.767 -0.8005 -0.2426 -0.4155
13824TIP3    H162963   2.762   3.104   3.689 -1.5774  0.6342 -0.2580
13824TIP3    H262964   2.741   2.967   3.749  0.5470  0.0150 -0.8849
13825TIP3   OH262965   3.407   2.194   2.364 -0.2400  0.1750 -0.7333
13825TIP3    H162966   3.385   2.287   2.367 -0.5012  0.1155 -0.7545
13825TIP3    H262967   3.443   2.181   2.277 -2.2482 -0.1830 -1.5452
13826TIP3   OH262968   4.175   2.496   1.861 -0.6337 -0.0618  0.3119
13826TIP3    H162969   4.096   2.442   1.860 -0.4911 -0.3155  2.0124
13826TIP3    H262970   4.201   2.499   1.953  0.4037  1.3980 -0.0211
13827TIP3   OH262971   4.475   7.165   1.892 -0.3410 -0.0375  0.3745
13827TIP3    H162972   4.532   7.208   1.829  1.1227 -1.6382  0.5595
13827TIP3    H262973   4.386   7.186   1.863  0.3373  1.1197 -0.8894
13828TIP3   OH262974   5.088   0.721   3.020  0.0574  0.1483 -0.1892
13828TIP3    H162975   5.153   0.660   3.054 -0.3764 -0.4567 -0.4304
13828TIP3    H262976   5.016   0.665   2.991 -0.0089  0.7182 -1.1550
13829TIP3   OH262977   1.245   6.410   3.086 -0.2919  0.2106  1.2506
13829TIP3    H162978   1.252   6.426   2.992  0.2667  0.1472  1.2775
13829TIP3    H262979   1.181   6.473   3.117  2.0784  2.6106  1.4158
13830TIP3   OH262980   4.682   3.346   3.213  0.0189  0.0455 -0.8532
13830TIP3    H162981   4.769   3.373   3.242 -0.4336  1.5286 -0.8276
13830TIP3    H262982   4.691   3.252   3.194  1.5195  0.1052 -0.5132
13831TIP3   OH262983   1.883   0.078   3.878 -0.3816 -0.4761  0.4293
13831TIP3    H162984   1.940   0.143   3.918  0.2330 -1.0018  0.4060
13831TIP3    H262985   1.839   0.125   3.807  0.7276 -0.3173 -0.1633
13832TIP3   OH262986   4.379   1.308   0.393 -0.0882 -1.0437  0.0278
13832TIP3    H162987   4.465   1.299   0.351  0.0301 -0.3351  0.1024
13832TIP3    H262988   4.325   1.351   0.327 -0.8299 -2.8728 -0.5855
13833TIP3   OH262989   1.198   1.125   5.118 -0.2374 -0.0730  0.0052
13833TIP3    H162990   1.181   1.134   5.211 -0.0406  0.3234  0.0049
13833TIP3    H262991   1.288   1.157   5.106  0.7174 -2.5683  0.0819
13834TIP3   OH262992   3.124   0.371  15.558 -0.5374 -0.2390 -0.0314
13834TIP3    H162993   3.033   0.402  15.556 -0.8866 -1.1358  1.0426
13834TIP3    H262994   3.120   0.292  15.611  0.8338 -0.4373 -0.2264
13835TIP3   OH262995   3.523   1.167   3.482  0.2225  0.1699 -0.0587
13835TIP3    H162996   3.550   1.142   3.394  1.7176 -0.2860  0.5087
13835TIP3    H262997   3.551   1.094   3.537 -0.7594  0.4189  0.7923
13836TIP3   OH262998   3.497   6.191   1.602  0.4167 -0.0800 -0.0250
13836TIP3    H162999   3.584   6.220   1.575  0.5938 -0.7983 -0.2468
13836TIP3    H263000   3.439   6.221   1.532  0.6920 -0.8190 -0.5818
13837TIP3   OH263001   2.567   3.097   4.528 -0.4304 -0.4970 -0.6849
13837TIP3    H163002   2.536   3.066   4.443 -2.3127  1.7537 -0.8580
13837TIP3    H263003   2.488   3.110   4.580  0.6013 -0.3406  0.9064
13838TIP3   OH263004   3.084   0.814   1.938 -0.1464 -0.7524 -0.2948
13838TIP3    H163005   3.113   0.787   2.025  0.1947  1.2444  0.2246
13838TIP3    H263006   3.141   0.766   1.878  0.1296 -1.5479  0.5844
13839TIP3   OH263007   3.873   1.550   1.210 -0.1481  0.3046 -0.0698
13839TIP3    H163008   3.916   1.568   1.127 -2.2075  1.7040 -0.8488
13839TIP3    H263009   3.879   1.455   1.220  1.6469  0.3154 -0.9476
13840TIP3   OH263010   5.493   1.536   3.502  0.0029 -0.2905 -0.1221
13840TIP3    H163011   5.495   1.469   3.433 -1.1708  0.6078 -1.0465
13840TIP3    H263012   5.513   1.617   3.457  0.7706  0.0866  0.8838
13841TIP3   OH263013   2.254   0.772   1.675  0.6644 -0.0018 -0.3838
13841TIP3    H163014   2.295   0.824   1.606  1.7866  0.3606  0.5323
13841TIP3    H263015   2.188   0.831   1.712 -0.1017 -0.2807 -1.2921
13842TIP3   OH263016   6.768   6.986   5.106 -0.3270  0.1706  0.4814
13842TIP3    H163017   6.734   7.075   5.095 -1.4546 -0.0239  2.1893
13842TIP3    H263018   6.844   6.996   5.163 -0.5691  0.0391  0.8344
13843TIP3   OH263019   4.410   3.088   3.457  0.1132  0.3313  0.3119
13843TIP3    H163020   4.498   3.123   3.441 -0.6562  2.4000  0.4334
13843TIP3    H263021   4.383   3.130   3.539 -0.0462 -2.1658  1.5609
13844TIP3   OH263022   3.269   0.426   3.353  0.7711  0.0853  0.6550
13844TIP3    H163023   3.236   0.512   3.328 -0.6746 -0.3701  0.9654
13844TIP3    H263024   3.288   0.381   3.271  0.1401  0.1671  0.4672
13845TIP3   OH263025   4.158   5.984   0.984  0.8672 -0.7382 -0.2296
13845TIP3    H163026   4.080   5.932   1.002 -1.5653  2.8515  0.1263
13845TIP3    H263027   4.221   5.957   1.052 -1.3491 -1.1545  1.7348
13846TIP3   OH263028   2.224   1.435   3.378  0.1767  0.1932  0.4257
13846TIP3    H163029   2.240   1.400   3.466  2.1365  0.0011  0.0003
13846TIP3    H263030   2.285   1.507   3.369 -0.3391  0.5090 -0.6189
13847TIP3   OH263031   2.802   3.646   0.768 -0.1075 -0.3342  0.3972
13847TIP3    H163032   2.772   3.716   0.711  1.2105 -0.4071 -0.4262
13847TIP3    H263033   2.732   3.581   0.765 -2.1285  1.6850  2.5708
13848TIP3   OH263034   3.524   2.411   3.215  0.2635  0.1702  0.2070
13848TIP3    H163035   3.524   2.404   3.311  1.1486  1.1617  0.2832
13848TIP3    H263036   3.599   2.466   3.195  0.0582 -0.0045 -1.0660
13849TIP3   OH263037   1.881   1.264   5.080  0.1069  0.5917 -0.6942
13849TIP3    H163038   1.843   1.350   5.100 -0.6807 -0.1040  0.8999
13849TIP3    H263039   1.838   1.237   4.999 -2.5132  0.0233  0.8419
13850TIP3   OH263040   2.043   1.861   3.250 -0.1338  0.3270  0.1559
13850TIP3    H163041   2.081   1.831   3.333  0.7493  0.1335 -0.3158
13850TIP3    H263042   1.972   1.919   3.277 -2.0001 -2.2599  1.1143
13851TIP3   OH263043   0.065   4.867   2.044  0.3567 -0.4182  0.0199
13851TIP3    H163044  -0.006   4.862   1.980 -1.3313  0.0336  1.8374
13851TIP3    H263045   0.138   4.823   2.001 -1.6349 -2.8181 -1.0065
13852TIP3   OH263046   1.318   4.739   3.152  0.1736 -0.3022  0.5753
13852TIP3    H163047   1.251   4.672   3.136 -0.4211  0.7872 -1.6765
13852TIP3    H263048   1.401   4.693   3.143 -0.2147 -0.5923 -1.6939
13853TIP3   OH263049   1.505   0.506   2.572 -0.0162 -0.1535  0.5534
13853TIP3    H163050   1.546   0.582   2.613  0.8825 -0.7986  0.8717
13853TIP3    H263051   1.426   0.490   2.625  0.2520  0.0284  1.0077
13854TIP3   OH263052   2.500   1.731   1.203 -0.4245 -0.4712  0.0053
13854TIP3    H163053   2.581   1.714   1.250 -1.5356 -1.1943  1.7120
13854TIP3    H263054   2.478   1.648   1.162 -0.7040 -0.4938  0.1981
13855TIP3   OH263055   2.148   5.401   5.646  0.3208 -0.2234 -0.0427
13855TIP3    H163056   2.229   5.445   5.671 -0.4906  0.8401  0.7868
13855TIP3    H263057   2.090   5.472   5.620  0.1079 -1.0827 -1.9905
13856TIP3   OH263058   1.939   7.128   4.769  0.4897 -0.2942  0.3860
13856TIP3    H163059   1.888   7.181   4.708  0.7276  0.3843  0.7607
13856TIP3    H263060   1.884   7.122   4.847 -0.5614 -2.6317 -0.5046
13857TIP3   OH263061   1.042   6.587   2.993  0.2235 -0.1672  0.8571
13857TIP3    H163062   1.095   6.664   3.013 -0.4559  0.4782  0.2455
13857TIP3    H263063   0.952   6.615   3.013 -0.5370  0.6405 -3.2866
13858TIP3   OH263064   4.654   2.575   3.911  0.4427  0.3881 -0.3224
13858TIP3    H163065   4.666   2.508   3.844 -2.0752  0.3961 -0.8288
13858TIP3    H263066   4.628   2.525   3.989  1.5800  0.5347  0.1609
13859TIP3   OH263067   0.085   7.133   4.069 -0.6390  0.3158  0.1624
13859TIP3    H163068   0.074   7.045   4.104 -1.1817  0.1610 -0.3947
13859TIP3    H263069   0.019   7.185   4.115  0.4113  0.6647  1.2913
13860TIP3   OH263070   3.081   7.028   4.647  0.1196 -0.5208  0.0617
13860TIP3    H163071   3.028   6.972   4.590 -1.8829  0.4599  0.8807
13860TIP3    H263072   3.029   7.036   4.727  2.0038 -0.3286  1.3049
13861TIP3   OH263073   2.595   7.121   3.743  1.0843 -0.0135 -0.2897
13861TIP3    H163074   2.605   7.114   3.648  0.2450 -2.3856 -0.2518
13861TIP3    H263075   2.558   7.036   3.769  0.3810  0.9680  2.0280
13862TIP3   OH263076   2.782   6.638   1.499  0.2630 -0.2695 -0.5355
13862TIP3    H163077   2.742   6.715   1.539  2.1957  0.4260  0.0999
13862TIP3    H263078   2.724   6.566   1.523 -0.8654  0.7771 -0.0428
13863TIP3   OH263079   1.418   6.855   3.152  0.3261 -0.0657 -0.3917
13863TIP3    H163080   1.502   6.890   3.179 -0.4473  1.2869  0.3081
13863TIP3    H263081   1.404   6.779   3.208 -0.7590  2.0664  2.3524
13864TIP3   OH263082   3.208   0.775   2.737  0.8122  1.1081 -0.1426
13864TIP3    H163083   3.197   0.682   2.758  2.5143  0.9260  0.0432
13864TIP3    H263084   3.132   0.818   2.777  0.0106 -0.1985 -0.2376
13865TIP3   OH263085   3.471   0.943   1.282  0.3123 -0.1752  0.3393
13865TIP3    H163086   3.432   0.901   1.206 -1.9869  0.7379  0.9778
13865TIP3    H263087   3.449   1.036   1.273  1.6969  0.2435  1.1153
13866TIP3   OH263088   3.058   6.934   1.376  0.4079  0.3601 -0.3061
13866TIP3    H163089   3.044   6.964   1.465 -2.2132 -1.7210  0.0403
13866TIP3    H263090   3.061   6.838   1.383 -1.4745  0.0685 -2.6143
13867TIP3   OH263091   6.869   1.348   0.201  0.1017  0.4558 -0.2342
13867TIP3    H163092   6.899   1.408   0.269 -0.0538  0.1106  0.1449
13867TIP3    H263093   6.812   1.401   0.145  0.1805  0.7250 -0.0611
13868TIP3   OH263094   1.495   0.324   3.582  0.0711  0.2170  0.2956
13868TIP3    H163095   1.534   0.403   3.545  0.0382  0.2668  0.3674
13868TIP3    H263096   1.441   0.356   3.655  2.4792 -0.1272  2.3003
13869TIP3   OH263097   4.148   0.208   2.930 -0.1510 -0.4491  0.1022
13869TIP3    H163098   4.205   0.236   2.857 -1.2255 -0.8061 -0.8928
13869TIP3    H263099   4.070   0.262   2.921 -0.0099 -0.0206  1.4214
13870TIP3   OH263100   2.255   2.528   2.085 -0.1165 -0.3645  0.0236
13870TIP3    H163101   2.274   2.450   2.032 -1.1044 -1.1167  0.7484
13870TIP3    H263102   2.160   2.531   2.089 -0.1322  1.8749 -1.4201
13871TIP3   OH263103   3.112   2.614   1.527 -0.8347 -0.5920 -0.3228
13871TIP3    H163104   3.031   2.625   1.477 -2.6371 -1.1945  2.3505
13871TIP3    H263105   3.156   2.699   1.520 -0.8831 -0.7517 -3.1217
13872TIP3   OH263106   1.288   1.349   1.509 -0.6624  0.6229 -0.3652
13872TIP3    H163107   1.210   1.397   1.481 -2.4242 -1.1496  1.4075
13872TIP3    H263108   1.295   1.368   1.603 -0.4396 -1.2801  0.0138
13873TIP3   OH263109   5.037   1.562   2.898  0.4752  0.7502 -0.1669
13873TIP3    H163110   4.982   1.611   2.959  0.0092  0.4104 -0.3077
13873TIP3    H263111   5.126   1.569   2.934  0.2119  0.6101  0.5109
13874TIP3   OH263112   2.148   0.593   2.462 -0.2726  0.0949 -0.2890
13874TIP3    H163113   2.103   0.670   2.428  1.4507  0.2896 -2.2141
13874TIP3    H263114   2.099   0.519   2.427 -0.6843  0.2951 -0.1426
13875TIP3   OH263115   3.550   2.077   3.139  0.3922  0.2065  0.2377
13875TIP3    H163116   3.549   2.159   3.089 -0.8747  1.1432  1.7370
13875TIP3    H263117   3.539   2.008   3.073 -0.6625  1.3746 -0.8269
13876TIP3   OH263118   1.796   6.323   4.633 -0.5843 -0.2209  0.0663
13876TIP3    H163119   1.814   6.392   4.569 -2.2804 -0.1714 -0.3658
13876TIP3    H263120   1.841   6.246   4.597  0.1396  0.3042 -0.1616
13877TIP3   OH263121   3.224   2.104   4.450 -0.0426  0.6978 -0.2005
13877TIP3    H163122   3.209   2.186   4.496  0.3777  1.9532 -2.2181
13877TIP3    H263123   3.240   2.130   4.359 -1.1933 -1.7157 -1.1384
13878TIP3   OH263124   3.262   7.131   2.632  0.2109  0.1314  0.3250
13878TIP3    H163125   3.184   7.103   2.681  1.3298 -1.9671  0.9495
13878TIP3    H263126   3.257   7.227   2.632 -0.2787  0.1601  3.8305
13879TIP3   OH263127   3.324   3.370   4.957 -0.2640 -0.2889  0.1067
13879TIP3    H163128   3.375   3.290   4.946 -0.5366 -0.5011  0.3783
13879TIP3    H263129   3.239   3.349   4.916  1.1482  1.3699 -3.9508
13880TIP3   OH263130   2.563   5.802  15.590  0.3980  0.2322  0.4958
13880TIP3    H163131   2.566   5.800  15.494  0.5761 -1.8833  0.5124
13880TIP3    H263132   2.470   5.811  15.610  0.3258  0.3732  0.1091
13881TIP3   OH263133   2.589   3.169   4.061 -0.4425 -0.3428  0.3235
13881TIP3    H163134   2.570   3.262   4.055 -1.9651 -0.7084 -0.6142
13881TIP3    H263135   2.676   3.159   4.022 -0.5774  0.5810 -0.2092
13882TIP3   OH263136   1.226   5.697   4.449 -0.3479  0.0630 -0.3313
13882TIP3    H163137   1.191   5.639   4.380 -2.5962 -0.5227  1.2404
13882TIP3    H263138   1.298   5.743   4.406 -0.1887 -1.9715 -2.4076
13883TIP3   OH263139   2.635   0.393   4.312 -0.1311 -0.9021 -0.2316
13883TIP3    H163140   2.711   0.337   4.333 -2.0254 -2.8403  1.7799
13883TIP3    H263141   2.655   0.429   4.226  2.5142 -2.3927 -0.3068
13884TIP3   OH263142   1.878   1.448   2.046  0.5954 -0.3474  0.0144
13884TIP3    H163143   1.871   1.470   2.139 -0.2013 -0.3000 -0.0587
13884TIP3    H263144   1.971   1.426   2.034  0.2404 -2.7539  1.3474
13885TIP3   OH263145   2.958   1.937   2.739 -0.2637  0.4177  0.4737
13885TIP3    H163146   2.983   1.955   2.649 -0.1424 -0.6119  0.3005
13885TIP3    H263147   2.915   2.017   2.768 -1.5312  0.2499 -0.9207
13886TIP3   OH263148   2.728   1.999   1.749 -1.0013  0.0177  0.0051
13886TIP3    H163149   2.799   2.062   1.755 -0.5814 -0.5009  0.4760
13886TIP3    H263150   2.658   2.046   1.703 -0.3148  0.4801 -0.5665
13887TIP3   OH263151   6.419   0.704   3.968  0.3487 -0.0418 -0.0750
13887TIP3    H163152   6.455   0.680   4.053 -0.8272 -0.0920  0.4194
13887TIP3    H263153   6.492   0.742   3.920  1.1003 -0.3493  0.8314
13888TIP3   OH263154   3.962   1.538   0.296 -0.1555  0.4342 -0.4916
13888TIP3    H163155   3.952   1.503   0.207  0.9401  0.3420 -0.5846
13888TIP3    H263156   4.016   1.474   0.341 -0.5119  0.6019  0.1850
13889TIP3   OH263157   2.400   3.063   2.390  0.1276 -0.2021  0.1596
13889TIP3    H163158   2.420   3.113   2.469 -0.4266 -0.0907  0.2321
13889TIP3    H263159   2.483   3.057   2.344  0.2065  0.7545  0.1710
13890TIP3   OH263160   5.680   2.076   3.940 -0.5145 -0.1645 -0.2113
13890TIP3    H163161   5.623   2.039   4.007 -1.4683  1.0468 -0.3375
13890TIP3    H263162   5.702   2.163   3.974  1.3467 -0.6471 -0.1135
13891TIP3   OH263163   0.864   0.005   3.126  0.2426 -0.3348 -0.5839
13891TIP3    H163164   0.910  -0.054   3.067  1.7093 -1.8022  1.9682
13891TIP3    H263165   0.794  -0.049   3.164  0.5777  0.0366  0.5519
13892TIP3   OH263166   3.926   1.981   3.687 -0.1424  0.0846  0.5531
13892TIP3    H163167   3.887   2.035   3.756  0.6134 -0.6691  1.5988
13892TIP3    H263168   4.019   1.976   3.711  0.5644  1.5268 -1.6701
13893TIP3   OH263169   3.278   1.578   4.163 -0.0058  0.3974 -0.1022
13893TIP3    H163170   3.207   1.614   4.216  0.5479  2.8091 -0.9207
13893TIP3    H263171   3.262   1.484   4.161 -1.6477  0.6050  1.9400
13894TIP3   OH263172   3.975   2.596   2.073 -0.0327  0.1832 -0.1214
13894TIP3    H163173   3.913   2.573   2.004 -0.4252  2.2505 -0.4962
13894TIP3    H263174   3.920   2.616   2.149  0.1246  1.9956 -0.4462
13895TIP3   OH263175   2.765   1.326   0.168  0.6934 -0.3272  0.5950
13895TIP3    H163176   2.691   1.269   0.148  2.0127 -1.5652 -0.9026
13895TIP3    H263177   2.832   1.268   0.204  0.5389  0.9662  3.0252
13896TIP3   OH263178   2.666   2.685   2.340  0.2401  0.0531 -0.0893
13896TIP3    H163179   2.610   2.714   2.268 -2.9076 -0.5580  1.9722
13896TIP3    H263180   2.610   2.625   2.391  3.2042 -1.5309  1.4275
13897TIP3   OH263181   4.386   7.026   3.832  0.0193  0.0028 -0.0374
13897TIP3    H163182   4.314   7.086   3.814 -0.8413 -1.0517 -0.1731
13897TIP3    H263183   4.344   6.946   3.864  1.0363 -1.0930 -1.3342
13898TIP3   OH263184   4.021   0.911   4.458  0.2314 -0.0104 -0.2294
13898TIP3    H163185   3.973   0.845   4.507 -0.3078  0.4402 -0.1425
13898TIP3    H263186   3.992   0.994   4.496  2.5352  0.1933  1.1653
13899TIP3   OH263187   3.268   2.313   3.738  0.0737 -0.3122  0.1855
13899TIP3    H163188   3.288   2.291   3.829 -0.4483 -1.8845 -0.0580
13899TIP3    H263189   3.290   2.233   3.689 -2.2819 -0.4532 -0.6929
13900TIP3   OH263190   1.678   5.744   2.809 -0.3980  0.1767  0.6033
13900TIP3    H163191   1.601   5.708   2.764  0.1043 -0.6796  0.4251
13900TIP3    H263192   1.742   5.757   2.739  0.4491 -1.3130  1.0711
13901TIP3   OH263193   1.351   0.400   3.799 -0.2771 -0.0958  0.9248
13901TIP3    H163194   1.380   0.339   3.866  1.1875  0.2295  0.5922
13901TIP3    H263195   1.342   0.483   3.844  0.1153 -0.0132  0.8524
13902TIP3   OH263196   3.270   4.373   1.477 -1.0898  0.2557  0.0456
13902TIP3    H163197   3.192   4.423   1.455 -0.1915  1.3561 -0.6966
13902TIP3    H263198   3.303   4.413   1.557 -0.6470  0.5288 -0.2742
13903TIP3   OH263199   1.540   0.453   2.124  0.3914 -0.1328  0.0092
13903TIP3    H163200   1.452   0.442   2.161  0.3487  1.2761  0.3727
13903TIP3    H263201   1.556   0.548   2.129  1.1646 -0.1496 -1.8365
13904TIP3   OH263202   2.330   1.964   2.532  0.0486  0.0858  0.0772
13904TIP3    H163203   2.302   2.048   2.567  0.9834  0.0785  0.8531
13904TIP3    H263204   2.311   1.969   2.438 -2.5609  0.0768  0.5729
13905TIP3   OH263205   2.075   0.133   1.724  0.1042 -0.2649 -0.0400
13905TIP3    H163206   2.048   0.225   1.718  1.8617  0.3566  1.1096
13905TIP3    H263207   2.146   0.125   1.660  0.0220 -0.7829 -0.0647
13906TIP3   OH263208   2.529   0.212   5.364  0.1476 -0.3529 -0.1544
13906TIP3    H163209   2.543   0.127   5.323  0.7598 -0.4797  0.3030
13906TIP3    H263210   2.570   0.204   5.450  0.6676  0.5757 -0.3049
13907TIP3   OH263211   3.357   2.902   2.538 -0.2741  0.2044  0.2115
13907TIP3    H163212   3.442   2.946   2.547  0.2417 -0.3541 -1.6523
13907TIP3    H263213   3.302   2.966   2.494 -0.1679 -0.2009 -0.5255
13908TIP3   OH263214   4.165   2.879   4.965  0.1080 -0.3126  0.3262
13908TIP3    H163215   4.124   2.964   4.980 -0.1974 -0.2026 -1.1318
13908TIP3    H263216   4.249   2.885   5.010 -0.1373  0.5618  0.6800
13909TIP3   OH263217   1.104   0.066   2.042  0.0350  0.2551 -0.4066
13909TIP3    H163218   1.098   0.120   1.963 -2.4930 -0.6990 -0.8975
13909TIP3    H263219   1.027   0.090   2.094  0.4614 -0.7674  0.7235
13910TIP3   OH263220   0.960   6.092   4.694 -0.2130 -0.0759  0.0987
13910TIP3    H163221   0.906   6.026   4.650  0.8255 -0.4190 -0.6946
13910TIP3    H263222   1.043   6.048   4.709  0.2968  0.8680  0.0856
13911TIP3   OH263223   4.136   1.031   4.205  0.4565  0.4000  0.5667
13911TIP3    H163224   4.098   1.106   4.158  0.7283  0.0712 -0.1848
13911TIP3    H263225   4.063   0.994   4.254 -0.6715 -1.3698 -2.3373
13912TIP3   OH263226   7.336   0.780   3.507  0.7187 -0.0916  0.4156
13912TIP3    H163227   7.424   0.797   3.539  1.6160 -0.2003 -1.8794
13912TIP3    H263228   7.309   0.699   3.550  2.6565 -1.2991 -0.5674
13913TIP3   OH263229   7.325   7.231   1.984  0.0375  0.0918 -0.2234
13913TIP3    H163230   7.393   7.283   1.941 -0.1847  1.8060  1.4882
13913TIP3    H263231   7.316   7.269   2.071 -2.2224 -0.9332  0.0224
13914TIP3   OH263232   2.912   3.170   2.001 -0.2431 -0.1000 -0.5246
13914TIP3    H163233   2.833   3.219   2.024  0.6720  0.2325  2.1368
13914TIP3    H263234   2.939   3.205   1.917 -0.4055  2.9978  0.6598
13915TIP3   OH263235   2.859   1.128   2.236 -0.1992  0.2097  0.0203
13915TIP3    H163236   2.873   1.042   2.197  1.3544  0.3078  0.3350
13915TIP3    H263237   2.765   1.131   2.255  0.1070 -2.4223  2.3488
13916TIP3   OH263238   2.026   0.150   0.979  0.5226  0.2834 -0.3050
13916TIP3    H163239   2.031   0.055   0.982 -3.3651  0.0229  1.9620
13916TIP3    H263240   2.009   0.171   0.888  1.4031 -1.1863 -0.8156
13917TIP3   OH263241   3.132   2.412   1.733 -0.2216 -0.3275  0.4237
13917TIP3    H163242   3.116   2.472   1.660  1.7186 -1.9036 -1.3356
13917TIP3    H263243   3.171   2.467   1.801  0.3807  0.6391 -0.6905
13918TIP3   OH263244   1.005   0.479   2.710  0.1359  0.3637  0.2699
13918TIP3    H163245   1.011   0.475   2.615 -1.4599 -0.0187  0.1612
13918TIP3    H263246   0.990   0.571   2.729  1.8174  0.6504  0.2580
13919TIP3   OH263247   3.133   7.339   2.198 -0.3609  0.0457 -0.0706
13919TIP3    H163248   3.110   7.257   2.241 -1.2894  0.6833  0.6741
13919TIP3    H263249   3.142   7.402   2.269 -3.9138  1.5896 -0.8528
13920TIP3   OH263250   3.471   1.368   3.836  0.1920  0.3267  0.7080
13920TIP3    H163251   3.384   1.329   3.832 -0.0429  0.8775  0.4338
13920TIP3    H263252   3.527   1.298   3.869 -0.6509  0.4718  2.5042
13921TIP3   OH263253   2.899   0.737   5.120  0.0576  0.2442 -0.3862
13921TIP3    H163254   2.914   0.831   5.120 -0.8561  0.4101 -2.6395
13921TIP3    H263255   2.939   0.706   5.039  1.0981 -1.4521  0.7407
13922TIP3   OH263256   2.967   1.921   0.315 -0.0832  0.3811 -0.4742
13922TIP3    H163257   3.046   1.912   0.370 -0.6548 -1.2103  0.1376
13922TIP3    H263258   2.925   1.835   0.321 -1.8229  1.1914 -0.8649
13923TIP3   OH263259   5.400   2.467   2.874 -0.9687  0.4708 -0.1787
13923TIP3    H163260   5.420   2.411   2.949  1.5038  0.8926 -0.4724
13923TIP3    H263261   5.363   2.546   2.912  1.0391  1.0282  0.7114
13924TIP3   OH263262   2.925   2.208   0.384 -0.7407  0.6251  0.0334
13924TIP3    H163263   2.892   2.125   0.349 -0.9211  0.5738  0.3221
13924TIP3    H263264   2.856   2.239   0.442 -0.5822  0.8733  0.0914
13925TIP3   OH263265   0.876   0.165   4.041  0.7660 -0.5846  0.0540
13925TIP3    H163266   0.940   0.098   4.019  0.5345 -0.4366 -1.1155
13925TIP3    H263267   0.928   0.242   4.064  1.0170 -0.5380 -0.6595
13926TIP3   OH263268   2.707   1.209   1.512 -0.1331 -0.3509  0.0417
13926TIP3    H163269   2.737   1.129   1.469 -0.8065  0.4881 -2.0444
13926TIP3    H263270   2.782   1.235   1.566  1.4361 -0.4933 -1.9808
13927TIP3   OH263271   2.344   0.666   4.240  0.0431 -0.3535 -0.1044
13927TIP3    H163272   2.317   0.730   4.306 -0.5329 -1.0213  0.3257
13927TIP3    H263273   2.386   0.596   4.290  2.4966  0.6190 -0.7667
13928TIP3   OH263274   2.770   7.273   3.114  0.0130  0.1108 -0.5412
13928TIP3    H163275   2.713   7.249   3.187 -0.1175  1.1342 -0.3060
13928TIP3    H263276   2.726   7.239   3.036 -0.8886  0.8409 -0.3527
13929TIP3   OH263277   2.584   0.561   2.538  0.3221  0.3721 -0.3640
13929TIP3    H163278   2.508   0.518   2.576  1.5952 -1.5324  0.1039
13929TIP3    H263279   2.607   0.507   2.463 -0.5122  2.5705 -2.2316
13930TIP3   OH263280   1.430   6.687   4.533 -0.1307  0.2741 -0.4356
13930TIP3    H163281   1.438   6.598   4.500 -1.5612  0.1737 -0.5153
13930TIP3    H263282   1.520   6.712   4.555  0.1400 -1.6442  0.8022
13931TIP3   OH263283   0.708   7.232   0.025  0.1218  0.0704 -0.0518
13931TIP3    H163284   0.686   7.220   0.117 -0.2815 -1.6713 -0.3646
13931TIP3    H263285   0.803   7.245   0.024  0.1627 -0.1790  0.5860
13932TIP3   OH263286   2.527   1.844   4.985  0.0258  0.9079  0.2855
13932TIP3    H163287   2.483   1.804   5.060  0.8067 -0.6431 -0.0658
13932TIP3    H263288   2.457   1.891   4.938 -1.1435 -1.0694  0.0191
13933TIP3   OH263289   2.333   7.208   2.046 -0.1423 -0.7009 -0.1496
13933TIP3    H163290   2.303   7.298   2.030  1.5573 -0.2659 -0.9694
13933TIP3    H263291   2.281   7.154   1.986  0.7357  0.0565 -1.6250
13934TIP3   OH263292   2.255   7.238   4.003 -0.1369 -0.0734 -0.5422
13934TIP3    H163293   2.205   7.305   3.957  0.8791 -0.1358 -1.7707
13934TIP3    H263294   2.308   7.286   4.066 -2.8337 -0.1309  1.8613
13935TIP3   OH263295   3.519   0.284   1.483  0.0938  0.5691 -0.3786
13935TIP3    H163296   3.577   0.354   1.514 -0.3005  1.5517 -1.7656
13935TIP3    H263297   3.544   0.271   1.391 -1.0908  0.2074 -0.6632
13936TIP3   OH263298   0.394   6.043   4.296  0.1070  0.1199  0.4664
13936TIP3    H163299   0.382   6.135   4.322 -0.7549  0.0737  0.2445
13936TIP3    H263300   0.475   6.017   4.339  0.2148  0.9104  0.7567
13937TIP3   OH263301   0.152   4.022   4.719 -0.3833  0.3037 -0.1904
13937TIP3    H163302   0.107   4.061   4.794 -0.6320  2.5990 -1.4996
13937TIP3    H263303   0.243   4.048   4.730 -0.2582 -0.1242 -0.2046
13938TIP3   OH263304   3.831   2.660   2.890  0.1091  0.3577 -0.7396
13938TIP3    H163305   3.910   2.609   2.901 -0.1686  0.1245  0.2740
13938TIP3    H263306   3.782   2.616   2.821  0.4063 -0.0654 -0.6781
13939TIP3   OH263307   4.044   1.230   3.577 -0.6345 -0.2318 -0.0216
13939TIP3    H163308   4.000   1.314   3.568  0.1189  0.0608 -1.1309
13939TIP3    H263309   3.974   1.165   3.570 -1.1706  0.2867  0.4711
13940TIP3   OH263310   4.366   3.090   4.733 -0.3313  0.1936 -0.0644
13940TIP3    H163311   4.361   3.154   4.803  1.8337  0.4780 -0.1408
13940TIP3    H263312   4.289   3.109   4.678 -0.6760  1.5705  0.8595
13941TIP3   OH263313   1.176   5.192   4.459 -0.0704 -0.3070  0.0561
13941TIP3    H163314   1.163   5.221   4.550  0.2195  0.0816 -0.0254
13941TIP3    H263315   1.268   5.210   4.442 -0.6659  1.7631 -1.0836
13942TIP3   OH263316   6.752   0.169   5.186 -0.5351 -0.4438  0.5020
13942TIP3    H163317   6.788   0.209   5.265 -0.1358  0.7277 -0.2548
13942TIP3    H263318   6.717   0.243   5.135 -2.9171 -1.4046  0.6469
13943TIP3   OH263319   2.684   7.095   3.492 -0.0259 -0.3165  0.1539
13943TIP3    H163320   2.727   7.063   3.413 -1.3306 -0.1216 -0.6454
13943TIP3    H263321   2.644   7.178   3.466 -0.4975 -0.2657  1.0119
13944TIP3   OH263322   3.431   2.045   5.316  0.4758  0.2617  0.2961
13944TIP3    H163323   3.478   1.972   5.356  1.7414  1.9534  1.9929
13944TIP3    H263324   3.500   2.105   5.287 -0.5371  0.6090 -1.4549
13945TIP3   OH263325   1.866   0.983   3.919 -0.4503 -0.4394 -0.3932
13945TIP3    H163326   1.891   0.898   3.883 -0.6167 -0.7432  0.2095
13945TIP3    H263327   1.855   0.968   4.012 -1.9095 -0.0743 -0.4932
13946TIP3   OH263328   7.240   6.702   6.011 -0.5785  0.2300 -0.4215
13946TIP3    H163329   7.232   6.698   6.106  0.6704  0.5529 -0.3017
13946TIP3    H263330   7.260   6.794   5.992  0.3194 -0.0666 -0.9112
13947TIP3   OH263331   2.801   2.680   3.286 -0.1296  0.2072 -0.2426
13947TIP3    H163332   2.865   2.614   3.313 -0.6604 -0.2925 -0.1955
13947TIP3    H263333   2.716   2.638   3.299 -0.4305  0.4341 -1.4426
13948TIP3   OH263334   2.785   0.206   3.024 -0.0941  0.3008 -0.3958
13948TIP3    H163335   2.788   0.111   3.029 -1.2754  0.2206 -1.1307
13948TIP3    H263336   2.744   0.233   3.106 -1.4165  0.0660 -0.9635
13949TIP3   OH263337   3.462   3.150   1.723 -0.5138 -0.0001  0.3828
13949TIP3    H163338   3.414   3.195   1.793  1.6494  3.3911 -0.1841
13949TIP3    H263339   3.554   3.160   1.748  0.3023  1.3428 -2.9240
13950TIP3   OH263340   3.189   2.061   1.404 -0.5534 -0.2655  0.4914
13950TIP3    H163341   3.167   2.033   1.315  0.6742 -0.7155  0.3139
13950TIP3    H263342   3.126   2.129   1.424 -1.1968 -0.5475 -0.5166
13951TIP3   OH263343   2.606   2.293   4.473 -0.3024 -0.4555 -0.2968
13951TIP3    H163344   2.599   2.214   4.420 -1.5392 -1.4798  1.3345
13951TIP3    H263345   2.516   2.319   4.489  0.0706  0.2828  0.6306
13952TIP3   OH263346   4.326   3.270   1.994  0.4705  0.4219  0.1319
13952TIP3    H163347   4.283   3.352   2.018 -0.1182  0.4959 -1.1185
13952TIP3    H263348   4.419   3.288   2.002  0.3602  1.3816 -0.6477
13953TIP3   OH263349   4.045   3.329   2.773 -0.0728  0.1161  0.5268
13953TIP3    H163350   3.973   3.308   2.714 -0.0798 -1.1377  0.9691
13953TIP3    H263351   4.097   3.249   2.778  1.6032  1.1329 -0.1299
13954TIP3   OH263352   3.002   6.376   3.141 -0.3323  0.0645 -0.2977
13954TIP3    H163353   2.918   6.353   3.182 -0.7065  2.1590  0.2011
13954TIP3    H263354   3.055   6.409   3.214  0.2773  0.4408 -0.9113
13955TIP3   OH263355   2.153   6.761   5.340  0.2206  0.0331 -0.2434
13955TIP3    H163356   2.149   6.856   5.333 -1.6229 -0.1514 -2.3090
13955TIP3    H263357   2.107   6.742   5.422  1.2315  0.9326  0.5542
13956TIP3   OH263358   1.630   0.490   1.011  0.1790 -0.2728 -0.2742
13956TIP3    H163359   1.652   0.408   0.969 -1.2170 -0.8756  0.1311
13956TIP3    H263360   1.567   0.532   0.952 -1.0605 -0.6851  0.7220
13957TIP3   OH263361   5.812   1.345   3.514 -0.6705  0.4791 -0.0190
13957TIP3    H163362   5.809   1.274   3.449  2.1452  0.5103 -0.2511
13957TIP3    H263363   5.816   1.425   3.461  2.6205  0.4622  0.0967
13958TIP3   OH263364   5.563   1.762   3.816 -0.2103 -0.1820  0.1849
13958TIP3    H163365   5.600   1.800   3.736  0.5116  0.1683  0.6806
13958TIP3    H263366   5.639   1.742   3.870 -0.6865 -0.6441  0.6811
13959TIP3   OH263367   5.333   0.803   5.332  0.0154 -0.1182 -0.1711
13959TIP3    H163368   5.343   0.802   5.427 -1.8713 -0.8148  0.0405
13959TIP3    H263369   5.240   0.785   5.317 -0.0922  1.7363 -2.0866
13960TIP3   OH263370   3.114   6.986   2.065 -0.0107  0.0811  0.1733
13960TIP3    H163371   3.095   7.044   2.139  1.1156 -0.1876  0.6931
13960TIP3    H263372   3.080   7.032   1.989 -1.2742  0.3250  0.8702
13961TIP3   OH263373   3.359   6.325   3.691 -0.0506  0.2357 -0.2335
13961TIP3    H163374   3.266   6.313   3.709  0.4351 -1.4132  1.2057
13961TIP3    H263375   3.400   6.330   3.777  1.4156 -0.8127 -0.8575
13962TIP3   OH263376   4.056   3.169   4.068  0.0350  0.2052 -0.8089
13962TIP3    H163377   4.065   3.228   3.993  0.7253  0.9200 -0.1749
13962TIP3    H263378   4.005   3.219   4.132  1.0285  0.3132 -0.0848
13963TIP3   OH263379   1.717   2.949   3.838  0.0853 -0.6068 -0.4777
13963TIP3    H163380   1.637   2.993   3.809 -0.5251 -2.3037 -1.4305
13963TIP3    H263381   1.726   2.874   3.779  1.1438 -1.7084  1.0506
13964TIP3   OH263382   2.525   0.958   4.656 -0.0616 -0.3878 -0.3890
13964TIP3    H163383   2.485   0.902   4.723 -1.0464 -0.1090 -0.7350
13964TIP3    H263384   2.467   1.034   4.651  1.1373  0.5738 -0.0837
13965TIP3   OH263385   2.149   0.033   2.437 -0.3592 -0.0262 -0.5090
13965TIP3    H163386   2.115  -0.036   2.381 -1.2059 -0.6122  0.7003
13965TIP3    H263387   2.244   0.018   2.439 -0.5337 -1.1370 -0.2895
13966TIP3   OH263388   3.367   1.256   0.604  0.0792  0.1474  0.3877
13966TIP3    H163389   3.274   1.263   0.582  0.5697 -1.4085 -2.5244
13966TIP3    H263390   3.412   1.286   0.525  2.0385 -1.1350  0.9789
13967TIP3   OH263391   4.171   6.304   1.850  0.1628 -0.0693  0.2999
13967TIP3    H163392   4.167   6.292   1.945  0.9640  2.6074  0.7019
13967TIP3    H263393   4.137   6.392   1.835  0.9007 -0.1154 -1.8213
13968TIP3   OH263394   2.301   1.824   3.906 -1.0017  0.1036  0.3576
13968TIP3    H163395   2.342   1.858   3.826  0.0661 -1.6206  0.1509
13968TIP3    H263396   2.219   1.874   3.913 -0.5653  1.0900 -1.1772
13969TIP3   OH263397   4.154   1.128   4.874 -0.4563  0.3244  0.5200
13969TIP3    H163398   4.179   1.219   4.859 -1.4885  0.4518 -0.5040
13969TIP3    H263399   4.192   1.107   4.959 -0.9702  2.0093  1.1966
13970TIP3   OH263400   6.681   0.816   3.894 -0.1530  0.1018 -0.4852
13970TIP3    H163401   6.738   0.741   3.912 -0.1292 -0.0038 -0.9898
13970TIP3    H263402   6.682   0.824   3.798 -1.6811 -0.4288 -0.5445
13971TIP3   OH263403   6.795   5.421   5.640  0.2954  0.1036 -0.1143
13971TIP3    H163404   6.853   5.392   5.570  1.6851 -0.2195  1.1507
13971TIP3    H263405   6.745   5.343   5.665  0.7880 -0.1065  0.2054
13972TIP3   OH263406   4.861   5.904   0.970 -0.5610 -0.7432 -0.0453
13972TIP3    H163407   4.853   5.997   0.951  0.8539 -0.7862 -0.9466
13972TIP3    H263408   4.797   5.888   1.039 -0.6347  0.9445  0.3010
13973TIP3   OH263409   1.252   7.015   3.850  0.2885  0.7156 -0.6222
13973TIP3    H163410   1.311   7.013   3.774  1.2682 -1.7172  0.1810
13973TIP3    H263411   1.167   6.989   3.814  1.0756 -1.9509 -0.6355
13974TIP3   OH263412   0.774   4.779   5.433  0.0050 -0.3817 -0.4782
13974TIP3    H163413   0.689   4.825   5.436  1.0101  1.4879  0.1635
13974TIP3    H263414   0.767   4.720   5.358 -1.9978 -0.5057 -0.2213
13975TIP3   OH263415   2.622   5.652   3.673 -0.6876 -0.2798  0.3324
13975TIP3    H163416   2.585   5.697   3.749 -4.0599  1.1246 -2.0071
13975TIP3    H263417   2.672   5.718   3.627  1.3878 -1.1407  1.2887
13976TIP3   OH263418   2.503   1.478   3.226  0.4422  0.1339  0.3086
13976TIP3    H163419   2.433   1.544   3.222 -0.2943 -0.6927 -0.7658
13976TIP3    H263420   2.571   1.513   3.169 -0.4691 -0.6082 -1.2675
13977TIP3   OH263421   0.711   0.531   2.137 -0.3529 -0.3144  0.6654
13977TIP3    H163422   0.698   0.490   2.052  0.2577  0.2793  0.2825
13977TIP3    H263423   0.758   0.612   2.118 -2.2552  0.9909  1.3142
13978TIP3   OH263424   4.695   1.287   0.651  0.0064 -0.0761  0.3784
13978TIP3    H163425   4.724   1.331   0.731  1.7197 -0.4302 -0.0161
13978TIP3    H263426   4.634   1.348   0.610 -0.5464  0.2959  1.7236
13979TIP3   OH263427   6.758   2.743   1.959  0.3482 -0.0624 -0.4777
13979TIP3    H163428   6.851   2.722   1.957  0.2613 -0.4346 -0.7265
13979TIP3    H263429   6.716   2.661   1.985  0.2116  0.5079  1.1509
13980TIP3   OH263430   2.788   1.321   5.058  0.3866  0.1143  0.2295
13980TIP3    H163431   2.745   1.242   5.090  0.5375  0.1311  0.4779
13980TIP3    H263432   2.759   1.330   4.968  0.3641 -0.2215  0.2034
13981TIP3   OH263433   7.332   1.286   2.879  0.5534  0.0658  0.8962
13981TIP3    H163434   7.396   1.216   2.864  2.4315  1.8696  0.3246
13981TIP3    H263435   7.257   1.242   2.920  1.6445 -2.2915  0.4290
13982TIP3   OH263436   3.166   0.761   3.327  0.4940 -0.6781  0.7864
13982TIP3    H163437   3.145   0.809   3.408 -0.4107  2.1435 -1.0375
13982TIP3    H263438   3.105   0.687   3.327 -1.3665  0.7959  1.4067
13983TIP3   OH263439   2.496   0.785   4.932  0.4436 -0.0657 -0.9044
13983TIP3    H163440   2.507   0.735   5.012  1.2244  0.1378 -0.8796
13983TIP3    H263441   2.403   0.809   4.931  0.5194  0.2856  0.1478
13984TIP3   OH263442   0.869   5.725   2.276 -0.1558 -0.7164  0.4176
13984TIP3    H163443   0.813   5.793   2.313  0.1052 -1.4829  2.2673
13984TIP3    H263444   0.864   5.653   2.339  2.2182 -1.1217  0.1710
13985TIP3   OH263445   2.216   0.592   3.183  0.3793  0.5061  0.0603
13985TIP3    H163446   2.261   0.676   3.174  0.9660  0.1572 -0.2920
13985TIP3    H263447   2.211   0.558   3.094  1.8569 -0.7244  0.4320
13986TIP3   OH263448   3.078   1.826   4.014  0.2034 -0.1704 -0.3086
13986TIP3    H163449   3.033   1.911   4.020  1.7607  0.6579 -0.1159
13986TIP3    H263450   3.053   1.792   3.929  2.3695  2.1400 -1.9338
13987TIP3   OH263451   3.316   1.619  15.790 -0.0998 -0.0583  0.4295
13987TIP3    H163452   3.332   1.712  15.779 -1.4276  0.0046 -1.0883
13987TIP3    H263453   3.306   1.585  15.701 -0.1194 -1.5550  0.9878
13988TIP3   OH263454   2.150   6.397   4.529 -0.3906 -0.0663  0.0842
13988TIP3    H163455   2.147   6.326   4.593 -1.0336 -1.3543 -1.3429
13988TIP3    H263456   2.198   6.467   4.573  0.4282 -1.4540  1.4443
13989TIP3   OH263457   3.750   3.899   3.218 -0.3628 -0.6622  0.1109
13989TIP3    H163458   3.697   3.925   3.142  0.0915  0.4560  0.1688
13989TIP3    H263459   3.717   3.812   3.241  0.5055 -1.6463 -2.2705
13990TIP3   OH263460   2.984   2.086   3.291 -0.5207  0.1339  0.3876
13990TIP3    H163461   2.964   2.152   3.357  3.1519  1.8913 -0.1164
13990TIP3    H263462   2.979   2.003   3.338 -3.7774  0.8179  1.3888
13991TIP3   OH263463   1.311   2.208   3.527  0.6946  0.5347 -0.4918
13991TIP3    H163464   1.235   2.264   3.508 -0.1092  0.0309  1.1686
13991TIP3    H263465   1.377   2.235   3.463 -0.3656  2.0075 -0.9923
13992TIP3   OH263466   2.033   1.862   5.771  0.0869  0.1964  0.0238
13992TIP3    H163467   2.012   1.787   5.826  0.5733 -0.0065 -0.0753
13992TIP3    H263468   2.044   1.935   5.833  1.9602 -0.3125  0.3029
13993TIP3   OH263469   1.981   6.792   3.986  0.7218 -0.7596  0.0914
13993TIP3    H163470   1.901   6.796   3.933  0.3785  0.1159  0.6683
13993TIP3    H263471   2.031   6.869   3.959 -0.1539  0.5808  2.1244
13994TIP3   OH263472   1.968   0.334   3.325 -0.5527  0.0040  0.8052
13994TIP3    H163473   2.023   0.303   3.397 -1.3392 -1.7524  0.6732
13994TIP3    H263474   2.011   0.414   3.295  0.8135 -0.2595  2.0000
13995TIP3   OH263475   3.928   7.265   3.989  0.3205 -0.0351  0.1810
13995TIP3    H163476   3.908   7.214   4.067  2.5684 -1.9576 -0.4635
13995TIP3    H263477   3.901   7.354   4.011 -1.1055 -0.9659  2.3277
13996TIP3   OH263478   0.361   0.307   1.854 -0.0375  0.6490 -0.2084
13996TIP3    H163479   0.266   0.311   1.862 -0.0136 -0.9241  0.9522
13996TIP3    H263480   0.390   0.397   1.869 -1.0996  0.5316  2.7652
13997TIP3   OH263481   2.249   1.583   3.125  0.8682  0.1665  0.3381
13997TIP3    H163482   2.217   1.612   3.039 -1.1818 -0.2452  0.9336
13997TIP3    H263483   2.253   1.487   3.117  0.4802  0.1142  0.7522
13998TIP3   OH263484   2.542   0.608   3.153  0.5837 -0.2129 -0.2103
13998TIP3    H163485   2.605   0.674   3.123 -0.7285  1.1119 -0.1036
13998TIP3    H263486   2.462   0.626   3.104 -0.0857 -1.1363  0.5050
13999TIP3   OH263487   1.535   6.165   3.765 -0.6868 -0.2580  0.2766
13999TIP3    H163488   1.612   6.137   3.716  0.2630  0.7496  1.1767
13999TIP3    H263489   1.517   6.092   3.825 -0.6996 -0.6735 -0.2249
14000TIP3   OH263490   2.681   5.876   0.614  0.3153 -0.4436 -0.1560
14000TIP3    H163491   2.753   5.816   0.591  1.7405  1.8481 -2.0224
14000TIP3    H263492   2.620   5.869   0.540  0.5354  0.4243 -0.4312
14001TIP3   OH263493   2.568   2.207   2.797  0.2960 -0.2289  0.2974
14001TIP3    H163494   2.491   2.264   2.801 -0.1384 -0.8679  1.2249
14001TIP3    H263495   2.533   2.122   2.770  1.0109  0.0593 -1.5958
14002TIP3   OH263496   1.433   5.874  15.476 -0.6557 -0.2204 -0.2143
14002TIP3    H163497   1.489   5.902  15.403  0.9398  0.5506  1.2565
14002TIP3    H263498   1.349   5.915  15.458 -0.0747  0.5771 -1.2391
14003TIP3   OH263499   1.012   7.095   3.566  0.3687 -0.0784 -0.0897
14003TIP3    H163500   0.942   7.153   3.537  0.6660  0.0768 -0.5029
14003TIP3    H263501   0.974   7.046   3.639  0.2952  1.0187  0.6057
14004TIP3   OH263502   2.839   0.734   1.503 -0.1756 -0.0854  0.2327
14004TIP3    H163503   2.912   0.714   1.444  0.6798  2.4708  0.3904
14004TIP3    H263504   2.763   0.695   1.461  1.0123 -1.4504 -0.7053
14005TIP3   OH263505   2.152   6.968   3.137 -0.1165 -0.2828 -0.0387
14005TIP3    H163506   2.230   7.008   3.099  1.3270 -1.4811  1.5335
14005TIP3    H263507   2.079   7.012   3.095  1.4133  1.2906 -1.1221
14006TIP3   OH263508   5.527   0.555   4.670 -0.0295 -0.2881 -0.4463
14006TIP3    H163509   5.481   0.475   4.696 -0.8352  1.3122  3.3012
14006TIP3    H263510   5.613   0.548   4.710 -0.6711  1.4092  1.3188
14007TIP3   OH263511   1.124   6.897   4.104  0.2557  0.2016  0.8287
14007TIP3    H163512   1.191   6.874   4.167 -0.2216  2.3498  2.1524
14007TIP3    H263513   1.169   6.952   4.040 -0.5348  3.0702  2.6426
14008TIP3   OH263514   4.598   0.430   0.652  0.4288  0.4370  0.5696
14008TIP3    H163515   4.658   0.356   0.651  0.3641  0.3840  0.5379
14008TIP3    H263516   4.644   0.499   0.604  1.3623  1.1311  2.4217
14009TIP3   OH263517   3.741   0.905   4.780 -0.1074 -0.3026  0.3164
14009TIP3    H163518   3.826   0.864   4.767  0.3273  0.5057  0.5522
14009TIP3    H263519   3.715   0.935   4.693 -2.0386 -4.1014 -0.5127
14010TIP3   OH263520   4.836   2.127   1.564 -0.4755 -0.8184  0.1620
14010TIP3    H163521   4.790   2.208   1.542 -1.1859 -0.4840  2.6982
14010TIP3    H263522   4.926   2.142   1.536 -1.2300 -0.3370 -2.1410
14011TIP3   OH263523   5.507   1.731   5.163 -0.6666 -0.1510  0.2005
14011TIP3    H163524   5.437   1.789   5.134 -0.8984  0.1665  1.3342
14011TIP3    H263525   5.487   1.715   5.256  0.7277 -0.0979  0.5155
14012TIP3   OH263526   4.573   2.980   2.789  0.0446  0.2106  0.1908
14012TIP3    H163527   4.488   3.023   2.789  0.1268  0.4039  1.7069
14012TIP3    H263528   4.635   3.048   2.817  0.5379 -0.2125  0.1409
14013TIP3   OH263529   3.603   0.094   4.114  0.6468  0.3922 -0.2117
14013TIP3    H163530   3.588   0.095   4.020  0.8937  2.1947 -0.2352
14013TIP3    H263531   3.691   0.130   4.126 -0.2415  2.2587  0.8542
14014TIP3   OH263532   6.475   2.353   3.571 -0.2711  0.0789  0.3639
14014TIP3    H163533   6.507   2.317   3.488  0.5806  0.9432  0.3172
14014TIP3    H263534   6.517   2.298   3.638  0.3818  0.4548  0.2683
14015TIP3   OH263535   6.268   6.628   4.997 -0.1514 -0.0971  0.2454
14015TIP3    H163536   6.256   6.542   4.958 -0.2164  0.2340 -0.4682
14015TIP3    H263537   6.287   6.685   4.923  2.2667  0.0587  0.9446
14016TIP3   OH263538   4.349   6.929   2.737  0.0893  0.0320  0.2806
14016TIP3    H163539   4.287   6.982   2.687 -2.1174 -4.3567 -1.9660
14016TIP3    H263540   4.302   6.908   2.818  1.3268  2.1591  1.5981
14017TIP3   OH263541   2.534   6.482   3.142 -0.0196 -0.0304  0.1452
14017TIP3    H163542   2.479   6.552   3.107 -0.5188  0.3261  1.5904
14017TIP3    H263543   2.611   6.482   3.086 -1.0700  0.0921 -1.3207
14018TIP3   OH263544   4.167   2.751   2.961 -0.4221  0.0057  0.4255
14018TIP3    H163545   4.148   2.666   3.000  3.3285 -0.0372  2.3706
14018TIP3    H263546   4.182   2.809   3.035  0.7137  1.4500 -0.8853
14019TIP3   OH263547   4.360   2.751   3.241  0.3312  0.3895  0.1760
14019TIP3    H163548   4.342   2.844   3.225  1.6332  0.6233 -0.0100
14019TIP3    H263549   4.335   2.708   3.159 -2.1504  0.2908  0.9491
14020TIP3   OH263550   4.495   0.319   2.891  0.0089  0.0453 -0.3326
14020TIP3    H163551   4.417   0.269   2.869 -0.2992 -0.2264  1.3048
14020TIP3    H263552   4.477   0.408   2.860 -1.2757  0.1666  0.7495
14021TIP3   OH263553   2.430   1.888   1.428 -0.6154 -0.1663  0.1457
14021TIP3    H163554   2.457   1.859   1.341 -2.0913  0.7737 -0.6474
14021TIP3    H263555   2.476   1.970   1.442 -1.9150  0.7056 -0.6053
14022TIP3   OH263556   3.362   1.211   2.358  0.1478 -0.2175  0.4819
14022TIP3    H163557   3.303   1.206   2.283 -0.4244  0.8140  0.8551
14022TIP3    H263558   3.307   1.186   2.433  0.4388 -0.2105  0.6977
14023TIP3   OH263559   5.087   2.627   3.474 -0.1670  0.0808  0.0520
14023TIP3    H163560   5.120   2.715   3.459 -0.4360  0.0793 -0.5754
14023TIP3    H263561   4.997   2.629   3.439 -0.5789 -0.1122  1.0787
14024TIP3   OH263562   4.140   1.161   1.629 -0.2316  0.4581  0.0481
14024TIP3    H163563   4.100   1.080   1.595 -0.5904  0.3676  0.6814
14024TIP3    H263564   4.165   1.139   1.719 -0.8990  1.2442  0.4233
14025TIP3   OH263565   4.148   0.617   2.216 -0.5753 -0.6310  0.0990
14025TIP3    H163566   4.218   0.553   2.225  0.3919  0.3537 -0.2628
14025TIP3    H263567   4.148   0.664   2.299 -1.7139 -1.5061  0.6130
14026TIP3   OH263568   5.457   7.110   2.444 -0.0062  0.4616 -0.2074
14026TIP3    H163569   5.507   7.056   2.383 -1.0813  0.5395 -1.1532
14026TIP3    H263570   5.368   7.109   2.410 -0.4965  0.9677  1.0444
14027TIP3   OH263571   1.395   5.128   3.658 -0.7102  0.0135 -0.0537
14027TIP3    H163572   1.304   5.123   3.631 -1.2928  0.2250  1.8003
14027TIP3    H263573   1.442   5.156   3.579 -2.3811  0.9025 -0.7600
14028TIP3   OH263574   4.949   1.242   1.488 -0.1111 -0.3962  0.1687
14028TIP3    H163575   4.868   1.191   1.489 -0.2630 -0.1406  1.5128
14028TIP3    H263576   4.929   1.320   1.540  0.3452  0.7004 -1.2634
14029TIP3   OH263577   4.559   1.472   1.715 -0.5330 -0.2437  0.4925
14029TIP3    H163578   4.467   1.448   1.702 -0.7419  0.9447 -0.3227
14029TIP3    H263579   4.557   1.565   1.735  0.3524 -0.6382  2.5004
14030TIP3   OH263580   6.357   1.817   2.775 -0.4669  0.1773  0.1593
14030TIP3    H163581   6.404   1.896   2.799  0.4192 -1.1690  3.1342
14030TIP3    H263582   6.266   1.834   2.802 -0.5134  0.5753 -0.2368
14031TIP3   OH263583   3.024   0.488   2.530  0.6265  0.8891  0.3712
14031TIP3    H163584   3.036   0.521   2.619  0.3507  1.5838  0.1515
14031TIP3    H263585   2.942   0.439   2.534  1.3938 -0.3754  0.8670
14032TIP3   OH263586   3.608   1.797   4.454 -0.4882  0.3815 -0.2237
14032TIP3    H163587   3.556   1.862   4.408 -0.5411  1.7088  1.6809
14032TIP3    H263588   3.544   1.738   4.494 -0.4444 -0.6023 -1.5534
14033TIP3   OH263589   5.446   1.005   2.396  0.1349 -0.2138  0.0553
14033TIP3    H163590   5.467   0.920   2.434  0.6895 -0.7862 -1.5209
14033TIP3    H263591   5.455   0.993   2.302 -0.2298  1.4693 -0.2154
14034TIP3   OH263592   1.206   3.096   2.664  0.8176  0.3199 -0.1389
14034TIP3    H163593   1.138   3.120   2.601  0.1422  2.7491  1.4394
14034TIP3    H263594   1.202   3.000   2.669 -2.0708  0.3773 -0.5468
14035TIP3   OH263595   5.304   0.938   3.712  0.1214  0.3047  0.5099
14035TIP3    H163596   5.216   0.943   3.675  0.1375 -0.1349  0.4159
14035TIP3    H263597   5.319   0.845   3.729  1.0803  0.2141 -0.7197
14036TIP3   OH263598   5.580   0.635   3.701  0.3534  0.0519 -0.1489
14036TIP3    H163599   5.591   0.587   3.619  0.2304 -1.9664  1.0013
14036TIP3    H263600   5.635   0.713   3.691 -1.2700  0.9034 -2.9754
14037TIP3   OH263601   5.611   1.338   3.066 -0.1513  0.0097  0.4368
14037TIP3    H163602   5.577   1.347   3.155 -0.7134 -2.1216  0.4535
14037TIP3    H263603   5.648   1.250   3.063 -0.4764 -0.0795 -1.5581
14038TIP3   OH263604   6.038   0.113   4.481  0.0973 -0.4903  0.1363
14038TIP3    H163605   6.127   0.077   4.484  0.8875  1.3922 -0.2494
14038TIP3    H263606   6.036   0.180   4.549 -1.3472 -1.2108  0.8162
14039TIP3   OH263607   0.335   2.002   1.848  0.0931 -0.2880  0.0241
14039TIP3    H163608   0.422   1.991   1.886  0.5305  0.6186 -0.6963
14039TIP3    H263609   0.351   2.041   1.762 -0.8926 -1.9853 -0.9589
14040TIP3   OH263610   5.485   3.019   3.395 -0.2839 -0.5548  0.5884
14040TIP3    H163611   5.491   3.083   3.466  0.1721 -0.6155  0.6084
14040TIP3    H263612   5.439   2.945   3.434  0.5043 -0.8289  1.0011
14041TIP3   OH263613   3.849   7.214   1.424  0.3428 -0.0618  0.2299
14041TIP3    H163614   3.860   7.153   1.497 -0.2914  0.4545  0.7656
14041TIP3    H263615   3.896   7.173   1.352  1.4591 -0.3009  1.0748
14042TIP3   OH263616   5.991   6.529   2.956  0.4854  0.4788 -0.2308
14042TIP3    H163617   6.081   6.501   2.968  0.4505  0.6002  0.3362
14042TIP3    H263618   5.975   6.591   3.028 -0.5848 -0.8515  0.7087
14043TIP3   OH263619   4.713   0.142   2.904 -0.3437  0.4493 -0.4998
14043TIP3    H163620   4.750   0.137   2.991 -0.2454  0.0654 -0.5656
14043TIP3    H263621   4.651   0.215   2.909 -1.4170 -0.4995  0.2901
14044TIP3   OH263622   4.769   1.351   4.398  0.5109  0.3889 -0.4330
14044TIP3    H163623   4.762   1.276   4.340 -0.6410  0.2862 -0.1748
14044TIP3    H263624   4.680   1.365   4.430  1.1432  0.3654  1.3997
14045TIP3   OH263625   2.779   1.742   2.625  0.5596 -0.6680  0.6028
14045TIP3    H163626   2.831   1.807   2.672  0.2810 -0.3194  0.4351
14045TIP3    H263627   2.819   1.738   2.538 -1.4939  1.8042 -0.5250
14046TIP3   OH263628   6.279   1.011   3.625  0.8756  0.0520  0.7165
14046TIP3    H163629   6.186   1.032   3.634  0.7668  0.7271 -1.7756
14046TIP3    H263630   6.323   1.096   3.620  1.6787 -0.2606  2.0812
14047TIP3   OH263631   2.892   6.552   1.980  0.4474 -0.2598  0.3840
14047TIP3    H163632   2.933   6.573   2.063  0.0277 -2.1280  1.0805
14047TIP3    H263633   2.805   6.592   1.985 -0.0357 -1.4065  1.3549
14048TIP3   OH263634   5.101   2.669   1.172  0.1549  0.4057  0.2242
14048TIP3    H163635   5.108   2.709   1.258  2.1620  1.2318 -0.2850
14048TIP3    H263636   5.180   2.615   1.164  1.1738  2.1078 -1.9559
14049TIP3   OH263637   3.688   3.155   3.546  0.3536  0.1391 -0.1186
14049TIP3    H163638   3.761   3.153   3.484 -0.7275  1.0995 -1.4890
14049TIP3    H263639   3.625   3.093   3.509 -0.6764  1.3854 -0.5029
14050TIP3   OH263640   4.431   2.114   3.333 -0.4066 -0.3091  0.4400
14050TIP3    H163641   4.429   2.019   3.321  0.5260 -0.4262  1.1778
14050TIP3    H263642   4.392   2.149   3.253  1.2857 -1.2341 -0.8232
14051TIP3   OH263643   5.851   1.071   4.041  0.0558 -0.1016  0.8236
14051TIP3    H163644   5.785   1.137   4.020 -0.7251 -1.6096 -1.5630
14051TIP3    H263645   5.822   1.034   4.125 -1.4536  0.1122  0.4132
14052TIP3   OH263646   5.948   1.604   3.167  0.6072 -0.7557  0.1951
14052TIP3    H163647   6.030   1.560   3.187  0.3918 -1.2812 -0.0775
14052TIP3    H263648   5.910   1.623   3.253  1.7252  0.8513  0.3499
14053TIP3   OH263649   5.179   2.005   5.415  0.8935 -0.4412  0.3573
14053TIP3    H163650   5.173   2.094   5.379  2.7879 -0.5448 -0.2561
14053TIP3    H263651   5.250   2.010   5.478  3.0980 -2.2235 -1.8874
14054TIP3   OH263652   3.385   6.061   1.047  0.0188  0.5706 -0.4464
14054TIP3    H163653   3.415   5.976   1.015 -0.4789 -0.2127  1.1537
14054TIP3    H263654   3.464   6.115   1.047  0.3226  0.1386 -1.5292
14055TIP3   OH263655   4.521   3.540   3.121  0.4731 -0.3147 -0.3249
14055TIP3    H163656   4.572   3.467   3.155  2.1733 -0.3206 -2.8176
14055TIP3    H263657   4.571   3.618   3.146  1.5295 -0.3000 -2.3947
14056TIP3   OH263658   5.563   2.421   2.531  0.1280  0.6107 -0.0887
14056TIP3    H163659   5.479   2.466   2.536  0.2648  0.9617 -0.8787
14056TIP3    H263660   5.624   2.479   2.577  0.2790  1.1748 -0.9990
14057TIP3   OH263661   4.693   1.016   4.230 -0.6514  0.2058 -0.1422
14057TIP3    H163662   4.632   0.995   4.301 -0.6190  0.6308  0.0124
14057TIP3    H263663   4.687   0.941   4.171 -0.6983 -0.1389  0.2962
14058TIP3   OH263664   5.165   0.765   0.710  0.2071 -0.1501 -0.3977
14058TIP3    H163665   5.169   0.723   0.796 -0.0982 -0.8249 -0.7063
14058TIP3    H263666   5.090   0.724   0.667 -1.0311  1.7814 -0.1577
14059TIP3   OH263667   0.062   1.053   3.781  0.1467  0.2671  0.0383
14059TIP3    H163668  -0.033   1.047   3.773  0.2779  0.7164 -1.8645
14059TIP3    H263669   0.082   1.004   3.862 -1.6052 -0.5360  0.0004
14060TIP3   OH263670   4.995   2.502   2.967 -0.1396 -0.4738  0.4694
14060TIP3    H163671   4.921   2.442   2.980 -0.2098 -0.3107  0.8484
14060TIP3    H263672   4.971   2.552   2.889 -0.2605 -0.6766  0.3768
14061TIP3   OH263673   5.737   7.002   3.802  0.1735  0.5359  0.0262
14061TIP3    H163674   5.655   7.051   3.796  0.5904  1.1264 -0.9566
14061TIP3    H263675   5.721   6.938   3.871 -0.7238  1.3949  0.6452
14062TIP3   OH263676   6.960   7.211   2.458  0.4425  0.0175  0.1271
14062TIP3    H163677   6.962   7.144   2.527 -0.1615  1.5897  1.7325
14062TIP3    H263678   6.899   7.277   2.492 -1.6411 -0.2452 -2.9705
14063TIP3   OH263679   5.919   6.502   5.185 -0.0155  0.1802  0.2806
14063TIP3    H163680   5.966   6.585   5.185 -1.0077  0.7722 -1.0305
14063TIP3    H263681   5.988   6.436   5.175  0.6861  0.9165  0.1601
14064TIP3   OH263682   6.883   2.409   1.895 -0.2026  0.3553  0.8972
14064TIP3    H163683   6.908   2.339   1.835 -0.5253 -1.1995  2.5240
14064TIP3    H263684   6.820   2.461   1.846 -2.0455 -2.0883  0.5855
14065TIP3   OH263685   6.150   0.631   5.049 -0.2653 -0.6561  0.1182
14065TIP3    H163686   6.218   0.668   5.106  0.8946 -1.5944 -0.6240
14065TIP3    H263687   6.077   0.692   5.055  1.5808  1.7321 -1.0433
14066TIP3   OH263688   5.455   1.818   3.057  0.0626  0.4206 -0.1927
14066TIP3    H163689   5.461   1.903   3.014  1.5487 -0.1130 -1.0698
14066TIP3    H263690   5.546   1.795   3.076 -0.4706  0.1509  2.2903
14067TIP3   OH263691   3.329   0.238   2.062 -0.0124 -0.2755 -0.3484
14067TIP3    H163692   3.260   0.274   2.119 -0.0272  2.3524 -1.9363
14067TIP3    H263693   3.299   0.150   2.042 -1.6825 -0.0490  1.0145
14068TIP3   OH263694   5.987   0.260   5.802  0.1845 -0.1226  0.5926
14068TIP3    H163695   5.969   0.290   5.713  0.4048  0.7362  0.8372
14068TIP3    H263696   5.902   0.233   5.836 -0.3019  1.7996  0.9503
14069TIP3   OH263697   3.172   0.360   4.971 -0.4036  0.1700 -0.0073
14069TIP3    H163698   3.266   0.376   4.983 -0.0799 -1.4264 -0.2806
14069TIP3    H263699   3.130   0.417   5.035  0.8583 -0.7711  1.6921
14070TIP3   OH263700   6.838   2.137   0.634 -0.3408 -0.1998 -0.2397
14070TIP3    H163701   6.805   2.220   0.670 -0.4293 -0.2254 -0.2626
14070TIP3    H263702   6.923   2.125   0.676 -0.2469 -0.0074 -0.3685
14071TIP3   OH263703   5.271   1.350   2.981  0.3287 -0.1862  0.4001
14071TIP3    H163704   5.347   1.365   2.925  0.3027 -1.8117 -0.0890
14071TIP3    H263705   5.258   1.434   3.026  1.1443  0.7434 -1.0344
14072TIP3   OH263706   3.366   0.296   3.592 -0.0473  0.0479 -0.3064
14072TIP3    H163707   3.359   0.208   3.557  0.3903 -0.3820  0.6676
14072TIP3    H263708   3.346   0.353   3.518 -2.7790 -0.8881 -0.3624
14073TIP3   OH263709   2.271   6.513   2.602  0.1000 -0.0960 -0.1821
14073TIP3    H163710   2.195   6.463   2.573 -1.7225  1.9151  0.9530
14073TIP3    H263711   2.284   6.579   2.534 -1.0067  1.3835  0.9940
14074TIP3   OH263712   6.284   2.085   2.115 -0.1217 -0.1123  0.2629
14074TIP3    H163713   6.194   2.105   2.141  0.0745  3.5781 -1.4936
14074TIP3    H263714   6.295   1.992   2.132 -3.4967 -0.1137  2.7626
14075TIP3   OH263715   4.115   0.596   3.306  0.2616 -0.1660 -0.6772
14075TIP3    H163716   4.181   0.623   3.243  0.5119  1.4014  0.2077
14075TIP3    H263717   4.033   0.593   3.257  1.0462 -2.7053 -1.9187
14076TIP3   OH263718   6.702   0.272   3.823  0.2926 -0.2240  0.3038
14076TIP3    H163719   6.709   0.180   3.846 -2.7245 -0.9678 -1.5236
14076TIP3    H263720   6.630   0.305   3.878 -0.4018  0.3744 -0.9431
14077TIP3   OH263721   3.808   1.590   1.860 -0.9107 -0.0401 -0.1001
14077TIP3    H163722   3.772   1.615   1.945 -0.8255  0.3858 -0.1907
14077TIP3    H263723   3.837   1.499   1.873 -2.4603 -0.5608 -0.1756
14078TIP3   OH263724   4.501   6.477   3.531  0.0115 -0.1556 -0.3588
14078TIP3    H163725   4.516   6.386   3.507 -0.9816 -1.0960  2.3704
14078TIP3    H263726   4.407   6.491   3.515  0.0571  0.2168 -0.3034
14079TIP3   OH263727   2.792   0.709   4.342 -0.1882  0.4493  0.2401
14079TIP3    H163728   2.745   0.645   4.288  2.1718  0.6333 -2.1158
14079TIP3    H263729   2.831   0.657   4.413  0.4524 -0.4939 -0.7935
14080TIP3   OH263730   2.049   3.527  15.966  0.3145 -0.5080 -0.1501
14080TIP3    H163731   2.044   3.558  15.876 -1.1932  0.5930  0.2896
14080TIP3    H263732   2.079   3.603  16.016  1.7013 -1.2763  0.1910
14081TIP3   OH263733   5.522   6.699   3.528  0.8113  0.2845  0.1428
14081TIP3    H163734   5.456   6.708   3.460 -0.6394 -1.7465  1.2230
14081TIP3    H263735   5.584   6.635   3.493  2.4269  2.4305 -1.0039
14082TIP3   OH263736   3.989   7.145   0.041  0.0838  0.1259  0.0824
14082TIP3    H163737   3.910   7.198   0.044  0.2395  0.3373  0.4752
14082TIP3    H263738   4.042   7.177   0.115  1.3875  1.3299 -1.3394
14083TIP3   OH263739   1.560   6.600   0.263 -0.2383  0.0595 -0.2992
14083TIP3    H163740   1.579   6.685   0.222 -0.6741 -0.3548 -1.3787
14083TIP3    H263741   1.645   6.556   0.267 -0.1314  0.2542 -0.4306
14084TIP3   OH263742   4.611   0.318   2.559  1.0452  0.2223  0.0979
14084TIP3    H163743   4.558   0.325   2.638 -0.1849 -2.6738 -0.3927
14084TIP3    H263744   4.578   0.387   2.502 -0.1443  0.3937  0.9684
14085TIP3   OH263745   4.018   6.795   2.556  0.0567  0.0630  0.8421
14085TIP3    H163746   4.005   6.829   2.645 -1.7512 -0.5593  0.8381
14085TIP3    H263747   4.032   6.701   2.569 -1.8589 -0.3061  0.3692
14086TIP3   OH263748   3.106   3.116   2.671 -0.3706  0.2976 -0.1079
14086TIP3    H163749   3.178   3.075   2.719 -0.2830  0.8647  0.2597
14086TIP3    H263750   3.027   3.073   2.703 -0.3794  1.1681  1.0876
14087TIP3   OH263751   5.990   3.731   5.230 -0.4000  0.1289  0.3842
14087TIP3    H163752   5.975   3.819   5.266  0.8251  0.2977  0.4997
14087TIP3    H263753   5.919   3.719   5.168  0.8138  2.2353 -1.4941
14088TIP3   OH263754   3.636   5.992   3.675 -0.9670 -0.2553 -0.4101
14088TIP3    H163755   3.711   6.032   3.720 -0.4908 -0.3027 -1.1510
14088TIP3    H263756   3.575   5.971   3.745 -1.7129  2.7532 -0.0745
14089TIP3   OH263757   3.572   2.994   3.934  0.0689 -0.1924  0.3327
14089TIP3    H163758   3.645   3.019   3.877 -0.2643  1.6503  0.6899
14089TIP3    H263759   3.498   2.983   3.875 -0.2216  1.4848  0.3695
14090TIP3   OH263760   4.009   0.424   2.458  0.2279  0.1434 -0.3751
14090TIP3    H163761   3.953   0.346   2.461 -0.3910  0.6567  3.0100
14090TIP3    H263762   3.991   0.463   2.373 -3.8472 -0.2577  0.2196
14091TIP3   OH263763   2.121   6.047   4.430  0.1067  0.2103 -0.2715
14091TIP3    H163764   2.192   6.069   4.491 -1.3077  0.8469  1.1999
14091TIP3    H263765   2.085   5.966   4.465 -2.6471  2.1164  1.5834
14092TIP3   OH263766   3.528   2.594   1.705 -0.3715 -0.0193 -0.5124
14092TIP3    H163767   3.492   2.608   1.793 -0.2262 -1.5351 -0.1968
14092TIP3    H263768   3.555   2.681   1.676 -0.1172  0.4448  1.0787
14093TIP3   OH263769   2.621   7.202   2.901  0.6851  0.0467  0.0935
14093TIP3    H163770   2.559   7.269   2.870 -0.0990 -0.1895  1.1396
14093TIP3    H263771   2.688   7.198   2.833  0.7839  1.9693  0.0592
14094TIP3   OH263772   3.678   6.272   1.436  0.3671 -0.2238  0.9087
14094TIP3    H163773   3.712   6.357   1.463  0.1026  0.2661 -0.2381
14094TIP3    H263774   3.756   6.219   1.418  0.5305 -0.2167  1.5868
14095TIP3   OH263775   5.799   2.296   4.040  0.0342  0.1687  0.1340
14095TIP3    H163776   5.763   2.365   4.096  1.2473  1.4042 -0.5660
14095TIP3    H263777   5.893   2.315   4.038  0.4203 -1.6869  0.1693
14096TIP3   OH263778   6.587   2.798   2.611 -0.3911 -0.3864 -0.1252
14096TIP3    H163779   6.575   2.771   2.702 -1.4049 -1.0142 -0.4416
14096TIP3    H263780   6.619   2.888   2.617 -0.5133 -0.3990  0.8430
14097TIP3   OH263781   3.168   1.620   3.163 -0.3172  0.5324  0.5614
14097TIP3    H163782   3.124   1.667   3.092  0.3409  1.7217  0.9385
14097TIP3    H263783   3.243   1.578   3.121  0.9286  2.4505  0.7956
14098TIP3   OH263784   3.624   0.070   0.902 -0.3227  0.0020 -0.2220
14098TIP3    H163785   3.543   0.120   0.893  0.7115  1.2568 -3.3083
14098TIP3    H263786   3.631   0.020   0.821  1.5111 -0.7932  0.3960
14099TIP3   OH263787   5.201   1.323   3.669  0.4341  0.7830 -0.1398
14099TIP3    H163788   5.118   1.365   3.649  0.3385  1.0215  0.7400
14099TIP3    H263789   5.238   1.375   3.740  0.5802 -0.2922  0.5861
14100TIP3   OH263790   4.182   5.567   4.776 -0.2237 -0.4903  0.6435
14100TIP3    H163791   4.174   5.623   4.853  0.3150 -0.5937  0.7760
14100TIP3    H263792   4.251   5.607   4.724 -0.8028 -0.2434  0.0557
14101TIP3   OH263793   6.164   1.465   3.326  0.1278 -0.0654 -0.0882
14101TIP3    H163794   6.102   1.398   3.357 -0.6472  0.6979  0.0292
14101TIP3    H263795   6.250   1.433   3.354 -0.6900  1.4420  4.4281
14102TIP3   OH263796   5.193   5.895   4.450 -0.0561 -0.1351 -0.2102
14102TIP3    H163797   5.243   5.959   4.500  0.3290 -1.4271  1.1014
14102TIP3    H263798   5.128   5.946   4.403 -0.9290  1.0617  2.2235
14103TIP3   OH263799   3.513   2.199   2.116  0.4896  0.2762 -0.0492
14103TIP3    H163800   3.515   2.117   2.067 -1.0285 -0.0382  0.3960
14103TIP3    H263801   3.444   2.250   2.074  2.3016  1.8891 -1.1771
14104TIP3   OH263802   6.696   3.644   2.499  0.0590  0.1826  0.1942
14104TIP3    H163803   6.719   3.558   2.466 -0.8200  0.4480 -1.1359
14104TIP3    H263804   6.601   3.643   2.509  0.0679  0.9014  0.4600
14105TIP3   OH263805   5.174   1.114   2.379 -0.1227 -0.2932  0.3460
14105TIP3    H163806   5.170   1.163   2.461 -0.1828 -0.9415  0.7333
14105TIP3    H263807   5.263   1.078   2.377 -0.2519 -0.6089  0.3196
14106TIP3   OH263808   0.228   1.129   2.875  0.0029 -0.7584  0.1517
14106TIP3    H163809   0.238   1.184   2.953  0.1759  2.4474 -2.0344
14106TIP3    H263810   0.201   1.043   2.909  1.3377  0.1880  3.7811
14107TIP3   OH263811   4.005   2.667   0.801  0.3918 -0.2476 -0.0159
14107TIP3    H163812   3.910   2.668   0.796  0.4168  0.6498 -0.3688
14107TIP3    H263813   4.023   2.639   0.891 -0.2192  0.2894  0.2858
14108TIP3   OH263814   6.706   3.164   2.170 -0.3854  0.2073 -0.1747
14108TIP3    H163815   6.737   3.228   2.105 -0.1941  0.8310  0.5255
14108TIP3    H263816   6.772   3.095   2.169 -0.8892 -0.2804 -1.3529
14109TIP3   OH263817   3.398   3.885   3.294  0.3595  0.1795 -0.5519
14109TIP3    H163818   3.479   3.847   3.260  0.5378 -0.1198  0.1936
14109TIP3    H263819   3.373   3.827   3.366  0.2456  1.0711  0.1297
14110TIP3   OH263820   3.913   1.157   5.330 -0.0947  0.3136 -0.4096
14110TIP3    H163821   3.928   1.093   5.260  0.0352 -1.4191  1.1589
14110TIP3    H263822   3.976   1.132   5.398 -1.5929  0.7292  1.1493
14111TIP3   OH263823   6.025   1.964   4.766 -0.7637 -0.2944  0.4783
14111TIP3    H163824   6.089   1.975   4.696 -2.6376 -0.7659 -1.3578
14111TIP3    H263825   5.979   2.049   4.770  1.1474  0.6951  3.0518
14112TIP3   OH263826   5.895   0.545   3.166  0.0974  0.0251  0.6116
14112TIP3    H163827   5.912   0.583   3.080 -0.6020 -1.1483 -0.0656
14112TIP3    H263828   5.803   0.518   3.163 -0.3954  1.4211  2.3006
14113TIP3   OH263829   4.718   3.734   1.746  0.1723 -0.6685  0.3852
14113TIP3    H163830   4.758   3.658   1.789  1.2093 -0.1137  0.4302
14113TIP3    H263831   4.625   3.728   1.768  0.6132 -0.6028  2.3970
14114TIP3   OH263832   5.620   0.659   2.235  0.3978  0.2774 -0.0628
14114TIP3    H163833   5.698   0.604   2.243 -0.1177 -0.6346 -1.2158
14114TIP3    H263834   5.625   0.694   2.146 -0.3926  0.4089 -0.0525
14115TIP3   OH263835   4.938   7.067   4.683  0.4570  0.0836 -0.0474
14115TIP3    H163836   4.897   7.152   4.697 -0.3521 -0.4341  0.8223
14115TIP3    H263837   4.865   7.008   4.664  0.7305 -0.9426  1.9386
14116TIP3   OH263838   6.863   5.832   2.696  0.4574 -0.3681 -0.1665
14116TIP3    H163839   6.834   5.923   2.685 -1.5222 -1.0385 -0.6349
14116TIP3    H263840   6.894   5.827   2.786  2.5263  1.2906 -0.7386
14117TIP3   OH263841   5.566   1.475   5.693  0.1101  0.1974  0.1984
14117TIP3    H163842   5.481   1.517   5.709  0.5161  1.6334 -1.3072
14117TIP3    H263843   5.630   1.537   5.727  0.5938 -0.6043  0.7575
14118TIP3   OH263844   4.432   0.306   0.901  0.1188  0.6627 -0.2232
14118TIP3    H163845   4.395   0.363   0.833 -1.4237  0.1397  0.1819
14118TIP3    H263846   4.517   0.346   0.921 -0.3876  2.0952 -0.8561
14119TIP3   OH263847   5.262   1.699   2.119 -1.0909  0.3156 -0.3210
14119TIP3    H163848   5.289   1.665   2.034  2.8916  0.9793  0.5717
14119TIP3    H263849   5.234   1.789   2.100  1.7264  1.1663 -0.7174
14120TIP3   OH263850   3.856   1.024   1.914  0.3655 -0.3909 -0.5667
14120TIP3    H163851   3.766   1.056   1.904  0.8211  0.7289 -1.1883
14120TIP3    H263852   3.869   1.020   2.009  0.3296  1.4151 -0.4639
14121TIP3   OH263853   6.146   2.768   3.877 -0.6557 -0.0744 -0.5741
14121TIP3    H163854   6.066   2.724   3.906 -0.5112  0.1452  0.1571
14121TIP3    H263855   6.138   2.771   3.782 -0.6766 -1.6584 -0.6344
14122TIP3   OH263856   5.743   6.751   4.005  0.6627  0.2326  0.3438
14122TIP3    H163857   5.807   6.681   3.988 -1.1454 -1.5790  0.7664
14122TIP3    H263858   5.659   6.712   3.980 -0.2839  2.5798 -0.2013
14123TIP3   OH263859   5.782   1.038   2.344  0.4386 -0.0048  0.2840
14123TIP3    H163860   5.772   1.116   2.290  0.2856 -0.5505 -0.4882
14123TIP3    H263861   5.829   0.976   2.288 -0.8467 -1.0302  0.3193
14124TIP3   OH263862   3.678   1.231   2.743 -0.1895 -0.7555 -0.1500
14124TIP3    H163863   3.604   1.170   2.741  0.0038 -0.9902 -0.2556
14124TIP3    H263864   3.710   1.226   2.833  0.6743 -1.8500 -0.5005
14125TIP3   OH263865   3.608   5.679   1.724 -0.1756  0.0670  0.2429
14125TIP3    H163866   3.664   5.624   1.670  1.4291  0.6147  1.3226
14125TIP3    H263867   3.570   5.742   1.662 -0.2870 -0.8406 -0.6279
14126TIP3   OH263868   4.106   0.216   3.504  0.0529  0.5530  0.4340
14126TIP3    H163869   4.097   0.171   3.420  1.4411  0.3072  0.4132
14126TIP3    H263870   4.072   0.154   3.568 -1.0555  0.7600  0.0546
14127TIP3   OH263871   4.892   2.876   2.113  0.6880  0.2655 -0.2269
14127TIP3    H163872   4.967   2.887   2.171  0.5299 -0.8589  0.2001
14127TIP3    H263873   4.888   2.782   2.095 -1.4884  0.0873  0.9620
14128TIP3   OH263874   5.696   1.321   3.767  0.1652  0.5895 -0.1709
14128TIP3    H163875   5.614   1.371   3.767  1.8270  3.4566 -1.7826
14128TIP3    H263876   5.718   1.312   3.675  2.9216  2.0657  0.3006
14129TIP3   OH263877   6.137   0.631   5.374 -0.3212  0.2169  0.4449
14129TIP3    H163878   6.188   0.572   5.430 -0.2715  1.0503  1.2914
14129TIP3    H263879   6.203   0.690   5.336 -0.3417 -0.4224 -0.5845
14130TIP3   OH263880   5.179   0.700   4.844  0.2547 -0.1212 -0.0862
14130TIP3    H163881   5.224   0.700   4.760  2.5876  2.2886  1.0929
14130TIP3    H263882   5.095   0.741   4.827  0.5969  0.0880 -1.2844
14131TIP3   OH263883   4.699   6.723   1.946  0.0537  0.2825  0.1945
14131TIP3    H163884   4.655   6.801   1.980  0.7019  1.0810 -0.7785
14131TIP3    H263885   4.651   6.650   1.985 -0.8855  1.1539  0.7073
14132TIP3   OH263886   1.740   1.107   1.808 -0.0903 -0.6615 -0.2696
14132TIP3    H163887   1.649   1.120   1.836 -0.3108 -1.7164 -0.5063
14132TIP3    H263888   1.782   1.063   1.881  0.1880 -0.3605 -0.2444
14133TIP3   OH263889   5.977   2.119   2.513  0.8187  0.2120  0.2617
14133TIP3    H163890   5.926   2.167   2.578  1.3518 -0.0944  0.9127
14133TIP3    H263891   6.012   2.044   2.561  1.3005  0.0348 -0.3561
14134TIP3   OH263892   3.318   3.443   0.515  0.5541 -0.0691 -0.4494
14134TIP3    H163893   3.256   3.464   0.585  1.8982 -0.3817  0.8756
14134TIP3    H263894   3.313   3.517   0.455 -0.6783  0.1746 -0.0537
14135TIP3   OH263895   6.940   0.995   3.036  0.1973  0.1371 -0.5595
14135TIP3    H163896   6.851   1.028   3.022  0.3615  0.9343  0.2342
14135TIP3    H263897   6.965   1.030   3.122  1.4370  0.2719 -0.9671
14136TIP3   OH263898   1.736   7.123   4.942 -0.3625  0.6383 -0.1593
14136TIP3    H163899   1.666   7.171   4.899  0.3501  0.5541 -1.4214
14136TIP3    H263900   1.695   7.041   4.971 -1.3522  1.5854  1.1979
14137TIP3   OH263901   7.010   2.657   1.942  0.3506 -0.0281 -0.3009
14137TIP3    H163902   7.037   2.648   2.033 -1.8837  1.2310  0.5141
14137TIP3    H263903   7.023   2.570   1.904  0.7333 -0.7157  1.3627
14138TIP3   OH263904   6.396   2.005   1.310  0.2085  0.0677 -0.1573
14138TIP3    H163905   6.370   1.979   1.398  2.1927  1.0244  0.7680
14138TIP3    H263906   6.330   2.068   1.282  0.2785  0.7747  1.2202
14139TIP3   OH263907   4.839   0.522   4.107  0.6264 -0.1804  0.2710
14139TIP3    H163908   4.923   0.522   4.153  0.5826 -1.7806  0.4012
14139TIP3    H263909   4.859   0.488   4.020  0.1901 -0.1717  0.1634
14140TIP3   OH263910   4.402   0.278  15.753  0.3673 -0.2254  0.6994
14140TIP3    H163911   4.418   0.283  15.847  1.2127 -1.2824  0.6317
14140TIP3    H263912   4.335   0.210  15.744  1.8878 -1.7150  0.3953
14141TIP3   OH263913   6.570   1.037   3.372 -0.1560 -1.0173  0.1323
14141TIP3    H163914   6.556   1.054   3.465 -0.1147  1.8809 -0.3482
14141TIP3    H263915   6.641   0.973   3.369 -0.7916 -1.8439  2.1048
14142TIP3   OH263916   6.074   3.599   1.927 -0.3215 -0.1080 -0.1697
14142TIP3    H163917   6.161   3.581   1.963 -1.0087  2.1187  2.8127
14142TIP3    H263918   6.074   3.556   1.842  3.8698  0.2536 -0.4534
14143TIP3   OH263919   0.524   0.534   3.314  0.2525  0.7124 -0.1519
14143TIP3    H163920   0.515   0.622   3.349  3.5543  0.9275  0.3188
14143TIP3    H263921   0.543   0.547   3.221 -1.7105  0.3757 -0.6222
14144TIP3   OH263922   6.558   1.419   4.145 -0.2721 -0.0395  0.1030
14144TIP3    H163923   6.507   1.493   4.176  1.3735  0.7330  1.0592
14144TIP3    H263924   6.502   1.343   4.159 -0.5440  0.6002  2.6280
14145TIP3   OH263925   6.085   1.167   3.316  0.6102 -0.3811 -0.0865
14145TIP3    H163926   6.039   1.096   3.272 -1.8637  0.6309  0.7891
14145TIP3    H263927   6.178   1.148   3.303 -0.0475 -1.7244 -3.0788
14146TIP3   OH263928   3.659   0.751   4.519  0.3345 -0.1096  0.0833
14146TIP3    H163929   3.654   0.750   4.423  0.6515 -0.1571  0.0652
14146TIP3    H263930   3.672   0.843   4.541 -0.5936  0.0158  0.1309
14147TIP3   OH263931   3.860   6.491  13.851 -0.0863  0.2117 -0.4983
14147TIP3    H163932   3.810   6.482  13.770  2.2272 -1.0200 -1.8133
14147TIP3    H263933   3.945   6.524  13.824  1.1733 -1.5024  1.2364
14148TIP3   OH263934   5.899   0.136   2.532 -0.1928  0.4159 -0.0616
14148TIP3    H163935   5.910   0.153   2.439 -0.9288 -2.0281 -0.6315
14148TIP3    H263936   5.816   0.179   2.555 -0.8402 -0.3465 -0.9221
14149TIP3   OH263937   3.216   7.284   1.099 -0.1324  0.6726 -0.3918
14149TIP3    H163938   3.293   7.303   1.154  1.7584 -0.5183 -2.5414
14149TIP3    H263939   3.182   7.202   1.134  0.7286  0.2130 -0.6031
14150TIP3   OH263940   6.602   2.132   3.099 -0.1056 -0.1930  0.0211
14150TIP3    H163941   6.508   2.116   3.086 -0.0366 -0.0380 -0.7207
14150TIP3    H263942   6.628   2.180   3.020  0.8717 -1.3709 -0.3767
14151TIP3   OH263943   6.236   0.470   4.082 -0.3682 -0.1201  0.5053
14151TIP3    H163944   6.284   0.390   4.104 -1.4945 -0.9730 -0.1041
14151TIP3    H263945   6.147   0.440   4.061 -0.1499  0.9948 -2.1840
14152TIP3   OH263946   5.588   1.266   5.256  0.0786  0.3181  0.0817
14152TIP3    H163947   5.531   1.197   5.223 -0.7843  0.2039  1.7593
14152TIP3    H263948   5.540   1.306   5.328  0.4254  2.9077 -1.0352
14153TIP3   OH263949   6.328   1.963   3.370 -0.2506 -0.2315  0.3534
14153TIP3    H163950   6.341   2.016   3.291  2.1628  1.4109  1.7656
14153TIP3    H263951   6.253   2.003   3.413 -0.5101 -0.0467 -0.2668
14154TIP3   OH263952   5.533   3.417   2.581 -0.4453  0.1610  0.2916
14154TIP3    H163953   5.505   3.431   2.672  0.4800 -0.1982  0.6404
14154TIP3    H263954   5.540   3.322   2.573 -2.6083  0.0680 -0.8080
14155TIP3   OH263955   4.638   7.023   2.636  0.0175 -0.3634  0.0331
14155TIP3    H163956   4.582   6.974   2.576 -1.1333  0.7835  0.1285
14155TIP3    H263957   4.589   7.025   2.719  1.4338 -1.6506  0.9213
14156TIP3   OH263958   0.459   0.908   2.814  0.3813  0.1276  0.2018
14156TIP3    H163959   0.433   0.908   2.906  0.4713  1.1647  0.2233
14156TIP3    H263960   0.497   0.821   2.801  0.3381 -0.0393  1.1306
14157TIP3   OH263961   4.450   2.606   2.575  0.3515  0.2434 -0.2234
14157TIP3    H163962   4.410   2.519   2.575 -0.2926  0.5314  0.2398
14157TIP3    H263963   4.424   2.644   2.660 -0.4637  1.3717 -0.9583
14158TIP3   OH263964   4.360   6.499   1.697  0.3652  0.3195 -0.0122
14158TIP3    H163965   4.268   6.479   1.683  0.6457 -0.2565 -1.1551
14158TIP3    H263966   4.361   6.590   1.727 -0.5747  0.2957  0.1045
14159TIP3   OH263967   4.247   1.471   4.603 -0.2364 -0.0622  0.1494
14159TIP3    H163968   4.324   1.527   4.590  0.6922 -0.8859  1.9124
14159TIP3    H263969   4.235   1.468   4.698 -2.1455 -0.3742 -0.0804
14160TIP3   OH263970   6.406   1.498   3.459 -0.3666  0.0451  0.2636
14160TIP3    H163971   6.476   1.536   3.406 -0.5980  1.5936  1.0164
14160TIP3    H263972   6.349   1.572   3.480 -0.8865 -0.7348  1.7081
14161TIP3   OH263973   4.727   6.597   4.157 -0.1098 -0.0983  0.8042
14161TIP3    H163974   4.761   6.675   4.113 -0.5164 -1.5697 -2.2890
14161TIP3    H263975   4.631   6.605   4.149 -0.1352 -1.6377 -1.0352
14162TIP3   OH263976   4.170   3.478   4.085 -0.0861 -0.1549 -0.2481
14162TIP3    H163977   4.165   3.561   4.132  2.5290  0.9182 -1.8229
14162TIP3    H263978   4.225   3.423   4.140 -1.1281 -0.6013  0.3744
14163TIP3   OH263979   3.429   6.021   4.362  0.1719 -0.0488  0.9237
14163TIP3    H163980   3.458   5.951   4.420  1.9600 -0.3642 -0.3193
14163TIP3    H263981   3.509   6.051   4.318 -1.2199 -0.1676 -1.7591
14164TIP3   OH263982   4.576   2.103   5.105  0.1809 -0.2843 -0.1359
14164TIP3    H163983   4.556   2.019   5.065 -0.0043 -1.3146  2.0341
14164TIP3    H263984   4.607   2.081   5.193 -0.8453  1.9422  0.8433
14165TIP3   OH263985   3.872   2.392   4.525 -0.2660 -0.3603  0.2607
14165TIP3    H163986   3.966   2.376   4.521 -0.1918  0.1462 -0.0202
14165TIP3    H263987   3.833   2.319   4.476 -0.0067 -0.4034  0.1184
14166TIP3   OH263988   4.678   1.057   1.864 -0.0045 -0.2250 -0.0631
14166TIP3    H163989   4.697   1.077   1.772  0.9373  1.5110  0.4922
14166TIP3    H263990   4.697   0.964   1.873  3.4433  0.3393 -0.7663
14167TIP3   OH263991   6.257   1.684   3.119  0.1726  0.5731  0.8518
14167TIP3    H163992   6.262   1.653   3.210  1.5916  0.6498  0.8177
14167TIP3    H263993   6.348   1.705   3.097 -0.2481  1.0677 -0.4101
14168TIP3   OH263994   4.715   1.635   5.699  0.1259  0.1594 -0.7407
14168TIP3    H163995   4.691   1.593   5.782 -0.9593  1.3668 -0.4219
14168TIP3    H263996   4.778   1.702   5.723  0.0091  0.3362 -0.9242
14169TIP3   OH263997   4.446   3.575   0.832 -0.1304  0.0566 -0.5660
14169TIP3    H163998   4.398   3.498   0.802 -0.5500 -0.5525  1.5858
14169TIP3    H263999   4.395   3.608   0.906  1.4840  0.8115  0.2364
14170TIP3   OH264000   5.699   2.067   5.083  0.4861 -0.8814  0.3857
14170TIP3    H164001   5.667   2.024   5.004  0.1465  0.2712 -0.1163
14170TIP3    H264002   5.622   2.074   5.140  1.1829 -3.7229  1.7817
14171TIP3   OH264003   6.407   6.989   3.689  0.1276 -0.5110 -0.2368
14171TIP3    H164004   6.441   7.070   3.652  2.8897 -1.5102  0.0204
14171TIP3    H264005   6.328   7.016   3.736  1.5621  2.2119  0.7143
14172TIP3   OH264006   0.009   2.062   3.164 -0.0875  0.1128  0.3163
14172TIP3    H164007   0.067   2.096   3.232  0.2516 -1.6287  0.9402
14172TIP3    H264008  -0.075   2.051   3.209 -0.1202 -0.1208  0.1980
14173TIP3   OH264009   5.774   2.606   2.318 -0.1575 -0.3286  0.2549
14173TIP3    H164010   5.785   2.553   2.397  0.0356  0.9603  1.0991
14173TIP3    H264011   5.698   2.661   2.336  0.3200  0.4794 -0.1695
14174TIP3   OH264012   6.031   1.732   3.700  0.1185  0.1451  0.2004
14174TIP3    H164013   5.992   1.646   3.721 -1.4566 -0.4955 -4.7203
14174TIP3    H264014   5.961   1.795   3.720 -0.4269 -0.2047 -0.5596
14175TIP3   OH264015   6.377   2.417   1.397  0.3268 -0.6885 -0.1443
14175TIP3    H164016   6.428   2.357   1.451  1.6787 -2.1328 -2.8888
14175TIP3    H264017   6.443   2.472   1.353 -0.7374  0.5958 -0.1748
14176TIP3   OH264018   4.343   1.114   0.870 -0.0179 -0.0555  0.2633
14176TIP3    H164019   4.325   1.156   0.785  1.9036  1.8391  0.7501
14176TIP3    H264020   4.256   1.090   0.903 -0.8968  0.3766 -1.6464
14177TIP3   OH264021   6.289   2.778   2.517 -0.0597  0.0089  0.3807
14177TIP3    H164022   6.359   2.844   2.516 -1.1071  1.1436  0.1836
14177TIP3    H264023   6.212   2.826   2.546 -0.6471 -1.3518  1.0844
14178TIP3   OH264024   6.359   3.369   3.778  0.3519  0.2185  0.4357
14178TIP3    H164025   6.428   3.308   3.805 -2.1149 -2.7969  0.2069
14178TIP3    H264026   6.322   3.401   3.860 -0.1834 -0.8050  0.6079
14179TIP3   OH264027   2.885   1.025   4.017  0.0334 -0.2064 -0.3175
14179TIP3    H164028   2.818   0.958   4.029  0.9086 -0.7946  1.4545
14179TIP3    H264029   2.842   1.094   3.967 -1.5028 -1.1459 -0.3172
14180TIP3   OH264030   4.578   6.860   2.206  0.0240 -0.2848  0.4647
14180TIP3    H164031   4.586   6.771   2.239 -1.4826 -1.1675 -1.4182
14180TIP3    H264032   4.667   6.896   2.208  0.5742 -1.7065  1.5528
14181TIP3   OH264033   6.687   1.856   3.084 -0.4843 -0.2121  0.0905
14181TIP3    H164034   6.779   1.843   3.059  0.1650 -0.4565  2.5057
14181TIP3    H264035   6.669   1.947   3.062  0.3121 -0.1708 -0.4232
14182TIP3   OH264036   5.098   1.853   4.222  0.5809  0.4431 -1.0778
14182TIP3    H164037   5.138   1.778   4.265  0.7509  0.2280 -1.6094
14182TIP3    H264038   5.141   1.858   4.136 -0.9237 -0.1528 -1.8941
14183TIP3   OH264039   6.137   6.974   4.725 -0.3771  0.4209  0.6760
14183TIP3    H164040   6.079   6.976   4.802  1.2650 -1.0932  2.0132
14183TIP3    H264041   6.130   6.884   4.693 -1.9842  1.3436 -1.7613
14184TIP3   OH264042   4.121   6.573   2.100 -0.4528 -0.6288  0.4159
14184TIP3    H164043   4.072   6.632   2.156  0.1449 -0.4429  0.7473
14184TIP3    H264044   4.211   6.579   2.131 -0.0138 -0.0947 -0.9269
14185TIP3   OH264045   6.404   0.287   4.491 -0.7722  0.3978 -0.2542
14185TIP3    H164046   6.377   0.195   4.497  0.2569  0.0087 -1.4482
14185TIP3    H264047   6.321   0.334   4.479 -1.3816 -0.2777  1.1341
14186TIP3   OH264048   5.021   2.263   5.723 -0.6698 -0.2844  0.1589
14186TIP3    H164049   4.959   2.190   5.714  0.2184 -1.0669  0.3894
14186TIP3    H264050   5.006   2.295   5.812 -0.2937 -0.8803  0.4368
14187TIP3   OH264051   6.863   5.833   4.364  0.2732 -0.0442 -0.6995
14187TIP3    H164052   6.801   5.799   4.429  1.4690  0.3134  0.6678
14187TIP3    H264053   6.809   5.852   4.287 -1.2027 -0.3447  0.2308
14188TIP3   OH264054   5.993   0.702   4.065  0.2778  0.3005  0.0589
14188TIP3    H164055   6.009   0.717   4.158  0.9075  0.2170 -0.0350
14188TIP3    H264056   5.941   0.778   4.037  0.5845  0.6217  0.3488
14189TIP3   OH264057   5.420   1.298   3.359  0.2745  0.7925  0.0263
14189TIP3    H164058   5.325   1.309   3.358  0.3075  1.3535 -3.6800
14189TIP3    H264059   5.433   1.212   3.398 -1.7717  0.6791  0.5148
14190TIP3   OH264060   2.534   1.249   2.238  0.0665  0.0222  0.4758
14190TIP3    H164061   2.466   1.186   2.264 -0.6254  0.7067  0.3357
14190TIP3    H264062   2.537   1.242   2.143 -1.4124  1.6154  0.2861
14191TIP3   OH264063   0.216   0.931   3.582 -0.0763  0.1744 -0.2155
14191TIP3    H164064   0.170   1.015   3.584  1.5107  1.0734 -0.3078
14191TIP3    H264065   0.260   0.927   3.667 -0.1112 -0.5520 -0.2329
14192TIP3   OH264066   7.126   1.082   3.829 -0.1635  0.2212 -0.2051
14192TIP3    H164067   7.085   1.062   3.913 -0.9656  0.1642 -0.6072
14192TIP3    H264068   7.079   1.028   3.766  1.0752 -0.4583 -0.5558
14193TIP3   OH264069   2.573   0.624   1.449  0.1701  0.0971  0.1117
14193TIP3    H164070   2.499   0.590   1.398  0.8464  0.5109 -1.1781
14193TIP3    H264071   2.549   0.714   1.469  0.6702  0.4870 -1.0102
14194TIP3   OH264072   5.169   2.285   2.772 -0.4930  0.1199 -0.0839
14194TIP3    H164073   5.099   2.341   2.807  2.4125  1.5786  3.7391
14194TIP3    H264074   5.219   2.343   2.715 -0.1652  0.1774  0.2592
14195TIP3   OH264075   3.191   0.921   5.232  0.2886 -0.3702  0.1610
14195TIP3    H164076   3.255   0.980   5.191 -0.1546  0.6188  0.8601
14195TIP3    H264077   3.118   0.918   5.171  0.5279 -0.6047 -0.1151
14196TIP3   OH264078   2.258   0.407   2.227 -0.2213 -0.2795  0.4399
14196TIP3    H164079   2.175   0.422   2.271 -0.6450 -0.9957 -0.1137
14196TIP3    H264080   2.308   0.487   2.243 -0.7473 -0.1215  1.3609
14197TIP3   OH264081   5.973   1.065   3.573 -0.4312 -0.1791 -0.4763
14197TIP3    H164082   5.975   1.093   3.482 -2.1854  0.1226 -0.4421
14197TIP3    H264083   5.968   1.146   3.623 -1.7717 -0.4022 -0.2230
14198TIP3   OH264084   5.780   1.731   4.032  0.4461 -0.1809  0.1181
14198TIP3    H164085   5.697   1.777   4.048 -0.3296 -1.6930  0.5603
14198TIP3    H264086   5.796   1.682   4.112  0.9348 -1.1754 -0.5755
14199TIP3   OH264087   5.751   3.607   3.294 -0.3346  0.4526  0.1698
14199TIP3    H164088   5.670   3.589   3.246 -0.6512 -0.7178  1.1030
14199TIP3    H264089   5.732   3.685   3.345 -0.6620  0.5486 -0.0924
14200TIP3   OH264090   4.012   0.191   2.262 -0.4999  0.0743  0.7284
14200TIP3    H164091   4.065   0.149   2.330  2.6322  0.9004 -1.1186
14200TIP3    H264092   3.962   0.120   2.223  0.5013 -1.0097  1.4016
14201TIP3   OH264093   3.813   6.517   3.627 -0.6803 -0.1036 -0.2280
14201TIP3    H164094   3.797   6.465   3.706 -1.3904  0.8171  0.2371
14201TIP3    H264095   3.726   6.535   3.592 -0.5001  1.6393  0.1856
14202TIP3   OH264096   3.520   3.427   2.647  0.1611 -0.3004 -0.4002
14202TIP3    H164097   3.577   3.400   2.719 -0.4792  2.7789  1.3614
14202TIP3    H264098   3.470   3.349   2.624  2.4505 -2.0750  0.5089
14203TIP3   OH264099   5.120   2.874   2.888  0.6052 -0.0812 -0.0404
14203TIP3    H164100   5.182   2.940   2.856 -0.5833 -0.2364 -2.8223
14203TIP3    H264101   5.175   2.806   2.926  2.0805  0.4166 -1.2287
14204TIP3   OH264102   0.371   1.357   2.525  0.3614  0.5298 -0.1845
14204TIP3    H164103   0.397   1.272   2.560  2.8471  1.8877  1.4263
14204TIP3    H264104   0.370   1.344   2.430 -0.6491 -1.6345  0.0904
14205TIP3   OH264105   4.732   1.960   4.011 -0.5085  0.3224  0.0859
14205TIP3    H164106   4.693   2.030   3.958  1.0215  1.8896  0.9945
14205TIP3    H264107   4.657   1.916   4.051 -1.6126 -0.0167 -2.2461
14206TIP3   OH264108   6.930   0.258   3.425 -0.6113 -0.6491 -0.1604
14206TIP3    H164109   6.922   0.163   3.419 -0.7855 -0.6077 -0.5619
14206TIP3    H264110   6.933   0.275   3.519 -2.4125 -0.8914 -0.0517
14207TIP3   OH264111   1.865   1.324   0.812  0.0703 -0.0954  0.2504
14207TIP3    H164112   1.888   1.411   0.844 -1.3626  1.2222 -2.1684
14207TIP3    H264113   1.948   1.289   0.777  0.3540  0.8955 -0.0864
14208TIP3   OH264114   3.853   2.563   3.449 -0.4787  0.1152  0.1516
14208TIP3    H164115   3.918   2.500   3.483 -2.4226 -1.2938  1.3607
14208TIP3    H264116   3.906   2.630   3.406  1.8594 -0.5477  1.8395
14209TIP3   OH264117   2.992   5.717   2.216  0.1400  0.1566  0.3585
14209TIP3    H164118   3.052   5.655   2.257 -1.0602 -1.1373  0.1967
14209TIP3    H264119   3.027   5.729   2.128  0.8042  0.3060  0.6395
14210TIP3   OH264120   5.646   0.198   2.637  0.0620  0.4342  0.4090
14210TIP3    H164121   5.638   0.276   2.692  0.1487 -0.2086  1.3468
14210TIP3    H264122   5.638   0.125   2.698  1.2267 -0.2939 -0.2872
14211TIP3   OH264123   7.086   1.327   3.666  0.5022  0.0691 -0.4882
14211TIP3    H164124   7.099   1.295   3.577 -0.2989 -0.0437 -0.5694
14211TIP3    H264125   7.069   1.248   3.718 -1.6949  0.3481 -0.7267
14212TIP3   OH264126   5.086   1.815   3.259  0.0771 -0.0686  0.6020
14212TIP3    H164127   5.016   1.846   3.316 -0.5316 -1.0653  0.4185
14212TIP3    H264128   5.122   1.739   3.305 -0.0942 -0.5777 -0.0947
14213TIP3   OH264129   2.308   7.012   2.790  0.1716  0.2067  0.0392
14213TIP3    H164130   2.294   7.080   2.857 -1.0196 -1.3037  1.3875
14213TIP3    H264131   2.222   6.970   2.781  0.7707 -0.7870 -1.1349
14214TIP3   OH264132   4.129   2.391   3.420 -0.6723 -0.6446 -0.2465
14214TIP3    H164133   4.200   2.450   3.446 -1.4368  0.1416  0.0941
14214TIP3    H264134   4.116   2.409   3.327 -0.3538 -0.8738 -0.3374
14215TIP3   OH264135   3.649   1.019   2.128 -0.5139  0.1124 -0.0368
14215TIP3    H164136   3.625   1.093   2.184 -1.2874  0.2467 -0.5387
14215TIP3    H264137   3.604   0.944   2.166 -0.8561  0.1618 -0.3397
14216TIP3   OH264138   4.820   6.815   4.461  1.1481 -0.2856 -0.2578
14216TIP3    H164139   4.777   6.851   4.384 -0.0559 -1.3644 -0.0873
14216TIP3    H264140   4.914   6.824   4.442  0.8640 -0.8458 -1.9678
14217TIP3   OH264141   3.042   3.627   1.361  0.7182 -0.3558 -0.6992
14217TIP3    H164142   3.086   3.712   1.363 -1.5129  0.8091  2.7943
14217TIP3    H264143   3.112   3.563   1.374  1.9445  1.2141  0.6232
14218TIP3   OH264144   3.666   0.490   1.573 -0.9836  0.4059  0.0031
14218TIP3    H164145   3.726   0.530   1.636 -1.1089  0.6028 -0.0010
14218TIP3    H264146   3.582   0.535   1.588 -1.7174 -1.4216  1.5496
14219TIP3   OH264147   4.093   0.966  15.939  0.1606 -0.1473 -0.0093
14219TIP3    H164148   4.181   0.940  15.912  0.6045  1.6412 -0.3679
14219TIP3    H264149   4.108   1.030  16.009 -0.8449  0.4332 -0.3224
14220TIP3   OH264150   3.378   0.676   1.966  0.0151  0.4420 -0.2973
14220TIP3    H164151   3.411   0.649   2.052  0.5639 -1.2549 -1.0297
14220TIP3    H264152   3.442   0.740   1.935 -1.6455  3.1800  1.7323
14221TIP3   OH264153   3.441   4.499   2.266  0.8696  0.3834 -0.1365
14221TIP3    H164154   3.389   4.563   2.316  0.0867 -0.6307  0.3636
14221TIP3    H264155   3.520   4.486   2.318  0.1052 -0.5868  0.8059
14222TIP3   OH264156   4.108   1.660   2.757  0.3090  0.7380  0.4157
14222TIP3    H164157   4.048   1.673   2.830  0.9790 -0.2912  1.1702
14222TIP3    H264158   4.116   1.746   2.716 -3.2611  0.4780 -0.9665
14223TIP3   OH264159   5.371   6.741   5.002 -0.2382 -0.5369 -0.1210
14223TIP3    H164160   5.381   6.748   5.096 -0.3996 -2.4438  0.0624
14223TIP3    H264161   5.426   6.810   4.966 -0.4287  0.4010  1.3779
14224TIP3   OH264162   4.877   2.065   1.215  0.2273 -0.3088 -0.5866
14224TIP3    H164163   4.844   1.975   1.214  0.6850 -0.4795 -1.1558
14224TIP3    H264164   4.972   2.055   1.227  0.1812  0.1299  0.1352
14225TIP3   OH264165   5.772   6.355   4.796 -0.2724 -0.2343 -0.8632
14225TIP3    H164166   5.690   6.351   4.846 -0.4411  2.4627 -0.8666
14225TIP3    H264167   5.744   6.363   4.705 -0.0315  0.8883 -0.8478
14226TIP3   OH264168   6.533   2.846   2.338  0.1031  0.0076  0.2221
14226TIP3    H164169   6.573   2.839   2.425  1.4408 -1.9586 -0.5152
14226TIP3    H264170   6.472   2.919   2.345 -0.3807 -0.6273  3.0498
14227TIP3   OH264171   6.099   2.446   4.803 -0.2818 -0.0333  0.6880
14227TIP3    H164172   6.005   2.440   4.783 -0.5001  3.8162  0.3145
14227TIP3    H264173   6.104   2.439   4.898 -1.3610  3.2691  1.0464
14228TIP3   OH264174   5.503   2.558   3.881  0.0017 -0.5351  0.0483
14228TIP3    H164175   5.526   2.474   3.841  3.1389  0.0595  0.4893
14228TIP3    H264176   5.572   2.618   3.852 -0.6102  1.1959  2.0477
14229TIP3   OH264177   7.243   1.854   1.809 -1.0467 -0.1698  0.6314
14229TIP3    H164178   7.186   1.907   1.753 -0.1056 -0.1476 -0.3228
14229TIP3    H264179   7.206   1.766   1.805  0.9203 -0.9168 -2.7640
14230TIP3   OH264180   6.163   3.978   3.998  0.7070  0.3131 -0.3617
14230TIP3    H164181   6.166   4.035   3.921  0.9160  0.1430 -0.4795
14230TIP3    H264182   6.254   3.970   4.026  0.5434  1.0306  0.3937
14231TIP3   OH264183   0.681   1.917   4.908 -0.2673 -0.0074 -0.3213
14231TIP3    H164184   0.633   1.894   4.988 -2.0297  0.6398 -1.1684
14231TIP3    H264185   0.713   2.005   4.924 -1.5928  0.5656 -0.7539
14232TIP3   OH264186   6.420   1.705   0.613  0.1612 -0.2064  0.6259
14232TIP3    H164187   6.411   1.697   0.708 -0.3265 -0.6613  0.5437
14232TIP3    H264188   6.356   1.643   0.578  1.1201 -0.8349  0.0028
14233TIP3   OH264189   4.839   7.267   3.333  0.1738  0.1606  0.1301
14233TIP3    H164190   4.927   7.278   3.367 -0.2027 -0.5989  1.4085
14233TIP3    H264191   4.796   7.211   3.397 -0.6368 -1.1312 -1.5164
14234TIP3   OH264192   0.282   0.453   1.463 -0.6048  0.0973 -0.2399
14234TIP3    H164193   0.239   0.379   1.420 -0.4113  0.6651 -1.4171
14234TIP3    H264194   0.235   0.530   1.431 -0.1525  0.5532  0.1933
14235TIP3   OH264195   7.036   0.601   2.259 -0.0187 -0.3845  0.2041
14235TIP3    H164196   7.088   0.521   2.264  1.8132  0.7426 -0.1106
14235TIP3    H264197   6.986   0.592   2.178 -0.8836 -1.8005  0.8733
14236TIP3   OH264198   1.596   2.542   3.816 -0.2239 -0.0950  0.4246
14236TIP3    H164199   1.569   2.454   3.788  0.1056  0.3121 -1.1771
14236TIP3    H264200   1.521   2.598   3.796  0.3155  0.3385 -0.3922
14237TIP3   OH264201   6.114   0.088   2.705 -0.1830  0.0338 -0.1278
14237TIP3    H164202   6.055   0.075   2.631  0.1056  0.6445 -0.4669
14237TIP3    H264203   6.100   0.179   2.731  1.5103  0.5764 -1.0059
14238TIP3   OH264204   6.706   2.248   2.885  0.2212 -0.2806 -0.3600
14238TIP3    H164205   6.801   2.236   2.887  0.5628  2.0947 -0.5954
14238TIP3    H264206   6.676   2.194   2.812  1.7533  1.0571 -2.0308
14239TIP3   OH264207   5.998   0.460   3.921 -0.1049 -0.5267  0.1435
14239TIP3    H164208   5.912   0.498   3.903  0.3592 -0.8355 -3.0575
14239TIP3    H264209   6.003   0.383   3.863  1.8098 -1.2641  1.2392
14240TIP3   OH264210   7.121   2.540   5.002  0.0399 -0.4539  0.1799
14240TIP3    H164211   7.049   2.480   5.020  0.8731 -1.9985 -1.3870
14240TIP3    H264212   7.106   2.570   4.913  1.2548 -0.7153 -0.1256
14241TIP3   OH264213   4.784   2.745   3.130  0.1438 -0.6492 -0.3267
14241TIP3    H164214   4.699   2.790   3.134 -0.6810 -2.1570 -0.8547
14241TIP3    H264215   4.777   2.686   3.056  0.8214 -2.4939  1.0523
14242TIP3   OH264216   5.393   2.731   4.863 -0.0511  0.0780  0.6423
14242TIP3    H164217   5.410   2.825   4.851  0.2116 -0.1022 -0.4307
14242TIP3    H264218   5.365   2.724   4.954 -1.5171  1.4194  0.3325
14243TIP3   OH264219   0.906   3.324   1.322  0.3012 -0.0440 -0.1656
14243TIP3    H164220   0.875   3.251   1.269 -0.2226 -0.0206  0.1014
14243TIP3    H264221   0.875   3.304   1.410 -1.1738  1.2503 -0.3706
14244TIP3   OH264222   5.722   0.326   2.178  0.3023 -0.4075  0.4317
14244TIP3    H164223   5.640   0.289   2.212 -0.1447 -1.2893 -1.4866
14244TIP3    H264224   5.772   0.351   2.256 -1.2744 -1.0069  1.6618
14245TIP3   OH264225   6.094   0.723   4.307 -0.4422 -0.0539  0.1398
14245TIP3    H164226   6.121   0.761   4.390 -0.3508  0.2523 -0.0295
14245TIP3    H264227   6.147   0.644   4.298  1.3982  1.2524 -0.8383
14246TIP3   OH264228   0.010   2.528   3.871  0.4560  0.3063 -0.2218
14246TIP3    H164229   0.093   2.489   3.899  1.1425  1.3559 -0.7485
14246TIP3    H264230  -0.003   2.495   3.782 -1.1210 -2.0807  0.8620
14247TIP3   OH264231   4.561   6.946   4.893 -0.1597 -0.5915 -0.2283
14247TIP3    H164232   4.545   7.020   4.834 -0.7263 -2.6204 -2.7222
14247TIP3    H264233   4.603   6.880   4.838  0.7888 -1.9709  2.0655
14248TIP3   OH264234   5.365   0.796   1.724  0.4061  0.2390 -0.3477
14248TIP3    H164235   5.334   0.709   1.752  1.9172 -0.2869 -0.2685
14248TIP3    H264236   5.333   0.855   1.792  0.3921 -0.4312  0.2456
14249TIP3   OH264237   5.654   7.314   3.782 -0.5692 -0.7416  0.7909
14249TIP3    H164238   5.745   7.318   3.814  0.5570 -0.3728 -2.2781
14249TIP3    H264239   5.625   7.405   3.784 -0.2013 -0.6031 -0.0278
14250TIP3   OH264240   7.339   6.549   0.367 -0.2680 -0.4477 -0.6011
14250TIP3    H164241   7.322   6.643   0.373 -0.3681 -0.6061  2.1342
14250TIP3    H264242   7.332   6.529   0.274  1.0710  2.4879 -1.3712
14251TIP3   OH264243   6.032   0.299   1.505  0.1468 -0.6992  0.3738
14251TIP3    H164244   5.951   0.258   1.537 -0.1146 -1.3263 -1.0610
14251TIP3    H264245   6.037   0.273   1.413  1.7394 -0.2662  0.3323
14252TIP3   OH264246   5.633   0.745   1.696 -0.3430 -0.8683 -0.0112
14252TIP3    H164247   5.540   0.742   1.719  0.0835 -0.3617  1.8205
14252TIP3    H264248   5.657   0.654   1.677 -1.5527 -0.8128 -1.9759
14253TIP3   OH264249   2.786   0.650   1.016 -0.2908 -0.0621  0.3577
14253TIP3    H164250   2.750   0.577   1.066  0.4693 -0.6337  0.0827
14253TIP3    H264251   2.874   0.662   1.052  0.4990 -0.8846 -1.2301
14254TIP3   OH264252   5.447   3.219   1.551  0.4661 -0.0528  0.1040
14254TIP3    H164253   5.402   3.245   1.471  0.7906 -0.2064 -0.1313
14254TIP3    H264254   5.525   3.275   1.554  0.6500 -0.3048  0.1115
14255TIP3   OH264255   0.285   2.620   0.108 -0.1469 -0.0401  0.0253
14255TIP3    H164256   0.306   2.557   0.177  0.4601  0.1516  0.0242
14255TIP3    H264257   0.202   2.659   0.136 -1.2594 -1.8319 -0.6808
14256TIP3   OH264258   6.053   1.795   2.283 -0.4321  0.1110  0.2555
14256TIP3    H164259   6.093   1.710   2.269 -1.8508 -0.6431  0.7218
14256TIP3    H264260   6.126   1.858   2.273  0.5008 -1.0923 -0.6338
14257TIP3   OH264261   5.986   2.254   2.986  0.0598 -0.2251 -0.4296
14257TIP3    H164262   5.950   2.338   3.013  0.2129  0.5202 -2.4498
14257TIP3    H264263   6.079   2.270   2.975  0.5919 -1.4386  2.0739
14258TIP3   OH264264   0.360   1.930   2.697  0.0290  0.2467  0.4959
14258TIP3    H164265   0.323   1.874   2.765 -0.7635  2.1193  1.6366
14258TIP3    H264266   0.442   1.964   2.734  1.6277 -1.8304 -1.0270
14259TIP3   OH264267   5.175   5.023   2.560 -0.2390  0.0357 -0.3236
14259TIP3    H164268   5.110   4.953   2.548  0.8787 -0.6239 -2.8438
14259TIP3    H264269   5.214   5.004   2.645 -0.1196 -2.3270 -0.8589
14260TIP3   OH264270   6.749   3.019   3.258  0.4738  0.3184 -0.2847
14260TIP3    H164271   6.789   2.988   3.339  1.1264 -0.9446 -1.0727
14260TIP3    H264272   6.812   2.994   3.189 -0.7549  0.0711 -1.3351
14261TIP3   OH264273   5.856   4.963   3.329 -0.1842 -0.0453 -0.6652
14261TIP3    H164274   5.910   5.025   3.280  0.3036 -0.4497 -0.6495
14261TIP3    H264275   5.788   5.016   3.369  0.2130  0.4731 -0.6764
14262TIP3   OH264276   4.957   1.748   3.717 -0.4865 -1.2768 -0.5462
14262TIP3    H164277   4.978   1.657   3.737 -1.9108 -1.3654  0.6636
14262TIP3    H264278   4.861   1.751   3.717 -0.4600  0.5509  0.9808
14263TIP3   OH264279   6.994   1.791   1.363  0.3512  0.8645 -0.4303
14263TIP3    H164280   7.069   1.766   1.309 -0.1402 -1.4830 -0.0936
14263TIP3    H264281   7.033   1.836   1.438  1.5248 -0.9896  0.1213
14264TIP3   OH264282   6.473   5.806   3.777 -0.0500 -0.1355 -0.3669
14264TIP3    H164283   6.488   5.868   3.706  2.8294 -0.0540  0.2632
14264TIP3    H264284   6.442   5.726   3.734  0.0082  0.4800 -1.5505
14265TIP3   OH264285   6.780   5.338   1.653  0.0068  0.2585 -0.0280
14265TIP3    H164286   6.758   5.285   1.730  1.2985  0.3361  0.4191
14265TIP3    H264287   6.790   5.274   1.582  0.5952 -0.0001  0.2857
14266TIP3   OH264288   0.390   2.410   0.644  0.2540  0.1802  0.0281
14266TIP3    H164289   0.411   2.320   0.622 -1.3513 -0.5832  1.5462
14266TIP3    H264290   0.446   2.462   0.586  2.6300 -1.7548  0.5028
14267TIP3   OH264291   6.993   0.385   2.584  0.0870  0.3755  0.0400
14267TIP3    H164292   7.000   0.461   2.642 -1.5321 -0.0629  0.8536
14267TIP3    H264293   6.901   0.383   2.558  0.3275 -0.7224 -0.7792
14268TIP3   OH264294   6.025   3.988   2.637 -0.2868  0.3708 -0.1262
14268TIP3    H164295   5.963   3.925   2.600 -0.4861 -1.1702  2.6628
14268TIP3    H264296   6.098   3.934   2.669  0.2113  1.6925  1.0046
14269TIP3   OH264297   4.904   2.996   4.535  0.1502 -0.0341 -0.5269
14269TIP3    H164298   4.823   3.023   4.491 -0.3893 -1.2701 -0.3304
14269TIP3    H264299   4.952   2.947   4.468  0.0419 -0.5840 -0.2033
14270TIP3   OH264300   4.929   2.153   3.457 -0.5711  0.1434 -0.0741
14270TIP3    H164301   4.972   2.195   3.382 -0.7611  2.2290  0.9512
14270TIP3    H264302   4.850   2.205   3.472 -0.7251 -0.4698  1.3543
14271TIP3   OH264303   4.458   3.158   2.593  0.1068  0.2241 -0.0579
14271TIP3    H164304   4.387   3.163   2.656  0.0433 -0.4116 -0.0763
14271TIP3    H264305   4.511   3.237   2.609  0.2806 -0.1048  1.0111
14272TIP3   OH264306   4.409   2.210   2.671  0.0708  0.0109 -0.3348
14272TIP3    H164307   4.332   2.257   2.637 -0.2120 -0.8953 -0.9377
14272TIP3    H264308   4.441   2.266   2.742 -1.5541  0.0669  0.3767
14273TIP3   OH264309   5.819   2.508   2.081 -0.1960  0.6629 -0.2607
14273TIP3    H164310   5.908   2.538   2.062  0.2914  0.0170  0.9681
14273TIP3    H264311   5.798   2.546   2.166 -0.7580  0.1044 -0.1426
14274TIP3   OH264312   6.319   1.088   1.622 -0.7252 -0.6242 -0.4072
14274TIP3    H164313   6.298   1.066   1.713  0.7781 -1.3198 -0.2037
14274TIP3    H264314   6.245   1.053   1.571 -0.2017 -2.8461  0.2787
14275TIP3   OH264315   6.582   3.745   1.127 -0.1519  0.3116 -0.5398
14275TIP3    H164316   6.596   3.650   1.131 -0.5905  0.2504 -0.4270
14275TIP3    H264317   6.537   3.759   1.044  0.0170  0.4358 -0.6105
14276TIP3   OH264318   6.335   0.769   5.569  0.1915 -0.8091 -0.0672
14276TIP3    H164319   6.373   0.685   5.542  1.7281 -0.3148  0.5206
14276TIP3    H264320   6.284   0.748   5.647  0.8867 -1.1369  0.3076
14277TIP3   OH264321   6.025   0.898   5.395  0.1929  0.6714 -0.7790
14277TIP3    H164322   6.050   0.837   5.464  0.3274  0.2409 -1.2012
14277TIP3    H264323   6.097   0.961   5.390  0.1252  0.7724 -0.4454
14278TIP3   OH264324   6.178   6.539   2.182  0.1063  0.3013  0.5624
14278TIP3    H164325   6.227   6.618   2.207 -0.0393  0.4224  0.4657
14278TIP3    H264326   6.094   6.572   2.151  1.0276  0.2876 -1.9928
14279TIP3   OH264327   5.641   0.012   2.878  0.4654 -0.2824  0.0964
14279TIP3    H164328   5.717   0.044   2.927  0.7167  0.4314 -0.7549
14279TIP3    H264329   5.567   0.023   2.937  0.6565  1.2361  0.0524
14280TIP3   OH264330   6.710   0.746   2.183 -0.5009 -0.0488 -0.9868
14280TIP3    H164331   6.737   0.728   2.273 -2.0474 -1.0711 -0.7048
14280TIP3    H264332   6.764   0.688   2.130 -2.7892 -2.8830 -0.3504
14281TIP3   OH264333   6.865   1.545   0.401  0.4229  0.5326 -0.1351
14281TIP3    H164334   6.791   1.606   0.411 -0.2878 -0.3124 -0.2045
14281TIP3    H264335   6.859   1.487   0.477  0.3884 -0.2080 -0.7023
14282TIP3   OH264336   1.110   5.410   1.401 -0.3482  0.2143  0.3810
14282TIP3    H164337   1.165   5.388   1.326 -0.2697 -0.7566  0.7089
14282TIP3    H264338   1.149   5.491   1.436  0.2004  0.1436 -0.0503
14283TIP3   OH264339   0.175   1.587   0.491 -0.0097  0.1249 -0.1712
14283TIP3    H164340   0.192   1.556   0.403 -1.9131 -0.1704 -0.4464
14283TIP3    H264341   0.080   1.597   0.496 -0.0376 -0.8531  2.1672
14284TIP3   OH264342   4.961   0.091   1.675  0.3711 -0.1597  0.1911
14284TIP3    H164343   4.951   0.017   1.615  1.7317  0.3735 -0.7246
14284TIP3    H264344   5.035   0.140   1.640 -0.2441  1.4092  1.0337
14285TIP3   OH264345   4.066   2.294   2.845 -0.1557 -0.2721  0.5527
14285TIP3    H164346   4.058   2.366   2.782 -0.5666 -1.8007 -1.1978
14285TIP3    H264347   4.094   2.336   2.926 -0.2059  1.8336 -0.4794
14286TIP3   OH264348   6.705   6.997   3.815  0.6649 -0.6631 -0.2464
14286TIP3    H164349   6.763   6.927   3.845  1.2226  0.5722  1.6575
14286TIP3    H264350   6.618   6.971   3.848  1.2884  0.7227  2.6471
14287TIP3   OH264351   5.300   0.167   4.306 -0.0017  0.4642  0.0209
14287TIP3    H164352   5.354   0.172   4.386  0.6506  0.5399 -0.4149
14287TIP3    H264353   5.213   0.143   4.337  0.5261 -0.6892  0.6423
14288TIP3   OH264354   5.845   7.054   4.611  0.3923 -0.0207  0.8798
14288TIP3    H164355   5.928   7.046   4.658  0.9048  0.9657  0.1687
14288TIP3    H264356   5.871   7.067   4.519 -0.5575 -0.2823  0.5740
14289TIP3   OH264357   0.489   0.766   1.597  0.5307 -0.0303 -0.1336
14289TIP3    H164358   0.448   0.680   1.593  1.3302 -0.4599  0.9902
14289TIP3    H264359   0.579   0.749   1.623  1.1088  1.0247 -1.3725
14290TIP3   OH264360   5.147   0.643   1.534 -0.3545 -0.4312 -0.5801
14290TIP3    H164361   5.163   0.549   1.549  0.7047  0.0186  1.2637
14290TIP3    H264362   5.112   0.647   1.445  3.1460 -2.2070 -2.1469
14291TIP3   OH264363   6.181   0.230  15.873 -0.5504  0.2552 -0.5148
14291TIP3    H164364   6.087   0.246  15.886 -0.0566  2.6811  0.1184
14291TIP3    H264365   6.212   0.306  15.825  1.2271 -0.2902 -0.2569
14292TIP3   OH264366   6.570   4.726   2.127 -0.0170 -0.8127  0.3348
14292TIP3    H164367   6.556   4.691   2.215 -1.2808  0.9629  0.8696
14292TIP3    H264368   6.496   4.785   2.112  0.3010 -0.9121 -1.8359
14293TIP3   OH264369   6.622   0.627   3.374  0.0376  0.0143 -0.3976
14293TIP3    H164370   6.594   0.652   3.286  1.1152 -1.0985 -1.0703
14293TIP3    H264371   6.673   0.547   3.361 -0.8356 -0.8477  1.3780
14294TIP3   OH264372   4.949   0.309   3.098  0.0363 -0.9408  0.4192
14294TIP3    H164373   4.870   0.274   3.139 -0.0709 -2.0383 -0.6904
14294TIP3    H264374   4.930   0.401   3.082 -0.1163 -0.6232  2.3261
14295TIP3   OH264375   5.157   1.558   0.667 -0.5699 -0.6247 -0.2689
14295TIP3    H164376   5.115   1.474   0.688 -1.9807 -0.6859 -3.0727
14295TIP3    H264377   5.096   1.624   0.699  0.2971 -0.6643  1.4785
14296TIP3   OH264378   0.881   2.044   2.264 -0.2252 -0.8717  0.1192
14296TIP3    H164379   0.884   1.988   2.342 -0.7500 -0.2190  0.6134
14296TIP3    H264380   0.973   2.058   2.242 -0.0816 -1.5492  0.2663
14297TIP3   OH264381   6.353   2.801  15.917  0.8217  0.1419 -0.5905
14297TIP3    H164382   6.426   2.835  15.865  0.0807  0.8119 -1.2153
14297TIP3    H264383   6.307   2.742  15.857  0.5381  0.1421 -0.3738
14298TIP3   OH264384   3.596   1.993   5.715  0.3465 -0.6093  0.3096
14298TIP3    H164385   3.552   1.984   5.800 -0.3853  0.8787  0.1134
14298TIP3    H264386   3.684   2.024   5.737  0.9360 -2.4541  0.6368
14299TIP3   OH264387   6.835   2.100   3.925 -0.2801 -0.4243 -0.5344
14299TIP3    H164388   6.865   2.009   3.925 -0.3731 -0.4537  0.0704
14299TIP3    H264389   6.740   2.094   3.916 -0.3125 -0.3937 -0.2072
14300TIP3   OH264390   6.737   1.032   2.244 -0.0189 -0.0314  0.2949
14300TIP3    H164391   6.707   1.052   2.155  0.7797  0.5781  0.1543
14300TIP3    H264392   6.711   0.941   2.259 -1.4888  0.3271 -0.0050
14301TIP3   OH264393   4.459   1.107   1.142 -0.2446 -0.1770 -0.1008
14301TIP3    H164394   4.440   1.016   1.161  1.1200 -0.7004 -1.1530
14301TIP3    H264395   4.463   1.112   1.046 -0.3495  0.9847 -0.0610
14302TIP3   OH264396   6.524   6.455   2.971 -0.0874 -0.5232 -0.0563
14302TIP3    H164397   6.577   6.516   2.920  0.0713  1.3717  2.3146
14302TIP3    H264398   6.565   6.453   3.057 -0.8431 -3.0286  0.2859
14303TIP3   OH264399   1.802   0.642   0.786  0.1975 -0.4845 -1.0753
14303TIP3    H164400   1.731   0.706   0.797  0.7224 -0.0743 -0.0399
14303TIP3    H264401   1.880   0.686   0.819  1.1458 -0.5788 -3.1045
14304TIP3   OH264402   6.165   1.366   5.068  0.2143 -0.5849  0.4275
14304TIP3    H164403   6.083   1.410   5.046 -1.1536 -2.7322  1.1330
14304TIP3    H264404   6.161   1.353   5.163  0.1919 -2.9797  0.1266
14305TIP3   OH264405   6.158   1.001   2.169  0.3443 -0.2316  0.2623
14305TIP3    H164406   6.125   1.024   2.082  0.2274 -1.5101 -0.0395
14305TIP3    H264407   6.109   0.923   2.193  0.1613  0.2917  1.6126
14306TIP3   OH264408   5.478   2.313   3.732  0.4346  0.4167 -0.0312
14306TIP3    H164409   5.561   2.266   3.725 -0.4333 -0.9476 -1.4587
14306TIP3    H264410   5.416   2.261   3.682 -0.6772  2.8560 -1.2930
14307TIP3   OH264411   5.396   0.736   2.407 -0.1778 -0.5195 -0.8266
14307TIP3    H164412   5.490   0.739   2.388 -0.1886  0.9673 -0.7121
14307TIP3    H264413   5.378   0.643   2.423  1.6055 -0.6377  0.7449
14308TIP3   OH264414   6.423   6.910   3.263 -0.3044 -0.0115  0.0359
14308TIP3    H164415   6.514   6.895   3.287 -0.7757 -0.6301  1.5259
14308TIP3    H264416   6.390   6.823   3.240 -0.5236  0.2013 -0.4437
14309TIP3   OH264417   4.216   3.533   1.448 -0.1902  0.2619 -0.5033
14309TIP3    H164418   4.270   3.475   1.500 -0.5057  1.1780  0.8597
14309TIP3    H264419   4.258   3.619   1.456 -0.1956  0.4121 -1.8246
14310TIP3   OH264420   5.666   7.269   4.995 -0.4705  0.5055  0.1919
14310TIP3    H164421   5.679   7.278   5.090  1.2435 -0.0749  0.0276
14310TIP3    H264422   5.702   7.350   4.958 -0.8872  0.6111  0.0194
14311TIP3   OH264423   4.237   2.337   4.923  0.4106 -0.1492 -0.2431
14311TIP3    H164424   4.318   2.290   4.908 -0.2886 -1.1168 -1.0507
14311TIP3    H264425   4.198   2.294   5.000  0.7485  0.4445  0.2682
14312TIP3   OH264426   6.930   2.100   1.906  0.2550  0.0043  0.0693
14312TIP3    H164427   6.892   2.019   1.870  1.1358 -0.9131  1.1688
14312TIP3    H264428   6.947   2.154   1.829 -0.6437 -0.7186 -0.6663
14313TIP3   OH264429   6.985   2.263   2.905 -0.4439 -0.0340 -0.0512
14313TIP3    H164430   7.006   2.180   2.861  0.1380  1.2366 -2.2293
14313TIP3    H264431   7.052   2.270   2.974 -1.2023 -1.9116  0.9226
14314TIP3   OH264432   7.055   2.050   3.214 -0.1038  0.2953  0.4280
14314TIP3    H164433   7.014   1.984   3.159 -0.6299 -0.4463  1.7003
14314TIP3    H264434   7.001   2.128   3.202  1.4424  1.0351 -2.3458
14315TIP3   OH264435   3.633   2.009   0.652 -0.8818 -0.4998  0.2734
14315TIP3    H164436   3.563   2.042   0.596  0.6626  1.3511 -0.6220
14315TIP3    H264437   3.661   2.086   0.702  1.1407 -1.0246 -0.0440
14316TIP3   OH264438   3.986   7.067   2.340  0.2928  0.0277 -0.2946
14316TIP3    H164439   3.969   7.156   2.309  3.0054  0.3740 -0.8862
14316TIP3    H264440   3.899   7.033   2.362 -0.7466  3.0027  0.5032
14317TIP3   OH264441   6.950   1.599   3.049 -0.1771  0.1283  0.8211
14317TIP3    H164442   6.928   1.538   3.120  3.2567 -1.2230  0.8032
14317TIP3    H264443   6.897   1.568   2.975 -0.9746 -0.7737  1.7453
14318TIP3   OH264444   6.618   3.904   1.888 -0.3196 -0.0331 -0.1022
14318TIP3    H164445   6.648   3.851   1.962  0.1503 -2.2279 -1.8136
14318TIP3    H264446   6.536   3.944   1.918 -0.1436 -0.8925  1.5746
14319TIP3   OH264447   7.253   2.160   1.389  0.0164  0.0949  0.6759
14319TIP3    H164448   7.175   2.159   1.333  0.1072 -1.0942  0.5726
14319TIP3    H264449   7.317   2.212   1.340 -0.1289 -0.3833 -0.0241
14320TIP3   OH264450   6.700   3.212   3.516  0.1021  0.3008 -0.4426
14320TIP3    H164451   6.758   3.139   3.494  0.6745 -0.1494  2.3940
14320TIP3    H264452   6.618   3.193   3.469 -0.0523 -2.6046  0.9114
14321TIP3   OH264453   4.571   4.348   1.965  0.2477 -0.5172 -0.1205
14321TIP3    H164454   4.497   4.365   1.907  0.4559  0.1180 -0.1992
14321TIP3    H264455   4.533   4.344   2.052  0.2130  0.4775 -0.0854
14322TIP3   OH264456   4.946   1.802   5.813 -0.6972  0.7696 -0.5791
14322TIP3    H164457   4.929   1.750   5.892  0.6139 -0.1559 -0.8915
14322TIP3    H264458   4.999   1.875   5.844  1.1585 -0.4287 -0.8158
14323TIP3   OH264459   4.609   2.386   5.116 -0.2050 -0.8780 -0.3843
14323TIP3    H164460   4.596   2.292   5.126 -0.8010 -0.9581 -1.7533
14323TIP3    H264461   4.690   2.405   5.163  0.8709 -2.3735 -1.6145
14324TIP3   OH264462   0.844   2.530   1.991 -0.3245  0.5269 -0.5355
14324TIP3    H164463   0.868   2.442   1.960 -1.0699  0.0180  0.2799
14324TIP3    H264464   0.911   2.588   1.955  1.8236 -0.7751  1.2019
14325TIP3   OH264465   1.543   2.678   4.318  0.2471  0.5438 -0.0069
14325TIP3    H164466   1.498   2.713   4.241 -1.0013  0.6260  0.7416
14325TIP3    H264467   1.493   2.711   4.392 -0.4355 -2.0511  0.7501
14326TIP3   OH264468   5.873   4.931   2.879  0.1791 -0.7567 -0.1947
14326TIP3    H164469   5.944   4.991   2.903 -1.0023  0.6595 -0.1374
14326TIP3    H264470   5.803   4.951   2.941 -0.8656 -0.9690 -1.2868
14327TIP3   OH264471   6.079   1.484   1.710  0.2764  0.7230 -0.3112
14327TIP3    H164472   5.996   1.497   1.755  0.6888  0.9672  0.3833
14327TIP3    H264473   6.096   1.568   1.666  0.7375  1.0627  0.5146
14328TIP3   OH264474   5.443   1.394   2.225 -0.2979 -0.1943 -0.0104
14328TIP3    H164475   5.370   1.423   2.280 -0.4964  0.2055 -0.4800
14328TIP3    H264476   5.520   1.401   2.282 -0.1714  2.3572 -0.4248
14329TIP3   OH264477   1.025   5.608   4.876 -0.5972  0.2212 -0.1634
14329TIP3    H164478   0.967   5.684   4.876 -2.7964 -1.4213 -0.9916
14329TIP3    H264479   1.112   5.644   4.896 -1.7901  2.7832  0.5515
14330TIP3   OH264480   5.786   5.581   1.558  0.3752  0.7616 -0.3710
14330TIP3    H164481   5.827   5.643   1.498  0.4248  1.3171  0.2284
14330TIP3    H264482   5.692   5.593   1.544  0.3881 -1.1610 -2.4051
14331TIP3   OH264483   0.094   1.803   1.481  0.6859  0.0791 -0.2210
14331TIP3    H164484   0.005   1.777   1.454  1.2531 -0.2249 -1.8295
14331TIP3    H264485   0.113   1.747   1.556 -0.8448  0.8031  0.7323
14332TIP3   OH264486   6.737   1.247   4.038 -0.1616  0.1565  0.0109
14332TIP3    H164487   6.680   1.323   4.051  1.1611  1.1566  0.0804
14332TIP3    H264488   6.705   1.182   4.101  1.3254  2.1648  2.9767
14333TIP3   OH264489   6.378   2.187   4.655  0.5743  0.4510 -0.1190
14333TIP3    H164490   6.472   2.189   4.675  0.2272  1.8718  1.4991
14333TIP3    H264491   6.335   2.196   4.741 -1.0329  1.1417 -0.9726
14334TIP3   OH264492   5.881   2.500   2.970  0.1274  0.1997 -0.3561
14334TIP3    H164493   5.924   2.551   3.039  0.9792  1.5303 -1.8246
14334TIP3    H264494   5.799   2.547   2.954  0.8984  1.1288 -1.6899
14335TIP3   OH264495   4.584   2.636   1.638 -0.2825  0.5827  0.3290
14335TIP3    H164496   4.491   2.638   1.661 -0.3731  1.3680 -0.0779
14335TIP3    H264497   4.627   2.593   1.712 -0.9826  0.1267  0.4692
14336TIP3   OH264498   5.309   0.473   2.379 -0.0886  0.0230 -0.6842
14336TIP3    H164499   5.228   0.423   2.386  0.8551 -1.5654 -0.8571
14336TIP3    H264500   5.323   0.485   2.285 -1.1886  2.1107 -0.6106
14337TIP3   OH264501   2.409   0.629   2.275 -0.1722 -0.5469 -0.3021
14337TIP3    H164502   2.361   0.688   2.333  0.7326 -0.1323  0.0257
14337TIP3    H264503   2.412   0.676   2.191 -1.5595 -1.1869 -0.7160
14338TIP3   OH264504   4.800   0.863   2.743 -0.4438 -0.1535  0.2769
14338TIP3    H164505   4.770   0.784   2.787  0.1338 -0.0774  0.8094
14338TIP3    H264506   4.785   0.934   2.805  1.3673 -0.1919  0.7946
14339TIP3   OH264507   3.710   5.260   0.676 -0.5650 -0.2714  0.1458
14339TIP3    H164508   3.714   5.336   0.618 -1.5756  0.3513  0.8572
14339TIP3    H264509   3.695   5.185   0.618 -1.3304  0.3103 -0.4240
14340TIP3   OH264510   4.917   0.022   1.919 -0.3590  0.4050 -0.1599
14340TIP3    H164511   4.921   0.085   1.847  0.0907 -0.5402 -0.9821
14340TIP3    H264512   5.005   0.022   1.956 -0.5117  0.6741  0.2032
14341TIP3   OH264513   0.019   2.501   2.884  0.3236  1.0846 -0.2839
14341TIP3    H164514  -0.070   2.536   2.878  0.3269  0.9110 -1.4458
14341TIP3    H264515   0.030   2.450   2.804  1.2111  0.4978  0.2075
14342TIP3   OH264516   4.360   7.183   3.364  0.1497  0.0924  0.2032
14342TIP3    H164517   4.292   7.221   3.419 -0.1223  0.6110 -0.4777
14342TIP3    H264518   4.432   7.163   3.423 -0.0613  0.8254  0.7069
14343TIP3   OH264519   0.082   2.331   1.235 -0.3159 -0.0409 -0.0401
14343TIP3    H164520   0.073   2.417   1.277 -2.0575 -0.1946 -0.0738
14343TIP3    H264521   0.157   2.291   1.279  0.4665  1.4665  0.0340
14344TIP3   OH264522   4.896   3.998   5.543  0.1264  0.2102  0.1199
14344TIP3    H164523   4.817   4.051   5.550 -0.1527  0.2161 -2.4214
14344TIP3    H264524   4.910   3.962   5.630 -2.3115  0.7507  0.7472
14345TIP3   OH264525   6.666   3.718   4.445 -0.9437  0.0581 -0.5707
14345TIP3    H164526   6.713   3.760   4.517  0.2376 -0.9755 -0.7025
14345TIP3    H264527   6.710   3.633   4.435 -2.1058 -0.4480 -1.4819
14346TIP3   OH264528   6.999   6.594  15.867 -0.3521 -0.0637  0.4840
14346TIP3    H164529   7.024   6.653  15.795 -0.5147 -0.8013 -0.1943
14346TIP3    H264530   6.911   6.565  15.845 -0.0052 -1.1186  0.4191
14347TIP3   OH264531   0.876   1.892   2.534  0.0330 -1.2197  0.1376
14347TIP3    H164532   0.875   1.937   2.619  1.7772 -0.4846 -0.2172
14347TIP3    H264533   0.840   1.805   2.554  0.0701 -0.9336  1.5602
14348TIP3   OH264534   0.877   1.542   0.557 -0.0980 -0.2734 -0.4542
14348TIP3    H164535   0.945   1.606   0.537  1.0012 -0.9937  0.7898
14348TIP3    H264536   0.833   1.576   0.635 -1.3732  0.3328 -1.4248
14349TIP3   OH264537   3.278   1.509   2.680  0.2980  0.2367  0.2265
14349TIP3    H164538   3.294   1.504   2.585  1.2234  0.3521  0.3758
14349TIP3    H264539   3.336   1.578   2.711 -0.2283  0.4091  0.8401
14350TIP3   OH264540   6.015   2.010   0.840 -0.0368  0.3029 -0.0789
14350TIP3    H164541   5.977   2.095   0.865 -0.3730  0.0466  0.2724
14350TIP3    H264542   6.086   1.996   0.902  1.1127  1.1175 -1.1665
14351TIP3   OH264543   5.359   3.610   1.211  0.0946 -0.3415  0.6304
14351TIP3    H164544   5.304   3.657   1.273  0.3974 -2.7999  2.8336
14351TIP3    H264545   5.339   3.651   1.126 -0.5345  2.8682  2.2478
14352TIP3   OH264546   6.255   4.196   2.607 -0.8496 -0.0015 -0.2212
14352TIP3    H164547   6.234   4.120   2.661  2.8219 -1.0795 -0.1529
14352TIP3    H264548   6.296   4.158   2.529 -0.6989  1.8255 -1.0433
14353TIP3   OH264549   7.163   0.373   2.344  0.4725  0.6111 -0.0655
14353TIP3    H164550   7.238   0.318   2.365 -1.2615 -1.4718  0.8821
14353TIP3    H264551   7.115   0.381   2.427 -0.9123  1.0056 -0.8839
14354TIP3   OH264552   6.627   7.310   4.866 -1.0186  0.0796  0.2811
14354TIP3    H164553   6.667   7.298   4.952 -0.7100  0.6132  0.2188
14354TIP3    H264554   6.596   7.223   4.841  1.7777 -0.7594 -0.4815
14355TIP3   OH264555   4.627   2.227   2.024  0.1329  0.3591 -0.3637
14355TIP3    H164556   4.670   2.181   1.952  1.7539  0.1779  0.6751
14355TIP3    H264557   4.645   2.320   2.007 -0.2386  0.3786 -0.6555
14356TIP3   OH264558   0.545   6.836   3.109  0.2008 -0.3299  0.0725
14356TIP3    H164559   0.577   6.850   3.020  1.8961  0.9894  0.8677
14356TIP3    H264560   0.452   6.814   3.098  0.4074 -0.2219 -2.0139
14357TIP3   OH264561   0.892   1.780   3.363 -0.2228  0.4381  0.1659
14357TIP3    H164562   0.929   1.697   3.395  1.7265  0.5733 -1.6004
14357TIP3    H264563   0.814   1.755   3.314 -0.5010 -0.2042  0.9283
14358TIP3   OH264564   6.470   2.916   1.367  0.4022 -0.3095  0.1716
14358TIP3    H164565   6.535   2.942   1.302  0.6300  0.8404  0.8344
14358TIP3    H264566   6.521   2.903   1.448  0.3582 -3.3814 -0.2592
14359TIP3   OH264567   6.888   3.424   3.251  0.5140  0.3486 -0.1762
14359TIP3    H164568   6.847   3.439   3.337 -0.5932 -0.3330 -0.5669
14359TIP3    H264569   6.968   3.476   3.253  0.7027  0.0319  1.4256
14360TIP3   OH264570   6.220   7.049   4.289 -0.1262 -0.2659 -0.4065
14360TIP3    H164571   6.249   7.117   4.351 -0.4460  0.1087 -0.6617
14360TIP3    H264572   6.147   7.007   4.333  1.9851 -2.5005  1.0683
14361TIP3   OH264573   5.496   0.955   5.567  0.3440  0.0661 -0.2781
14361TIP3    H164574   5.498   0.860   5.578 -0.2571  0.1893  1.0018
14361TIP3    H264575   5.580   0.977   5.527  0.6727 -0.9506 -0.1511
14362TIP3   OH264576   1.216   1.413   1.755 -0.4246 -0.0155 -0.7594
14362TIP3    H164577   1.122   1.423   1.741 -0.4954  0.1988 -0.1728
14362TIP3    H264578   1.223   1.374   1.842  0.0429  0.4442 -0.5870
14363TIP3   OH264579   1.750   7.161   2.391 -0.2600 -0.2052 -0.4371
14363TIP3    H164580   1.726   7.254   2.393 -0.6777 -0.3432  1.9180
14363TIP3    H264581   1.823   7.157   2.329 -1.4971  1.3767 -2.0555
14364TIP3   OH264582   6.565   7.066   4.529 -0.2140 -0.2012  0.3784
14364TIP3    H164583   6.517   7.127   4.472  0.2555  0.7409  0.9640
14364TIP3    H264584   6.519   7.069   4.612 -0.0881 -0.5162  0.4595
14365TIP3   OH264585   6.193   1.574   2.274 -0.5542 -0.0039  0.1639
14365TIP3    H164586   6.253   1.504   2.247  0.6260  1.6742 -1.6910
14365TIP3    H264587   6.204   1.579   2.369  0.6097 -1.2050  0.1110
14366TIP3   OH264588   5.533   0.119   4.089 -0.4385  0.9722 -0.6203
14366TIP3    H164589   5.452   0.115   4.140 -0.0661  2.6788  0.1415
14366TIP3    H264590   5.594   0.062   4.136  0.1501  3.1623  1.3493
14367TIP3   OH264591   1.958   0.203   2.530 -0.1718  0.5292 -0.2365
14367TIP3    H164592   1.955   0.218   2.625  0.5130 -0.3379 -0.0667
14367TIP3    H264593   2.025   0.135   2.519 -0.7501  0.1208 -1.2775
14368TIP3   OH264594   7.242   0.658   2.960  0.4131 -0.7609 -0.4824
14368TIP3    H164595   7.184   0.686   3.031  0.4956 -0.7460 -0.4210
14368TIP3    H264596   7.301   0.595   3.001  2.2348  1.2632  0.1252
14369TIP3   OH264597   0.409   2.164   4.693 -0.6063  0.1620  0.1534
14369TIP3    H164598   0.458   2.081   4.692 -0.1154  0.4483  0.5895
14369TIP3    H264599   0.351   2.156   4.768 -0.3160  0.3497  0.4014
14370TIP3   OH264600   6.853   0.587   3.961  0.1946  0.0873  0.0258
14370TIP3    H164601   6.778   0.540   3.996 -0.2767  1.1723  0.5196
14370TIP3    H264602   6.926   0.561   4.017 -0.2214  0.5373  0.7889
14371TIP3   OH264603   1.657   7.117   3.545 -0.0550 -0.1169  0.5894
14371TIP3    H164604   1.750   7.103   3.558 -0.2890 -0.6966  1.6485
14371TIP3    H264605   1.637   7.196   3.596 -0.3883 -0.7140  1.3912
14372TIP3   OH264606   7.003   3.788   2.241  0.2679 -0.0802  0.1509
14372TIP3    H164607   7.096   3.791   2.218 -0.0082 -1.2681 -1.2129
14372TIP3    H264608   6.981   3.877   2.267  2.4754 -0.3508  3.3127
14373TIP3   OH264609   5.536   2.423   1.397 -0.5192  0.2172  0.0435
14373TIP3    H164610   5.611   2.482   1.395 -0.7807  0.4867 -2.8790
14373TIP3    H264611   5.567   2.344   1.352 -1.3632 -0.4715  0.6531
14374TIP3   OH264612   6.731   5.543   2.959  0.3475  0.1363 -0.3286
14374TIP3    H164613   6.647   5.552   2.915  0.0972  1.3216  0.3669
14374TIP3    H264614   6.712   5.492   3.038  0.3435  0.1429 -0.3257
14375TIP3   OH264615   6.897   4.116   1.613 -0.3521 -0.2122 -0.1047
14375TIP3    H164616   6.924   4.205   1.590  0.2276 -0.8008 -1.7781
14375TIP3    H264617   6.975   4.077   1.653 -0.4133 -0.1848  0.0433
14376TIP3   OH264618   0.600   2.529   3.677  0.0183  0.2133  0.1741
14376TIP3    H164619   0.638   2.616   3.662 -1.4581  0.6028 -1.4668
14376TIP3    H264620   0.506   2.541   3.662  0.1997 -2.4532 -3.8040
14377TIP3   OH264621   1.107   2.610   2.298  0.0252  0.0158 -0.5405
14377TIP3    H164622   1.083   2.517   2.305  0.1926  0.0612  1.0307
14377TIP3    H264623   1.168   2.623   2.371  0.5805  1.1823 -1.2107
14378TIP3   OH264624   0.316   3.564   1.154  0.1582 -0.2897  0.9787
14378TIP3    H164625   0.244   3.568   1.090 -1.3397 -1.9226  2.5364
14378TIP3    H264626   0.367   3.487   1.128 -0.8716 -1.3839  2.1743
14379TIP3   OH264627   6.541   0.445   3.581  0.3394 -0.4739 -0.1095
14379TIP3    H164628   6.600   0.394   3.526 -1.1276 -1.4265 -0.8501
14379TIP3    H264629   6.506   0.512   3.523  0.6460  0.0450  0.3047
14380TIP3   OH264630   6.963   2.358   2.172 -0.4243  0.0274  0.1318
14380TIP3    H164631   6.890   2.379   2.114 -1.0069  0.7065  1.0984
14380TIP3    H264632   6.968   2.432   2.233  1.5186  0.3156 -0.3507
14381TIP3   OH264633   6.763   7.112   4.098 -0.1516  0.1336  0.2112
14381TIP3    H164634   6.791   7.028   4.063 -0.3993  0.1028  0.0928
14381TIP3    H264635   6.669   7.103   4.113 -0.5693  1.0279 -1.6435
14382TIP3   OH264636   5.311   7.070   4.910  0.1177  0.3054  0.5864
14382TIP3    H164637   5.260   7.000   4.869  2.6625 -2.4956  1.9841
14382TIP3    H264638   5.256   7.100   4.982 -1.1016 -0.0800 -0.1525
14383TIP3   OH264639   0.760   6.752   1.400  0.2902  0.1628 -0.0808
14383TIP3    H164640   0.776   6.785   1.312  1.7461  0.2084  0.1895
14383TIP3    H264641   0.750   6.830   1.454  0.1000  0.1383 -0.0796
14384TIP3   OH264642   6.246   1.587   4.773  0.4602 -0.2071  0.0396
14384TIP3    H164643   6.162   1.616   4.809 -0.0111  0.2667 -1.3838
14384TIP3    H264644   6.241   1.492   4.774 -0.5885 -0.1830 -1.0920
14385TIP3   OH264645   5.552   3.906   3.655 -0.3192  0.3730  0.0112
14385TIP3    H164646   5.491   3.943   3.593 -0.6263 -0.7211 -0.3481
14385TIP3    H264647   5.513   3.923   3.741 -0.4660  0.8480 -0.1496
14386TIP3   OH264648   6.064   1.922   2.685  0.5271  0.5086 -0.4384
14386TIP3    H164649   6.066   1.938   2.780 -0.2406  0.6266 -0.4433
14386TIP3    H264650   6.014   1.841   2.675  1.9685 -0.3813 -0.6313
14387TIP3   OH264651   6.380   6.189   4.004 -0.0253  0.0169  0.1867
14387TIP3    H164652   6.342   6.198   4.091  0.3546 -0.1971  0.3786
14387TIP3    H264653   6.473   6.171   4.020  0.0232 -0.1401 -0.2602
14388TIP3   OH264654   6.563   1.434   2.406  0.5863 -0.0023  0.4580
14388TIP3    H164655   6.514   1.444   2.324  0.3549  1.3851  0.7529
14388TIP3    H264656   6.655   1.439   2.379  0.5679 -1.7267  0.0195
14389TIP3   OH264657   5.677   6.624   5.228 -0.2926 -0.1540 -0.4549
14389TIP3    H164658   5.754   6.567   5.215  0.6151  1.1967 -1.1116
14389TIP3    H264659   5.714   6.712   5.239 -1.7422  0.4743 -0.5026
14390TIP3   OH264660   5.546   1.493   1.991  0.1799  0.2306 -0.3530
14390TIP3    H164661   5.502   1.450   2.065  0.1945 -1.1620 -1.1420
14390TIP3    H264662   5.633   1.515   2.024 -0.4557  1.3529  0.6399
14391TIP3   OH264663   7.315   4.327   2.598  0.4652 -0.2597  0.4046
14391TIP3    H164664   7.225   4.296   2.593  0.0395  0.9715  0.2766
14391TIP3    H264665   7.364   4.253   2.635 -0.9936 -0.1439  2.6443
14392TIP3   OH264666   5.405   5.672   4.326 -0.1838  0.5105  0.4678
14392TIP3    H164667   5.325   5.660   4.276 -0.6478  1.4140  0.9733
14392TIP3    H264668   5.468   5.706   4.262  0.4504 -2.2128 -0.4171
14393TIP3   OH264669   4.610   3.775   2.645  0.2832 -0.3901  0.2157
14393TIP3    H164670   4.585   3.867   2.640  0.1583 -0.3195  1.8253
14393TIP3    H264671   4.673   3.771   2.717  2.1622 -1.1697 -1.4272
14394TIP3   OH264672   7.030   4.673   5.801  0.8028  0.1061 -0.0976
14394TIP3    H164673   7.057   4.751   5.848  0.3964 -0.2957  0.8311
14394TIP3    H264674   6.982   4.621   5.867  2.6924 -1.7974 -0.1787
14395TIP3   OH264675   5.722   1.346   4.474  0.2353 -0.3066 -0.0358
14395TIP3    H164676   5.722   1.302   4.559 -0.4178 -0.8342 -0.3115
14395TIP3    H264677   5.700   1.278   4.411  0.5979  0.1129 -0.6175
14396TIP3   OH264678   6.161   2.036   4.038  0.0999  0.2205 -0.3639
14396TIP3    H164679   6.107   2.075   4.107 -1.5715 -1.6333 -0.5821
14396TIP3    H264680   6.112   1.959   4.009  1.7342 -0.1689 -2.2440
14397TIP3   OH264681   5.162   3.812   3.386 -0.3420 -0.2687 -0.5427
14397TIP3    H164682   5.137   3.874   3.317 -0.3016 -0.1931 -0.4889
14397TIP3    H264683   5.081   3.765   3.407 -0.3941 -0.1654 -0.5131
14398TIP3   OH264684   4.642   0.638   3.269 -0.1344 -0.2558 -0.3292
14398TIP3    H164685   4.629   0.544   3.261 -1.0199 -0.0384 -1.6069
14398TIP3    H264686   4.573   0.668   3.328 -0.2104 -0.3321 -0.3799
14399TIP3   OH264687   6.049   3.143   2.767  0.2091 -0.0764 -0.0784
14399TIP3    H164688   6.037   3.054   2.800 -1.8072  0.0299 -0.4100
14399TIP3    H264689   5.971   3.190   2.797  1.9760  2.0041  1.4143
14400TIP3   OH264690   5.145   3.788   1.890 -0.7965 -0.0915 -0.6625
14400TIP3    H164691   5.052   3.797   1.910 -0.8170  1.7982 -1.5398
14400TIP3    H264692   5.171   3.707   1.934 -2.4636  0.2373  1.0056
14401TIP3   OH264693   0.614   1.904   1.880  0.2626 -0.2719 -0.3157
14401TIP3    H164694   0.637   1.841   1.948  1.7310 -1.0763 -1.5075
14401TIP3    H264695   0.647   1.988   1.913  0.2136 -0.5038  0.3290
14402TIP3   OH264696   4.473   2.552   3.074  0.1606 -0.2330  0.2073
14402TIP3    H164697   4.531   2.595   3.012 -1.1547  0.5170 -0.5251
14402TIP3    H264698   4.448   2.471   3.031 -0.8858  0.3659 -0.3315
14403TIP3   OH264699   4.702   3.851   4.662  0.2840 -0.5184 -0.2741
14403TIP3    H164700   4.680   3.932   4.707  0.3774 -0.1500 -0.8847
14403TIP3    H264701   4.786   3.824   4.701 -0.1888 -0.8127  0.5656
14404TIP3   OH264702   5.548   4.635   1.702 -0.5226  0.3026  0.0426
14404TIP3    H164703   5.621   4.629   1.640  0.3963 -0.1249  1.1606
14404TIP3    H264704   5.553   4.554   1.752 -1.7799  0.2678  0.1248
14405TIP3   OH264705   1.285   2.282   3.996 -0.4742 -0.3227  0.1377
14405TIP3    H164706   1.301   2.225   4.071 -1.1883  0.2591  0.7350
14405TIP3    H264707   1.209   2.334   4.021 -1.6633 -1.1956 -1.6187
14406TIP3   OH264708   1.636   5.849   1.524  0.3958 -0.1707 -0.0055
14406TIP3    H164709   1.635   5.932   1.476  1.6987  0.5806  1.2091
14406TIP3    H264710   1.643   5.782   1.456  0.7695  0.7998 -0.9346
14407TIP3   OH264711   6.516   0.064   3.970 -0.1938 -0.1053  0.4173
14407TIP3    H164712   6.526   0.031   4.059 -0.2823 -1.1064  0.0668
14407TIP3    H264713   6.510   0.159   3.979  2.4293  0.0062  1.2458
14408TIP3   OH264714   5.953   7.330   5.342 -0.3313 -0.4488  0.0679
14408TIP3    H164715   6.026   7.366   5.292 -1.7844  0.4954 -1.4378
14408TIP3    H264716   5.976   7.345   5.433 -0.6046  3.8053 -0.4802
14409TIP3   OH264717   7.199   6.766   2.824  0.3049 -0.6684  0.3440
14409TIP3    H164718   7.108   6.754   2.798  0.0141  0.8260  0.6514
14409TIP3    H264719   7.217   6.693   2.883 -0.7849 -0.7737  0.5486
14410TIP3   OH264720   7.215   0.844   4.052 -0.7797  0.1127  0.2168
14410TIP3    H164721   7.131   0.890   4.044 -1.4254 -0.8268  1.3938
14410TIP3    H264722   7.214   0.809   4.141  0.9814  0.3086  0.3238
14411TIP3   OH264723   5.961   6.576   3.275 -0.5798 -0.0374  0.0050
14411TIP3    H164724   6.006   6.500   3.312 -0.9236 -2.8257 -4.8739
14411TIP3    H264725   6.029   6.623   3.225 -1.1604  0.8353  0.0198
14412TIP3   OH264726   5.360   3.843   2.664 -0.0179 -0.1996 -0.1642
14412TIP3    H164727   5.453   3.830   2.648 -0.1014  0.4815 -1.2361
14412TIP3    H264728   5.326   3.755   2.681  0.1464 -0.9641 -3.4479
14413TIP3   OH264729   6.436   0.623   2.677  0.2339  0.5544  0.3929
14413TIP3    H164730   6.377   0.632   2.752 -1.0036  1.4189 -0.6620
14413TIP3    H264731   6.522   0.648   2.711  0.2439 -1.7162  2.2247
14414TIP3   OH264732   5.577   6.528   2.693 -0.4724  0.2921 -0.4570
14414TIP3    H164733   5.588   6.579   2.612  0.7713 -0.3213 -0.6840
14414TIP3    H264734   5.510   6.575   2.742 -0.8093  1.0071 -1.5824
14415TIP3   OH264735   0.278   1.744  15.645  0.5866  0.4117 -0.3290
14415TIP3    H164736   0.199   1.778  15.603 -0.6363  1.0001  2.4052
14415TIP3    H264737   0.349   1.791  15.602 -0.4376 -0.6920 -3.3716
14416TIP3   OH264738   0.276   0.447   3.709  0.6737 -0.9826 -0.3313
14416TIP3    H164739   0.209   0.446   3.641  0.8001  1.5610 -0.5455
14416TIP3    H264740   0.337   0.515   3.682 -0.3935  1.6170  3.3430
14417TIP3   OH264741   2.301   3.279   3.434 -0.0587  0.2796  0.4436
14417TIP3    H164742   2.254   3.298   3.353 -1.0313 -1.1389  0.6579
14417TIP3    H264743   2.241   3.304   3.504 -0.9932 -2.5365  0.7221
14418TIP3   OH264744   0.471   1.596   1.512 -0.6536 -0.1575  0.8064
14418TIP3    H164745   0.459   1.560   1.424  2.3616  1.2099 -0.2451
14418TIP3    H264746   0.452   1.689   1.503  2.0192  0.4585  0.9701
14419TIP3   OH264747   0.426   1.588   3.303  0.0819 -0.9717  0.1183
14419TIP3    H164748   0.418   1.560   3.212 -3.2329  0.7110 -0.1949
14419TIP3    H264749   0.415   1.507   3.353 -0.8776 -1.5073 -0.9260
14420TIP3   OH264750   5.270   2.697   3.997 -0.0900  0.1504  0.4631
14420TIP3    H164751   5.338   2.641   3.960  0.3249 -0.0781  1.5517
14420TIP3    H264752   5.190   2.645   3.992 -0.1145  0.2621 -0.4380
14421TIP3   OH264753   1.663   1.737   2.767  0.0468 -0.1666 -0.5402
14421TIP3    H164754   1.678   1.825   2.800 -0.5219 -0.3262  0.1587
14421TIP3    H264755   1.744   1.690   2.785  0.5072  0.3253 -1.3032
14422TIP3   OH264756   0.926   2.079   1.653 -0.7942  0.1468  0.6237
14422TIP3    H164757   0.910   2.158   1.601  0.9620  0.1804  0.1050
14422TIP3    H264758   0.897   2.008   1.597  1.1886  0.1772 -0.5005
14423TIP3   OH264759   0.633   1.804   3.140  0.4569  0.0100 -0.1031
14423TIP3    H164760   0.545   1.841   3.134  0.5006 -0.2941 -3.5540
14423TIP3    H264761   0.619   1.710   3.150  0.4205  0.0656  0.4226
14424TIP3   OH264762   0.841   2.142   3.034  0.5256  0.2632 -0.2199
14424TIP3    H164763   0.783   2.173   3.104  0.6702  0.8846 -0.3721
14424TIP3    H264764   0.915   2.102   3.080  0.7611  0.9293 -0.0120
14425TIP3   OH264765   1.010   4.524   4.083  0.1798  0.1674  0.4371
14425TIP3    H164766   0.943   4.462   4.055 -0.7639  1.5201 -0.3521
14425TIP3    H264767   0.994   4.537   4.177  1.7883 -2.4649  1.1151
14426TIP3   OH264768   0.791   1.609   1.000  0.2179  0.1299 -0.3646
14426TIP3    H164769   0.822   1.624   1.089 -1.8462 -1.2093  0.6294
14426TIP3    H264770   0.695   1.616   1.006  0.0067 -0.6007 -2.3358
14427TIP3   OH264771   5.752   5.623   3.198  0.6942  0.2893 -0.3156
14427TIP3    H164772   5.845   5.602   3.207  0.4891 -0.6317 -0.3311
14427TIP3    H264773   5.708   5.565   3.260  0.2992  2.1566  1.2100
14428TIP3   OH264774   7.263   3.698   2.229 -0.0927  0.7028 -0.3491
14428TIP3    H164775   7.230   3.617   2.190 -1.2084  0.8629  0.2348
14428TIP3    H264776   7.248   3.687   2.323  0.1282  1.4197 -0.2271
14429TIP3   OH264777   7.185   5.604   1.488  0.6378  0.6035  0.1437
14429TIP3    H164778   7.164   5.597   1.395  1.6872  0.2049 -0.0719
14429TIP3    H264779   7.124   5.545   1.531  1.3737 -0.6474 -0.4843
14430TIP3   OH264780   1.900   1.221   4.307  0.1474 -0.7211  0.1837
14430TIP3    H164781   1.813   1.224   4.346  0.8403  0.9410  1.6896
14430TIP3    H264782   1.934   1.310   4.317  1.6728 -1.1252 -1.1749
14431TIP3   OH264783   1.529   0.307   2.389  0.0527 -0.5154 -0.0345
14431TIP3    H164784   1.439   0.278   2.380 -0.6937  2.4200 -2.6357
14431TIP3    H264785   1.524   0.389   2.439  1.2190 -0.1083 -0.5523
14432TIP3   OH264786   7.081   0.293   1.741 -0.6590  0.1314 -0.8042
14432TIP3    H164787   7.033   0.210   1.747  0.5760 -0.4750  0.8235
14432TIP3    H264788   7.105   0.314   1.831  3.0284 -0.1112 -1.6653
14433TIP3   OH264789   1.613   1.840   1.599 -0.1505 -0.4829 -0.2166
14433TIP3    H164790   1.639   1.880   1.516  0.6494  1.5133  0.9617
14433TIP3    H264791   1.533   1.792   1.579 -0.0327  0.0969 -2.1135
14434TIP3   OH264792   1.048   2.864   2.723  0.0056  0.6459 -0.5764
14434TIP3    H164793   0.992   2.901   2.791 -0.0861  1.4907 -1.1036
14434TIP3    H264794   0.989   2.843   2.651 -0.1064 -1.5285  0.0966
14435TIP3   OH264795   0.001   2.177   0.728 -0.2707  0.1030 -0.2656
14435TIP3    H164796   0.087   2.134   0.720  0.3186  0.6991  2.2969
14435TIP3    H264797   0.012   2.261   0.683  1.2249  1.1397  1.9567
14436TIP3   OH264798   4.081   1.442   2.279  0.1307 -0.2744  0.1462
14436TIP3    H164799   4.171   1.473   2.292 -0.6331  2.2059 -0.1449
14436TIP3    H264800   4.047   1.429   2.368  1.3952 -3.2986  0.2616
14437TIP3   OH264801   7.065   0.757   1.113  0.0327 -0.0884 -0.4354
14437TIP3    H164802   7.151   0.776   1.150  0.0298 -0.4201 -0.2581
14437TIP3    H264803   7.068   0.664   1.091 -0.2347 -0.0714 -0.5459
14438TIP3   OH264804   0.787   1.648   2.589  0.3409  0.1057 -0.2952
14438TIP3    H164805   0.820   1.586   2.653 -0.2077 -0.0869 -0.1946
14438TIP3    H264806   0.707   1.608   2.555  0.2595  0.5169 -0.6028
14439TIP3   OH264807   0.968   7.020   0.549  0.2464  0.3089 -0.6335
14439TIP3    H164808   0.885   7.067   0.537  1.3601  2.5706  0.2710
14439TIP3    H264809   1.026   7.055   0.482  0.3246 -1.6719 -1.6201
14440TIP3   OH264810   2.090   2.131   1.406  0.0909  0.6032  0.0114
14440TIP3    H164811   2.069   2.046   1.369 -0.9172  1.0528 -0.4486
14440TIP3    H264812   2.007   2.164   1.440  0.2258  1.9545 -0.9350
14441TIP3   OH264813   0.048   2.322   2.663 -0.1317 -0.2122  0.3182
14441TIP3    H164814   0.071   2.230   2.652  0.1404 -0.2951  1.4937
14441TIP3    H264815  -0.044   2.327   2.639  0.1371 -0.5745 -0.8288
14442TIP3   OH264816   6.663   2.231   4.715 -0.2204  0.4353 -0.0653
14442TIP3    H164817   6.751   2.218   4.680 -0.2941 -0.2152 -0.0131
14442TIP3    H264818   6.670   2.312   4.767 -0.2854  1.8164 -2.1500
14443TIP3   OH264819   1.185   1.391   4.571  0.3811  0.0469 -0.2911
14443TIP3    H164820   1.157   1.341   4.494  1.0493 -1.0193  0.1479
14443TIP3    H264821   1.114   1.454   4.585 -1.8066 -2.4967  0.7053
14444TIP3   OH264822   5.426   2.756   4.399 -0.7858  0.5201  0.4595
14444TIP3    H164823   5.354   2.787   4.343 -1.2969  1.4550  1.6056
14444TIP3    H264824   5.414   2.803   4.481  2.4226  2.3896 -0.0514
14445TIP3   OH264825   2.311   2.274   3.411  0.1681 -0.0331 -0.0547
14445TIP3    H164826   2.364   2.284   3.490 -1.5272 -0.3003  1.1558
14445TIP3    H264827   2.363   2.216   3.355  0.2957 -1.9242  1.9253
14446TIP3   OH264828   6.293   2.315  15.756  0.3764 -0.5682  0.2581
14446TIP3    H164829   6.227   2.288  15.692  0.2482  2.1558 -0.8159
14446TIP3    H264830   6.265   2.401  15.786  2.1340 -0.4319  1.6548
14447TIP3   OH264831   0.458   3.020   1.943  0.4081 -0.6951  0.2966
14447TIP3    H164832   0.378   3.020   1.995  1.2131 -0.0172  1.5580
14447TIP3    H264833   0.490   2.930   1.948 -0.7695 -1.2040 -1.0100
14448TIP3   OH264834   0.385   2.753   2.123 -0.3408  0.0763  0.0366
14448TIP3    H164835   0.449   2.757   2.051  0.7525 -1.1664  0.9033
14448TIP3    H264836   0.425   2.803   2.194 -2.1264  2.6540 -0.6981
14449TIP3   OH264837   2.725   1.825   3.588 -0.1990  0.4543  0.3942
14449TIP3    H164838   2.777   1.806   3.666 -0.9881  0.2822  0.8851
14449TIP3    H264839   2.789   1.830   3.517  0.3920 -0.6521  0.8374
14450TIP3   OH264840   1.864   4.917   4.730  0.3151  0.3824 -0.3748
14450TIP3    H164841   1.958   4.902   4.735  0.4214  0.7812 -1.1285
14450TIP3    H264842   1.842   4.959   4.813  0.7115 -0.1920  0.0212
14451TIP3   OH264843   4.029   2.035   3.061  0.6155 -0.5726 -0.5122
14451TIP3    H164844   4.048   1.943   3.040 -0.5948 -0.9041 -0.1590
14451TIP3    H264845   3.962   2.031   3.128  1.9801  0.5543  0.9508
14452TIP3   OH264846   7.325   4.056   2.112  0.6309  0.7172  0.1050
14452TIP3    H164847   7.304   4.045   2.205 -2.5259  4.0113 -0.1517
14452TIP3    H264848   7.253   4.013   2.066  1.0159  1.0819 -0.8475
14453TIP3   OH264849   2.487   3.312   2.834 -0.6155  0.2274  0.5123
14453TIP3    H164850   2.527   3.241   2.783 -2.7956 -0.3790 -0.3995
14453TIP3    H264851   2.452   3.269   2.912 -1.7576  0.3092  0.0572
14454TIP3   OH264852   0.601   2.808   3.690  0.5903 -0.6303  0.1069
14454TIP3    H164853   0.514   2.846   3.706  0.5507 -1.0701  0.9652
14454TIP3    H264854   0.638   2.862   3.619 -0.2331 -0.2139 -0.0167
14455TIP3   OH264855   1.225   3.621   3.515 -0.8850  0.2556 -0.3696
14455TIP3    H164856   1.129   3.623   3.522 -0.7594  0.5307  1.4047
14455TIP3    H264857   1.255   3.594   3.602  0.7861  3.5597  0.1498
14456TIP3   OH264858   6.895   2.744   0.946  0.8924  0.2967 -0.7735
14456TIP3    H164859   6.959   2.674   0.962 -0.7492 -1.2463 -0.9099
14456TIP3    H264860   6.828   2.704   0.892 -1.2660  1.3136  1.0732
14457TIP3   OH264861   0.119   3.904   2.494 -0.2147  0.0650  0.6760
14457TIP3    H164862   0.110   3.826   2.440  1.7996  0.3368 -0.0809
14457TIP3    H264863   0.053   3.965   2.460  0.2775 -0.1812 -0.7385
14458TIP3   OH264864   1.115   2.338   2.290  0.1794 -0.0072 -0.1412
14458TIP3    H164865   1.088   2.254   2.251  2.1747  0.1872 -2.0086
14458TIP3    H264866   1.156   2.313   2.372  0.8776 -0.8810 -0.7458
14459TIP3   OH264867   2.175   1.929   4.550 -0.1520 -0.4654  0.3990
14459TIP3    H164868   2.108   1.861   4.555  0.5428 -1.1130  1.3798
14459TIP3    H264869   2.128   2.008   4.525 -1.0529 -1.2041 -0.2783
14460TIP3   OH264870   2.418   3.136  15.832  0.0678  0.3578 -0.2239
14460TIP3    H164871   2.485   3.191  15.792 -0.0920 -0.5792 -1.8429
14460TIP3    H264872   2.337   3.187  15.824  0.1939  0.5448 -0.3160
14461TIP3   OH264873   1.705   3.351   5.259  0.0813 -0.0276 -0.4705
14461TIP3    H164874   1.624   3.400   5.247 -0.0902 -0.1662  0.1192
14461TIP3    H264875   1.704   3.323   5.350  0.0701 -1.3292 -0.8593
14462TIP3   OH264876   0.990   3.722   3.644 -0.0298  0.4079 -0.4959
14462TIP3    H164877   0.939   3.723   3.563  1.2980  1.8248 -1.3228
14462TIP3    H264878   0.969   3.804   3.687 -0.5682 -0.2477  0.5251
14463TIP3   OH264879   7.231   3.179   3.269 -0.2943  0.3397  0.0427
14463TIP3    H164880   7.177   3.136   3.202  0.3917 -0.8200  0.2287
14463TIP3    H264881   7.184   3.163   3.351  0.0781 -0.2430  0.1409
14464TIP3   OH264882   2.687   1.766   0.971  0.2902  0.1491  0.6519
14464TIP3    H164883   2.647   1.762   1.058  1.5064  0.1380  1.2315
14464TIP3    H264884   2.692   1.860   0.951 -1.4385  0.0918 -0.1100
14465TIP3   OH264885   6.035   4.241   2.458  0.0993 -0.5724  0.5834
14465TIP3    H164886   6.108   4.219   2.516 -0.3315  1.8261  2.0910
14465TIP3    H264887   5.999   4.156   2.432  2.6180 -1.7738  0.8069
14466TIP3   OH264888   0.368   1.321   2.252  0.5655 -0.2948 -0.1258
14466TIP3    H164889   0.339   1.411   2.240  2.8325  0.4367 -0.3570
14466TIP3    H264890   0.400   1.294   2.166 -0.5320 -1.4867 -0.1719
14467TIP3   OH264891   5.800   3.505   2.831 -0.5396  0.4546 -0.3552
14467TIP3    H164892   5.814   3.532   2.740  0.7994  0.4636 -0.1563
14467TIP3    H264893   5.822   3.582   2.882  2.0467 -0.5740  0.1472
14468TIP3   OH264894   7.315   0.189   1.622  0.0854  0.1486  0.2873
14468TIP3    H164895   7.294   0.099   1.598  1.0022  0.0144 -0.0296
14468TIP3    H264896   7.230   0.232   1.629 -0.3064 -0.4280 -0.7827
14469TIP3   OH264897   4.182   4.216   2.903  0.5755  0.0361 -0.2693
14469TIP3    H164898   4.188   4.122   2.888  1.4151  0.1553 -0.7282
14469TIP3    H264899   4.221   4.229   2.989  0.0222 -0.0918  0.0018
14470TIP3   OH264900   0.698   2.261   3.229 -0.1050 -0.0205 -0.2671
14470TIP3    H164901   0.663   2.347   3.250 -0.8223 -0.6977  1.4529
14470TIP3    H264902   0.719   2.223   3.315 -5.5091 -3.9760 -0.4475
14471TIP3   OH264903   1.688   1.118   3.011 -0.3057 -0.1609 -0.0639
14471TIP3    H164904   1.604   1.103   3.054 -0.8906  0.5709 -0.9399
14471TIP3    H264905   1.753   1.086   3.074 -1.2462 -0.9795  0.5068
14472TIP3   OH264906   1.678   0.871   2.893  0.2303  1.3719 -0.0593
14472TIP3    H164907   1.711   0.843   2.979  0.1485 -1.1217 -0.7931
14472TIP3    H264908   1.679   0.967   2.897 -1.1478  1.3117  3.2495
14473TIP3   OH264909   1.861   1.289   2.504  0.0762 -0.8369  0.0553
14473TIP3    H164910   1.862   1.331   2.418 -0.8493 -0.4148  0.2358
14473TIP3    H264911   1.929   1.222   2.499  0.6988 -0.1605 -0.6697
14474TIP3   OH264912   1.544   2.296   3.341  0.0578 -0.2960  0.0658
14474TIP3    H164913   1.599   2.261   3.411 -0.2515 -0.5658  0.1806
14474TIP3    H264914   1.533   2.389   3.363 -1.8255 -0.8372  1.6012
14475TIP3   OH264915   0.941   1.649   4.453 -0.1860 -0.2857 -0.2444
14475TIP3    H164916   0.891   1.700   4.389  0.1541 -0.4182 -0.6163
14475TIP3    H264917   0.990   1.714   4.503 -0.5723 -0.1699 -0.0126
14476TIP3   OH264918   1.072   1.571   3.477  0.1166  0.3055 -0.2925
14476TIP3    H164919   1.067   1.535   3.565  3.1596 -2.7457 -1.2451
14476TIP3    H264920   1.063   1.495   3.419  1.3235  1.7847 -2.5313
14477TIP3   OH264921   0.159   0.615  15.988 -0.0921  0.7066  0.2088
14477TIP3    H164922   0.225   0.606  15.920  0.1514  1.3256  0.3589
14477TIP3    H264923   0.075   0.612  15.942  0.0751  1.3172 -0.1447
14478TIP3   OH264924   1.322   0.889   3.918  0.6227 -0.1552  0.1227
14478TIP3    H164925   1.408   0.882   3.876  1.0598  0.3950  0.9233
14478TIP3    H264926   1.330   0.963   3.978 -0.1280 -0.6708  0.8732
14479TIP3   OH264927   2.860   0.967   4.417 -0.4171 -0.1038  0.3337
14479TIP3    H164928   2.844   0.877   4.389  2.7022 -0.7077  0.2850
14479TIP3    H264929   2.840   0.968   4.511  0.5879 -1.1386  0.5612
14480TIP3   OH264930   1.318   3.084   4.349 -0.2701  0.0585  0.1895
14480TIP3    H164931   1.364   3.118   4.272 -0.1636 -1.0432 -0.2549
14480TIP3    H264932   1.245   3.035   4.313 -1.6505  1.5742  0.8918
14481TIP3   OH264933   0.594   1.717   2.869 -0.5962 -0.0956 -0.0048
14481TIP3    H164934   0.622   1.795   2.822  2.0623 -0.1177  1.4565
14481TIP3    H264935   0.624   1.731   2.959 -1.9456 -1.8710  0.7472
14482TIP3   OH264936   0.573   4.562   1.429  0.4044  0.6174 -0.5005
14482TIP3    H164937   0.522   4.611   1.494  0.3550  1.6437 -1.3028
14482TIP3    H264938   0.605   4.486   1.477  1.3316  1.9351  1.0595
14483TIP3   OH264939   6.430   1.694   0.274 -0.4063 -0.4360 -0.2287
14483TIP3    H164940   6.499   1.714   0.210 -1.1657  2.2766 -0.2589
14483TIP3    H264941   6.474   1.699   0.358 -0.3618  0.4570 -0.2974
14484TIP3   OH264942   0.794   0.689   2.476  0.9090  0.2476  0.3142
14484TIP3    H164943   0.809   0.741   2.555  1.2396 -0.7989  0.9631
14484TIP3    H264944   0.815   0.748   2.404  3.0619  0.4592  1.0761
14485TIP3   OH264945   0.627   1.696   3.514  0.3236  0.8107  0.1565
14485TIP3    H164946   0.596   1.693   3.423 -0.0634 -0.1662  0.3111
14485TIP3    H264947   0.715   1.660   3.511 -0.1332 -0.3368  0.3406
14486TIP3   OH264948   2.864   2.848   2.059 -0.3150  0.0658 -0.2201
14486TIP3    H164949   2.773   2.875   2.054 -0.2023  0.6046  0.5136
14486TIP3    H264950   2.914   2.925   2.029 -0.1381 -0.5523 -1.5436
14487TIP3   OH264951   1.134   3.346   2.820 -0.1435 -0.2070 -0.1713
14487TIP3    H164952   1.040   3.328   2.823 -0.1173 -0.0218  3.9116
14487TIP3    H264953   1.172   3.267   2.781 -1.7824 -1.0667 -0.0738
14488TIP3   OH264954   2.319   2.379   2.853 -0.0172  0.1530 -0.0546
14488TIP3    H164955   2.317   2.301   2.908  1.0624 -0.1543 -0.4278
14488TIP3    H264956   2.245   2.432   2.883  0.4416 -0.0959  1.5553
14489TIP3   OH264957   0.050   1.174   0.807  0.3264  0.2899  0.0302
14489TIP3    H164958  -0.013   1.127   0.862  1.3961 -1.0333  0.1524
14489TIP3    H264959   0.013   1.171   0.719  0.6956 -1.3610 -0.0753
14490TIP3   OH264960   1.803   2.035   2.384  0.1380  0.5955  0.1253
14490TIP3    H164961   1.797   1.985   2.302 -2.2644 -0.9625  1.1793
14490TIP3    H264962   1.830   1.971   2.449 -3.0443  0.5464  1.5172
14491TIP3   OH264963   0.270   2.341   3.914 -0.1617 -0.3973  0.3943
14491TIP3    H164964   0.357   2.314   3.886  0.2787  1.2753  0.1153
14491TIP3    H264965   0.210   2.283   3.866  0.6544  1.1205 -2.5701
14492TIP3   OH264966   1.256   2.175   2.452 -0.1609 -0.8792 -0.5266
14492TIP3    H164967   1.344   2.176   2.414 -0.0809  0.7135 -0.3259
14492TIP3    H264968   1.231   2.083   2.453  1.5490 -1.3500 -0.4925
14493TIP3   OH264969   0.628   0.496   2.380  0.2191  0.0191  0.0215
14493TIP3    H164970   0.660   0.506   2.290  1.9793 -0.2562  0.5884
14493TIP3    H264971   0.689   0.549   2.433 -0.8535  0.2514  1.0379
14494TIP3   OH264972   3.090   2.051   0.106  0.0679 -0.1591 -0.2700
14494TIP3    H164973   3.047   2.001   0.177  0.4619  1.4933  1.1613
14494TIP3    H264974   3.134   2.123   0.151  2.1276 -0.2978 -2.0065
14495TIP3   OH264975   1.122   0.790   4.247  0.2456  0.2995 -0.0919
14495TIP3    H164976   1.107   0.706   4.291 -2.4857 -0.9228 -3.1260
14495TIP3    H264977   1.039   0.837   4.255  1.1746  1.9939  0.0153
14496TIP3   OH264978   0.135   3.116   0.814  0.0049 -0.3325 -0.0145
14496TIP3    H164979   0.162   3.193   0.865  0.4479 -0.5418  0.0720
14496TIP3    H264980   0.121   3.048   0.880  0.9729 -0.7188 -0.2088
14497TIP3   OH264981   1.775   0.310   3.111 -0.0439  0.2990  0.2887
14497TIP3    H164982   1.861   0.337   3.142 -0.6695  0.8513  1.5865
14497TIP3    H264983   1.757   0.229   3.158 -0.2983  0.2729  0.1455
14498TIP3   OH264984   2.652   3.688   5.374 -0.1421  0.4311  0.3842
14498TIP3    H164985   2.673   3.748   5.446 -1.0211  2.2936 -0.8737
14498TIP3    H264986   2.738   3.658   5.343  0.4133  2.4454 -0.1220
14499TIP3   OH264987   2.001   2.564   1.514  0.2830  0.1298 -1.2333
14499TIP3    H164988   1.986   2.471   1.534  0.1400  0.5138  0.5383
14499TIP3    H264989   1.915   2.605   1.526  0.9342  0.9576  0.8862
14500TIP3   OH264990   6.999   6.617   1.404  0.0179 -0.1959  0.2113
14500TIP3    H164991   7.087   6.584   1.419  0.9819  1.3081 -2.0050
14500TIP3    H264992   6.943   6.540   1.416  1.9751 -2.0564 -2.1035
14501TIP3   OH264993   0.854   1.480   5.291  0.4157  0.6500 -0.2405
14501TIP3    H164994   0.787   1.435   5.344 -0.1073  1.5382 -0.1387
14501TIP3    H264995   0.935   1.432   5.310 -0.2484 -0.6630 -0.6431
14502TIP3   OH264996   0.801   4.348   4.049 -0.0078 -0.2613  0.0993
14502TIP3    H164997   0.735   4.414   4.027 -0.5964 -0.5089  1.0677
14502TIP3    H264998   0.750   4.276   4.088  0.9944  0.2343  2.3918
14503TIP3   OH264999   0.868   3.786   2.000  0.5430 -0.3767  0.1434
14503TIP3    H165000   0.917   3.805   2.079 -0.6703  0.3853  0.7323
14503TIP3    H265001   0.794   3.847   2.002 -0.7108 -1.8463 -0.4544
14504TIP3   OH265002   3.111   3.526   4.429  0.7025  0.1705  0.3920
14504TIP3    H165003   3.090   3.530   4.336 -0.3706  0.2480  0.6299
14504TIP3    H265004   3.110   3.433   4.450  2.2596  0.0655  0.0403
14505TIP3   OH265005   1.843   1.530   2.716  0.1602  0.0735 -0.2971
14505TIP3    H165006   1.799   1.466   2.772  1.3034 -0.5436 -0.0933
14505TIP3    H265007   1.909   1.479   2.669 -0.8345  0.5720 -2.2760
14506TIP3   OH265008   0.286   2.537   2.509  0.0799  0.0989 -0.1555
14506TIP3    H165009   0.234   2.612   2.536  0.7528  0.6281 -0.3281
14506TIP3    H265010   0.239   2.461   2.544  0.0697  0.6726  1.0789
14507TIP3   OH265011   6.617   1.975   4.285  0.1191  0.0723  0.4323
14507TIP3    H165012   6.530   1.957   4.250  0.1616 -0.6267  0.6704
14507TIP3    H265013   6.673   1.908   4.245  0.2761 -0.3677  1.3794
14508TIP3   OH265014   1.842   2.511   3.395 -0.6959 -0.2247 -0.2351
14508TIP3    H165015   1.926   2.549   3.367 -0.5688  0.0082  0.4613
14508TIP3    H265016   1.798   2.490   3.313 -0.9400  1.8297 -0.6553
14509TIP3   OH265017   6.422   0.696   3.599 -0.1402 -0.0895  0.4796
14509TIP3    H165018   6.387   0.782   3.624  0.6805  0.2915  0.3258
14509TIP3    H265019   6.511   0.695   3.635  0.3875 -0.2824 -0.8014
14510TIP3   OH265020   0.557   1.595   3.932  0.3627 -0.5403  0.1729
14510TIP3    H165021   0.477   1.542   3.935 -0.0827  0.0587 -1.0461
14510TIP3    H265022   0.527   1.683   3.910  1.2522 -0.0853  0.7643
14511TIP3   OH265023   3.396   4.014   5.199 -0.0523  0.2982  0.3129
14511TIP3    H165024   3.430   3.950   5.262  1.5876 -0.5124 -1.3468
14511TIP3    H265025   3.315   3.974   5.166  0.4629 -0.4861 -0.0153
14512TIP3   OH265026   2.270   1.737   2.684 -0.4146 -0.7156 -0.2518
14512TIP3    H165027   2.334   1.670   2.658 -0.9150 -1.1280 -0.4278
14512TIP3    H265028   2.291   1.813   2.629  0.3998 -0.6003  0.2183
14513TIP3   OH265029   1.653   0.465   2.944  0.0350  0.4322 -0.1596
14513TIP3    H165030   1.665   0.422   2.860 -0.6972 -0.0096 -0.0376
14513TIP3    H265031   1.692   0.404   3.007 -0.1217  0.3968 -0.0962
14514TIP3   OH265032   2.085   1.026   2.325  0.5174 -0.2065 -0.0951
14514TIP3    H165033   2.025   1.080   2.274  1.5724  1.1243  0.0392
14514TIP3    H265034   2.055   1.036   2.415  0.3045 -0.3903 -0.1444
14515TIP3   OH265035   3.015   4.440   3.374 -0.4546 -0.1403 -0.0300
14515TIP3    H165036   3.053   4.386   3.305  0.4947  2.0776 -1.3079
14515TIP3    H265037   3.090   4.478   3.419 -1.0804 -1.1447  1.9203
14516TIP3   OH265038   3.788   5.155   2.680 -0.2794  0.1889 -0.3857
14516TIP3    H165039   3.823   5.087   2.622 -0.6328 -0.1076 -0.2590
14516TIP3    H265040   3.797   5.117   2.768 -2.3731 -0.5690 -0.4659
14517TIP3   OH265041   0.400   7.182   1.177  0.0251 -0.1485  0.4615
14517TIP3    H165042   0.332   7.170   1.111 -0.1235 -2.5560  0.9779
14517TIP3    H265043   0.357   7.229   1.248 -0.6505 -0.1976  0.0837
14518TIP3   OH265044   1.044   0.995   3.228 -0.2878 -0.3611 -0.2507
14518TIP3    H165045   1.066   0.903   3.210 -1.5780 -0.4273 -1.5350
14518TIP3    H265046   1.127   1.035   3.252  0.5398 -1.5198 -1.1442
14519TIP3   OH265047   1.337   3.256   1.609 -0.0988 -0.3333  0.2300
14519TIP3    H165048   1.421   3.255   1.564 -0.3566  0.4252 -0.2942
14519TIP3    H265049   1.318   3.349   1.622 -2.0301 -0.3868 -1.8987
14520TIP3   OH265050   0.281   4.108   3.859  0.4688  0.3135 -0.3208
14520TIP3    H165051   0.309   4.048   3.789  1.8328  1.1707 -0.5340
14520TIP3    H265052   0.204   4.152   3.823  0.7387  0.2340 -1.0040
14521TIP3   OH265053   2.594   3.561   3.727  0.0227  0.6620 -0.3956
14521TIP3    H165054   2.530   3.604   3.670  1.2703  0.5528 -1.9001
14521TIP3    H265055   2.611   3.477   3.686  0.0086  0.0489  0.8241
14522TIP3   OH265056   1.235   2.379   1.570  0.0819  0.2154  0.1134
14522TIP3    H165057   1.300   2.441   1.602  3.1859 -2.1044 -1.4552
14522TIP3    H265058   1.188   2.351   1.649  1.9166  0.8586  1.4757
14523TIP3   OH265059   1.205   2.468   3.736  0.4679 -0.2069  0.4869
14523TIP3    H165060   1.227   2.539   3.796  1.3778  0.1331 -0.2280
14523TIP3    H265061   1.246   2.390   3.775  0.9724 -0.0066  0.3658
14524TIP3   OH265062   2.448   2.704   2.182  0.1094 -0.1402 -0.1916
14524TIP3    H165063   2.392   2.629   2.164 -0.4750  0.7201 -2.0487
14524TIP3    H265064   2.397   2.780   2.154  1.8684  0.7126 -1.2238
14525TIP3   OH265065   6.943   1.416   2.824  0.1102  0.2917 -0.0104
14525TIP3    H165066   6.911   1.357   2.757 -0.2803  0.6454 -0.1374
14525TIP3    H265067   7.029   1.444   2.793 -0.6579  1.5410 -1.0401
14526TIP3   OH265068   7.161   4.307   3.458  0.9153  0.1121 -0.0108
14526TIP3    H165069   7.149   4.386   3.510  2.0325  0.3720 -0.1409
14526TIP3    H265070   7.072   4.280   3.436  0.4627  0.3866  1.4314
14527TIP3   OH265071   7.009   1.386   4.583 -0.1051 -0.1964 -0.1038
14527TIP3    H165072   6.967   1.348   4.506 -0.3337 -0.7773  0.3000
14527TIP3    H265073   6.983   1.478   4.582 -1.0462 -0.4543 -0.1006
14528TIP3   OH265074   0.950   3.273   1.898  0.5157 -0.0572 -0.2457
14528TIP3    H165075   0.869   3.308   1.863 -0.3731 -1.0513  0.7692
14528TIP3    H265076   0.970   3.197   1.842  0.8774  0.3271 -0.6408
14529TIP3   OH265077   5.100   3.405   2.626 -0.2660 -0.1300 -0.0476
14529TIP3    H165078   5.135   3.377   2.541  0.4327  1.2919 -0.2588
14529TIP3    H265079   5.013   3.438   2.606  0.0886  0.6648 -0.3050
14530TIP3   OH265080   0.788   2.807   1.793 -0.1256 -0.8173 -0.1745
14530TIP3    H165081   0.865   2.750   1.797 -0.5058 -1.3487 -0.3280
14530TIP3    H265082   0.771   2.831   1.884 -0.1963 -1.2757 -0.0628
14531TIP3   OH265083   1.494   7.189   2.947 -0.0643  0.6401  0.1108
14531TIP3    H165084   1.437   7.183   3.023  1.2762  2.2116  1.2793
14531TIP3    H265085   1.572   7.139   2.971 -0.2558 -0.1155 -0.8234
14532TIP3   OH265086   2.591   2.947   2.010 -0.0646  0.1050 -0.5686
14532TIP3    H165087   2.535   2.871   1.994  0.1484 -0.2800  0.4820
14532TIP3    H265088   2.540   3.021   1.978 -1.2612 -0.2240  0.5170
14533TIP3   OH265089   0.925   0.770   2.723 -0.3839 -0.4526 -0.7064
14533TIP3    H165090   0.910   0.847   2.778 -1.3740 -0.6271 -0.7266
14533TIP3    H265091   1.020   0.768   2.711 -0.2078 -0.0575  0.4828
14534TIP3   OH265092   6.066   0.665   1.322 -0.3053 -0.1031 -0.0636
14534TIP3    H165093   6.145   0.703   1.360 -0.8351  1.2577 -0.2686
14534TIP3    H265094   6.094   0.580   1.288  0.7856 -0.1572  0.9384
14535TIP3   OH265095   7.340   4.231   3.263  0.0360 -0.3265  0.0721
14535TIP3    H165096   7.321   4.302   3.201 -0.4602 -1.2734 -0.8758
14535TIP3    H265097   7.294   4.257   3.343 -0.2014  0.3892 -0.2884
14536TIP3   OH265098   1.294   3.007   3.038 -0.1917  0.8532 -0.3260
14536TIP3    H165099   1.224   3.017   3.103  0.4141 -0.4911  0.5616
14536TIP3    H265100   1.273   2.924   2.993  0.9436  0.3318  0.0977
14537TIP3   OH265101   0.007   2.885   2.344 -1.2164 -0.2283  0.8611
14537TIP3    H165102   0.085   2.892   2.290 -0.4132 -0.4979  1.9687
14537TIP3    H265103  -0.059   2.937   2.298 -0.5114 -0.3316 -0.2888
14538TIP3   OH265104   0.876   2.230   1.876  0.1051 -0.2694 -0.2552
14538TIP3    H165105   0.848   2.169   1.945 -0.9973  1.5209  0.9220
14538TIP3    H265106   0.838   2.194   1.796 -0.1123 -1.4091  0.3444
14539TIP3   OH265107   1.313   1.122   4.084 -0.1801  0.0339 -0.2550
14539TIP3    H165108   1.355   1.202   4.114  1.3261 -0.2514 -1.5306
14539TIP3    H265109   1.299   1.071   4.164  0.3351  0.8714  0.3761
14540TIP3   OH265110   0.084   0.249   1.876 -0.2502  0.3391 -0.3738
14540TIP3    H165111   0.042   0.241   1.790  1.8769  1.8855 -1.6201
14540TIP3    H265112   0.020   0.296   1.930 -2.1296 -1.7861 -0.7039
14541TIP3   OH265113   6.910   3.836   3.418  0.2492 -0.6651 -0.0609
14541TIP3    H165114   6.875   3.875   3.338  0.0803 -1.0284 -0.1636
14541TIP3    H265115   6.833   3.819   3.472  0.5004  1.5237  1.0724
14542TIP3   OH265116   0.005   2.372   3.662 -0.2312  0.1898  0.1232
14542TIP3    H165117   0.048   2.286   3.658 -0.6665  0.0154 -0.8442
14542TIP3    H265118  -0.085   2.355   3.633 -1.1747  0.4271  2.7433
14543TIP3   OH265119   2.374   3.129   3.045 -0.2554 -0.5093 -0.6309
14543TIP3    H165120   2.401   3.089   3.128  1.3255  0.9074 -0.4342
14543TIP3    H265121   2.322   3.061   3.002  0.6112 -2.0105  0.6108
14544TIP3   OH265122   0.009   2.069   4.875  0.3798 -0.2525  0.6213
14544TIP3    H165123  -0.037   2.149   4.902 -1.1509 -0.5820 -0.8776
14544TIP3    H265124  -0.023   2.053   4.786  1.2120 -2.1367  0.6508
14545TIP3   OH265125   0.224   3.049  15.554  0.2496  0.5512 -0.7801
14545TIP3    H165126   0.307   3.074  15.595 -0.7844  2.1891  0.4169
14545TIP3    H265127   0.245   3.036  15.462  2.0185 -0.0303 -0.3078
14546TIP3   OH265128   7.156   3.025   3.049  0.2814 -0.4623 -0.0872
14546TIP3    H165129   7.098   3.049   2.977  0.6055  0.5708 -0.0164
14546TIP3    H265130   7.149   2.930   3.055 -0.0890 -0.5100 -1.1855
14547TIP3   OH265131   7.294   3.479   1.322  0.0412  0.4846 -0.7158
14547TIP3    H165132   7.347   3.533   1.381 -2.2877  1.0059  0.9643
14547TIP3    H265133   7.265   3.405   1.376  1.1289 -1.1468 -2.3193
14548TIP3   OH265134   0.092   1.459   1.988 -0.2904  0.2357  0.0408
14548TIP3    H165135   0.179   1.496   1.969  0.3262 -0.8982  0.5985
14548TIP3    H265136   0.058   1.434   1.903  1.2745 -2.2279  0.0895
14549TIP3   OH265137   1.879   2.969   4.800  0.4108 -0.3024 -0.0420
14549TIP3    H165138   1.786   2.953   4.816  0.0653  0.3905 -1.3083
14549TIP3    H265139   1.907   3.023   4.873 -0.0495 -0.9619  0.6284
14550TIP3   OH265140   0.967   2.985  15.701 -0.3150  0.0617 -0.1497
14550TIP3    H165141   1.016   3.009  15.622 -1.8437 -0.7695 -1.3737
14550TIP3    H265142   0.904   3.056  15.712  0.0532  0.2939  0.4664
14551TIP3   OH265143   0.363   4.546   4.824  0.0444 -0.4311  0.4987
14551TIP3    H165144   0.316   4.464   4.806 -1.6999  0.5145  0.5657
14551TIP3    H265145   0.418   4.526   4.900  0.4659 -1.8402 -0.1643
14552TIP3   OH265146   6.988   3.112   2.196 -0.1409 -0.4858 -0.5349
14552TIP3    H165147   7.036   3.031   2.179 -0.3474 -0.4823 -1.1537
14552TIP3    H265148   7.024   3.175   2.133  0.7229  0.1986  0.5955
14553TIP3   OH265149   7.018   1.538   3.373 -0.2182 -0.0122  0.0393
14553TIP3    H165150   7.078   1.593   3.422 -1.8442  0.3349  1.6845
14553TIP3    H265151   6.933   1.582   3.381 -0.7939 -0.7134 -1.8865
14554TIP3   OH265152   0.745   1.400   5.045  0.5588  0.5978  0.6772
14554TIP3    H165153   0.794   1.317   5.040 -1.3166 -0.5962  1.5570
14554TIP3    H265154   0.763   1.433   5.133 -0.4363 -0.0025  1.1159
14555TIP3   OH265155   7.079   2.687   4.134 -0.2533  0.3247 -0.0111
14555TIP3    H165156   7.022   2.729   4.198 -1.6479 -0.7526 -0.5177
14555TIP3    H265157   7.057   2.728   4.051 -0.2900 -0.0751 -0.2036
14556TIP3   OH265158   0.091   2.863   2.809 -0.1718 -0.0660  0.5660
14556TIP3    H165159   0.112   2.822   2.893  4.2999  0.0992 -0.3644
14556TIP3    H265160   0.123   2.802   2.743  0.7782  1.9655 -0.9165
14557TIP3   OH265161   0.373   2.966   1.589 -0.3787 -0.4855  0.0869
14557TIP3    H165162   0.388   2.871   1.593 -0.1729 -0.4702 -0.2805
14557TIP3    H265163   0.438   2.998   1.526 -0.0780 -0.0243  0.6228
14558TIP3   OH265164   6.474   2.161   2.613 -0.2881 -0.3494 -0.1140
14558TIP3    H165165   6.471   2.139   2.520 -0.6749 -2.7119  0.4192
14558TIP3    H265166   6.475   2.256   2.616  0.9930 -0.2591 -2.5819
14559TIP3   OH265167   7.051   2.453   3.260  0.5759 -0.0406  0.6041
14559TIP3    H165168   7.101   2.419   3.186  0.9898 -0.3039  0.9995
14559TIP3    H265169   7.109   2.519   3.300  0.1091  0.5426  0.3335
14560TIP3   OH265170   1.399   3.390   2.215 -0.4261 -0.3210  0.0614
14560TIP3    H165171   1.437   3.458   2.270 -2.3453 -0.4359  1.5824
14560TIP3    H265172   1.470   3.364   2.156  1.4252  0.4178  1.9040
14561TIP3   OH265173   0.713   0.486   0.489 -0.3841  0.3179 -0.3423
14561TIP3    H165174   0.766   0.420   0.534  1.0365  2.7089  1.6018
14561TIP3    H265175   0.646   0.510   0.553  1.0736  3.0650  0.2168
14562TIP3   OH265176   6.888   2.378   5.003  0.3920 -0.1410  0.9697
14562TIP3    H165177   6.867   2.306   5.063  1.4273  0.6199  2.2489
14562TIP3    H265178   6.814   2.380   4.942 -0.1805 -1.5752  1.5856
14563TIP3   OH265179   2.611   4.003   2.165  0.1386 -0.1238  0.1618
14563TIP3    H165180   2.530   3.969   2.201  0.4779  0.4725  1.5103
14563TIP3    H265181   2.666   3.926   2.152 -0.1619 -0.3868  0.4593
14564TIP3   OH265182   0.007   3.769   1.938  0.4918 -0.2583 -0.2087
14564TIP3    H165183   0.028   3.746   1.848 -0.6270 -2.4151  0.0376
14564TIP3    H265184   0.076   3.829   1.965  1.0020  0.1753 -2.3919
14565TIP3   OH265185   2.524   2.507   5.324  0.2585 -0.4829 -0.7478
14565TIP3    H165186   2.582   2.506   5.248  0.3020 -1.4223 -0.6994
14565TIP3    H265187   2.521   2.416   5.354  0.5323 -0.0554  0.6030
14566TIP3   OH265188   1.956   1.891   3.663  0.6475  0.0740  0.1155
14566TIP3    H165189   1.894   1.943   3.613  2.7214  2.3120 -0.2358
14566TIP3    H265190   2.012   1.850   3.597  1.5384  0.6670  0.4879
14567TIP3   OH265191   2.025   1.010   4.950  0.0845  0.4075 -0.4431
14567TIP3    H165192   1.976   0.975   5.025 -1.0654  1.6237 -0.6011
14567TIP3    H265193   2.078   1.081   4.986  0.7219 -0.0298 -0.5127
14568TIP3   OH265194   6.548   4.684   1.356 -0.3670 -0.2084  0.0746
14568TIP3    H165195   6.559   4.599   1.314 -0.9869 -0.3637  0.2208
14568TIP3    H265196   6.559   4.666   1.450  2.3795  0.3681 -0.1019
14569TIP3   OH265197   2.021   1.980   2.992  0.1904 -0.0417  0.5579
14569TIP3    H165198   2.109   1.975   2.955 -0.1284 -0.3647 -0.1532
14569TIP3    H265199   2.033   1.959   3.084  0.7078 -1.1031  0.2491
14570TIP3   OH265200   1.373   2.765   5.729  0.4919  0.5402 -0.4992
14570TIP3    H165201   1.390   2.858   5.715  1.0366  0.4937 -0.1628
14570TIP3    H265202   1.442   2.737   5.790 -0.1157  0.0853 -0.0218
14571TIP3   OH265203   3.296   1.958   2.740  0.2531  0.1912  0.4281
14571TIP3    H165204   3.332   1.870   2.722 -0.3323  0.1508 -0.6315
14571TIP3    H265205   3.259   1.985   2.656  0.0071  1.2589  0.8814
14572TIP3   OH265206   7.072   2.562   4.705  0.2627 -0.5537 -0.6229
14572TIP3    H165207   7.006   2.560   4.635  1.5521 -0.8266 -1.8586
14572TIP3    H265208   7.139   2.500   4.677  2.0083  1.1434 -0.3725
14573TIP3   OH265209   5.625   3.969   2.344  0.3561 -0.0520 -0.7102
14573TIP3    H165210   5.716   3.955   2.369  0.1210 -1.4336 -0.5863
14573TIP3    H265211   5.615   4.064   2.342  2.0184  0.1353 -1.5364
14574TIP3   OH265212   0.810   1.225   3.467 -0.4537 -0.1112 -0.2939
14574TIP3    H165213   0.751   1.208   3.541  0.5870  0.1357  0.6011
14574TIP3    H265214   0.879   1.159   3.476 -1.5745 -1.6256 -2.4274
14575TIP3   OH265215   0.214   3.943   2.085  0.5060 -0.1131  0.2014
14575TIP3    H165216   0.126   3.981   2.079  0.7359  0.3807 -0.0154
14575TIP3    H265217   0.273   4.018   2.085  0.8775 -0.4040  1.3891
14576TIP3   OH265218   1.459   3.792   2.614  0.8336 -0.3829 -0.1331
14576TIP3    H165219   1.445   3.871   2.562 -1.2644 -0.3159  0.4742
14576TIP3    H265220   1.441   3.720   2.553  2.8433 -0.4060 -0.7133
14577TIP3   OH265221   0.548   2.635   1.150  0.1348 -0.1399  0.4188
14577TIP3    H165222   0.629   2.634   1.202  0.9324  1.8231 -0.7442
14577TIP3    H265223   0.566   2.577   1.077 -0.4025 -1.6168  1.4356
14578TIP3   OH265224   0.726   2.381   5.296  0.1460  0.0242  0.3607
14578TIP3    H165225   0.675   2.349   5.222  1.8261 -1.0403 -0.3569
14578TIP3    H265226   0.672   2.361   5.373 -1.0347 -0.0227 -0.4687
14579TIP3   OH265227   2.240   4.900   5.176  0.0068 -0.0546  0.0128
14579TIP3    H165228   2.150   4.887   5.148 -0.0770 -1.3174  0.8401
14579TIP3    H265229   2.257   4.993   5.160 -1.1214 -0.0161 -1.0308
14580TIP3   OH265230   2.076   2.447   4.698  0.1676 -0.1476 -0.2842
14580TIP3    H165231   2.015   2.520   4.689  1.1306  0.5608 -1.2469
14580TIP3    H265232   2.021   2.369   4.696 -0.7205  0.4928 -1.0742
14581TIP3   OH265233   2.063   3.500   3.420 -0.2321  0.2985 -0.7789
14581TIP3    H165234   2.022   3.498   3.507  1.0604 -1.1732 -0.1790
14581TIP3    H265235   1.998   3.463   3.361 -0.5990  0.0327 -0.2047
14582TIP3   OH265236   7.254   1.176   1.562 -0.1694 -0.8008 -0.2770
14582TIP3    H165237   7.306   1.129   1.627  1.8043  1.2253 -0.3378
14582TIP3    H265238   7.206   1.108   1.515 -0.8681 -2.3793  2.6178
14583TIP3   OH265239   2.967   2.746   1.777 -0.5828  0.8582 -0.0133
14583TIP3    H165240   2.929   2.806   1.842 -1.4067  0.5554 -0.2086
14583TIP3    H265241   2.925   2.662   1.795 -0.1482  0.5645 -0.3701
14584TIP3   OH265242   1.990   2.375   1.140 -0.0910  0.4423  0.3009
14584TIP3    H165243   1.900   2.406   1.147 -0.4979 -1.1673  2.8691
14584TIP3    H265244   2.044   2.453   1.155 -1.0645  1.0572  0.6573
14585TIP3   OH265245   1.212   2.674   2.585  0.5887 -0.1819  0.4497
14585TIP3    H165246   1.305   2.661   2.602  0.4576 -0.0255  1.3471
14585TIP3    H265247   1.173   2.683   2.672 -0.2273  0.0026  0.0734
14586TIP3   OH265248   2.547   2.371   2.176  0.0190  0.4452  1.0804
14586TIP3    H165249   2.582   2.332   2.256 -0.6998 -0.6647  0.8726
14586TIP3    H265250   2.461   2.330   2.166  0.2340  0.3399 -0.4239
14587TIP3   OH265251   0.488   1.923   2.167  0.4612  0.3653  0.6581
14587TIP3    H165252   0.400   1.891   2.184  0.6908 -0.2959  0.6295
14587TIP3    H265253   0.538   1.900   2.246  0.7227  0.3086  0.4786
14588TIP3   OH265254   0.577   6.857   2.820  0.1079 -0.0129 -0.0937
14588TIP3    H165255   0.580   6.915   2.744 -0.2953 -1.1628 -1.0029
14588TIP3    H265256   0.615   6.775   2.789 -0.6745 -0.7047  0.7532
14589TIP3   OH265257   0.406   0.780   2.036  0.6323  0.3662  0.6573
14589TIP3    H165258   0.351   0.707   2.009  1.8683 -1.0748  1.8944
14589TIP3    H265259   0.366   0.811   2.117  0.8343  0.1977  0.8251
14590TIP3   OH265260   1.684   2.781   0.818  0.4562 -0.0756 -0.2085
14590TIP3    H165261   1.676   2.724   0.894  1.9450  1.1898  0.9256
14590TIP3    H265262   1.660   2.868   0.850  0.2889  0.3360 -1.3994
14591TIP3   OH265263   0.466   1.755   4.721 -1.0994 -0.0548  0.0164
14591TIP3    H165264   0.395   1.771   4.660 -0.0263 -0.3483 -1.3429
14591TIP3    H265265   0.537   1.812   4.690  0.6638 -2.8176 -1.1723
14592TIP3   OH265266   3.069   1.598   1.050 -0.1460 -0.0307 -0.0740
14592TIP3    H165267   2.975   1.598   1.035 -0.4320  1.8416  1.6106
14592TIP3    H265268   3.099   1.683   1.019  0.7044  0.0745  0.9785
14593TIP3   OH265269   2.763   2.868   3.052 -0.1054 -0.0737  0.0741
14593TIP3    H165270   2.820   2.935   3.088  0.6305 -0.4941 -0.3003
14593TIP3    H265271   2.754   2.803   3.121 -1.4336  0.7778  0.7123
14594TIP3   OH265272   1.099   1.418   4.088  0.6376 -0.3189 -0.1449
14594TIP3    H165273   1.156   1.351   4.127  0.5969 -0.3826 -0.1932
14594TIP3    H265274   1.014   1.404   4.129  0.0672 -1.7218 -1.7418
14595TIP3   OH265275   3.824   2.694   5.348  0.0172 -0.3166  0.1990
14595TIP3    H165276   3.746   2.683   5.401 -0.6929  2.4579 -0.2005
14595TIP3    H265277   3.794   2.738   5.269  1.6743 -0.9420 -0.8176
14596TIP3   OH265278   1.822   2.445   4.024 -0.6236 -0.1912  0.6424
14596TIP3    H165279   1.833   2.526   4.074 -0.1139  1.3536 -1.8679
14596TIP3    H265280   1.773   2.472   3.946 -0.5922 -2.3525 -0.1512
14597TIP3   OH265281   3.545   1.848   3.969  0.0674 -0.3041 -0.0215
14597TIP3    H165282   3.621   1.809   4.012 -0.2409 -0.0278  0.8081
14597TIP3    H265283   3.471   1.819   4.022 -0.2339  0.8375  0.2072
14598TIP3   OH265284   2.398   3.653   2.955 -0.2131 -0.6624 -0.0189
14598TIP3    H165285   2.427   3.620   2.870 -2.8775  1.4903 -1.8644
14598TIP3    H265286   2.416   3.747   2.951  0.7730 -0.7049  2.3443
14599TIP3   OH265287   0.429   3.252   3.244  0.0160 -0.1414  0.0514
14599TIP3    H165288   0.421   3.346   3.260  0.9280  0.3667 -2.2554
14599TIP3    H265289   0.343   3.225   3.211 -0.1861 -0.0937  0.5320
14600TIP3   OH265290   6.383   3.471   1.059 -0.3401  0.0055  0.5090
14600TIP3    H165291   6.414   3.422   0.982 -1.3359  1.2625 -0.7194
14600TIP3    H265292   6.288   3.459   1.058 -0.5071  1.2478  0.6817
14601TIP3   OH265293   1.605   2.667   2.581  0.4106 -0.2716 -0.3137
14601TIP3    H165294   1.607   2.691   2.488  0.0808 -0.8933 -0.4806
14601TIP3    H265295   1.618   2.750   2.626 -0.9458  0.2720 -0.8940
14602TIP3   OH265296   0.779   6.718   0.769 -0.6073  0.0759  0.1085
14602TIP3    H165297   0.767   6.763   0.852  0.3355 -1.5712  1.1556
14602TIP3    H265298   0.729   6.637   0.778 -0.7362  0.0119 -1.0535
14603TIP3   OH265299   1.819   0.688   1.193  0.5426 -0.4266 -0.0228
14603TIP3    H165300   1.731   0.716   1.218  0.6168 -0.5101  0.3355
14603TIP3    H265301   1.815   0.593   1.191  1.3699 -0.5663  2.8356
14604TIP3   OH265302   1.549   2.593   3.365 -0.2127  0.5909  0.2819
14604TIP3    H165303   1.461   2.609   3.331  0.3887 -0.7413 -1.9939
14604TIP3    H265304   1.606   2.641   3.306  0.7671 -0.8104  0.0653
14605TIP3   OH265305   6.940   2.143  15.780  0.0027 -0.0969 -0.2374
14605TIP3    H165306   6.920   2.080  15.849 -1.4147  0.5674 -0.0250
14605TIP3    H265307   6.960   2.224  15.827  0.8428 -0.1172 -0.5472
14606TIP3   OH265308   0.263   1.382   2.994  0.9185 -0.4117  0.1189
14606TIP3    H165309   0.277   1.405   2.902  1.7748 -0.5489  0.2091
14606TIP3    H265310   0.175   1.414   3.014  1.3651  1.0928 -0.2938
14607TIP3   OH265311   2.282   2.802   3.731 -0.1001  0.1352  0.5191
14607TIP3    H165312   2.236   2.724   3.700 -1.8207  1.2781  0.1411
14607TIP3    H265313   2.290   2.857   3.653  2.2810 -0.2116  0.4989
14608TIP3   OH265314   5.933   3.064   3.482  0.5043  0.1625 -0.7747
14608TIP3    H165315   5.890   3.134   3.529  0.1892 -0.0657 -0.7230
14608TIP3    H265316   5.894   3.065   3.395  0.7709  0.2976 -0.8946
14609TIP3   OH265317   0.526   3.075   2.501 -0.4496  0.1347 -0.4676
14609TIP3    H165318   0.619   3.097   2.505 -0.3838  0.0740 -1.5168
14609TIP3    H265319   0.483   3.157   2.474 -0.8435  0.4850  1.1469
14610TIP3   OH265320   7.218   2.322   3.074  0.2159 -0.4400 -0.0607
14610TIP3    H165321   7.274   2.263   3.125  1.5281  1.4226  0.6803
14610TIP3    H265322   7.273   2.353   3.003  0.2264  1.5661  0.7894
14611TIP3   OH265323   0.393   5.451   3.756  0.1982 -0.2221 -0.0264
14611TIP3    H165324   0.349   5.472   3.838  1.3743  1.9482  0.0848
14611TIP3    H265325   0.356   5.512   3.693 -1.4640 -2.5631 -1.4086
14612TIP3   OH265326   4.534   3.428   4.348 -0.5846  0.1143  0.5600
14612TIP3    H165327   4.458   3.384   4.310 -2.2199  3.3871 -0.1393
14612TIP3    H265328   4.529   3.409   4.441 -3.7929  2.3089  0.9297
14613TIP3   OH265329   3.454   1.575   4.752 -1.0211 -0.2327  0.0012
14613TIP3    H165330   3.549   1.566   4.748 -0.9785  0.3160 -0.2120
14613TIP3    H265331   3.435   1.592   4.845 -1.0145 -1.4925  0.2366
14614TIP3   OH265332   4.794   4.845   2.175 -0.2683  0.8524 -0.1747
14614TIP3    H165333   4.763   4.931   2.144  0.8476  0.0874 -3.7163
14614TIP3    H265334   4.733   4.782   2.136  1.0915 -0.1596 -0.7237
14615TIP3   OH265335   2.498   2.558   3.585 -0.4855  0.1227  0.8721
14615TIP3    H165336   2.466   2.470   3.605  0.2343 -0.3439  0.0378
14615TIP3    H265337   2.566   2.544   3.519 -1.0974  1.3989 -0.0564
14616TIP3   OH265338   1.453   2.972   2.157 -0.2472  0.5033  0.1790
14616TIP3    H165339   1.398   3.008   2.226  1.1859  2.6513  0.2308
14616TIP3    H265340   1.538   2.957   2.198 -0.0553 -0.4464 -0.5290
14617TIP3   OH265341   5.550   5.859   3.251  0.0817 -0.6245  0.6033
14617TIP3    H165342   5.594   5.805   3.185  1.4914 -0.9823  1.8126
14617TIP3    H265343   5.621   5.905   3.296 -1.0109  1.2033  0.4990
14618TIP3   OH265344   1.894   2.865   2.034  0.7204 -0.2144  0.6984
14618TIP3    H165345   1.818   2.847   1.979  0.7286 -1.3684  1.0463
14618TIP3    H265346   1.877   2.817   2.115  1.1127  0.7651  1.3735
14619TIP3   OH265347   2.301   2.228   2.159 -0.2456 -0.4505  0.1750
14619TIP3    H165348   2.248   2.297   2.199  0.0659 -0.3686  0.4402
14619TIP3    H265349   2.281   2.149   2.210 -0.0089 -0.3912  0.3589
14620TIP3   OH265350   1.467   2.410   1.117 -0.3368  0.8060 -0.5398
14620TIP3    H165351   1.372   2.421   1.120 -0.3932  0.6202 -1.4300
14620TIP3    H265352   1.483   2.324   1.157 -0.5458  0.8014 -0.4677
14621TIP3   OH265353   2.107   6.704   3.249  0.1174  0.2374  0.3893
14621TIP3    H165354   2.030   6.653   3.225  0.2345 -0.2557  1.0792
14621TIP3    H265355   2.128   6.753   3.169  0.1442 -0.9552 -0.3384
14622TIP3   OH265356   5.047   0.318   2.862  0.1990  0.1263 -0.4448
14622TIP3    H165357   4.966   0.352   2.822 -0.3324 -1.5438 -0.8017
14622TIP3    H265358   5.025   0.304   2.954 -0.7290 -2.7848 -1.0660
14623TIP3   OH265359   5.568   3.000   1.650  0.0388 -0.4507 -0.1831
14623TIP3    H165360   5.523   3.074   1.609 -0.2095  1.0317  2.6148
14623TIP3    H265361   5.510   2.925   1.635 -2.4924  1.0572  1.6720
14624TIP3   OH265362   0.543   0.588   4.208  0.3903  0.3420 -0.8232
14624TIP3    H165363   0.530   0.672   4.162  0.6454  0.8989  0.1052
14624TIP3    H265364   0.545   0.612   4.301  0.7219 -0.6706 -0.5655
14625TIP3   OH265365   3.075   0.540   4.083 -0.1537  0.1647  0.6936
14625TIP3    H165366   3.112   0.510   4.166  0.9103 -0.8195 -0.1130
14625TIP3    H265367   3.117   0.485   4.017 -1.0083  0.9142 -0.4974
14626TIP3   OH265368   2.303   1.118   1.783  0.0189  0.6948  0.4316
14626TIP3    H165369   2.378   1.144   1.729 -0.0054  0.5386  0.3232
14626TIP3    H265370   2.339   1.054   1.845 -0.1635  0.1104 -0.0584
14627TIP3   OH265371   0.075   2.311   3.349 -0.1641 -0.7586 -0.0647
14627TIP3    H165372   0.138   2.279   3.413  0.9984 -0.2861 -0.9688
14627TIP3    H265373   0.039   2.390   3.389  0.1028 -0.8079  0.2728
14628TIP3   OH265374   6.555   6.985   1.578  0.6246  0.2556 -0.1593
14628TIP3    H165375   6.557   6.900   1.534  2.3335  1.2465 -2.0780
14628TIP3    H265376   6.646   7.011   1.585  0.0222  2.9641 -1.6965
14629TIP3   OH265377   6.490   1.619   1.545  0.1522 -0.1377  0.1221
14629TIP3    H165378   6.412   1.582   1.586 -0.9362  2.7338  0.7574
14629TIP3    H265379   6.528   1.546   1.496 -2.9958 -1.5804 -0.3111
14630TIP3   OH265380   0.109   2.707  15.497 -0.1339  0.2717 -0.3963
14630TIP3    H165381   0.114   2.720  15.592  0.0557 -1.6133 -0.1196
14630TIP3    H265382   0.050   2.632  15.486  1.5747 -0.9491 -1.6135
14631TIP3   OH265383   7.306   4.594   2.676 -0.3411  0.0760 -0.2571
14631TIP3    H165384   7.218   4.607   2.709  0.0812 -1.5461  1.5929
14631TIP3    H265385   7.308   4.502   2.650  0.8329  0.0700 -0.1823
14632TIP3   OH265386   5.177   3.593   4.149  0.0961  0.4602 -0.1040
14632TIP3    H165387   5.216   3.588   4.061  1.4176  0.2567  0.4798
14632TIP3    H265388   5.205   3.678   4.182 -1.1230  0.9045 -0.2041
14633TIP3   OH265389   0.498   0.816   3.430 -0.2890 -0.6796  0.2917
14633TIP3    H165390   0.434   0.886   3.415 -3.0632 -3.0738  0.4957
14633TIP3    H265391   0.581   0.862   3.443 -1.5881  2.4493 -1.8342
14634TIP3   OH265392   6.463   4.066   3.023  0.0918 -0.3991 -0.5480
14634TIP3    H165393   6.557   4.063   3.043 -0.2114 -0.5047  0.9422
14634TIP3    H265394   6.456   4.130   2.952  1.4451 -1.4258 -1.6304
14635TIP3   OH265395   2.852   1.928   4.277 -0.1821 -0.2503 -0.0983
14635TIP3    H165396   2.775   1.871   4.269  0.1411 -0.7022 -0.0233
14635TIP3    H265397   2.817   2.016   4.274 -0.6771 -0.4537 -0.3701
14636TIP3   OH265398   2.031   2.841   3.891  0.3881 -0.2050 -0.2410
14636TIP3    H165399   2.102   2.805   3.839  0.8540  1.0681 -0.5066
14636TIP3    H265400   2.038   2.936   3.879 -1.3772 -0.0646 -0.3106
14637TIP3   OH265401   3.815   2.921   2.224 -0.0801 -0.2703  0.4058
14637TIP3    H165402   3.804   2.826   2.233  0.5223 -0.4860 -1.0543
14637TIP3    H265403   3.744   2.948   2.167  0.2360  0.0369  0.1568
14638TIP3   OH265404   0.833   3.828   2.769  0.1544 -0.4515  0.1056
14638TIP3    H165405   0.808   3.768   2.839 -0.9395  1.3315  1.2600
14638TIP3    H265406   0.805   3.914   2.799  2.3155  0.7676 -1.2253
14639TIP3   OH265407   3.595   4.044   2.908  0.0715 -0.6427 -0.2262
14639TIP3    H165408   3.609   3.951   2.892 -0.4146 -0.6670 -0.5245
14639TIP3    H265409   3.629   4.088   2.830 -0.0170 -0.5946 -0.2383
14640TIP3   OH265410   2.092   3.601   1.879 -0.5010 -0.1792 -0.0574
14640TIP3    H165411   2.002   3.571   1.880 -0.6174  0.1588 -0.0709
14640TIP3    H265412   2.116   3.602   1.786 -0.7817  0.5823 -0.1319
14641TIP3   OH265413   2.388   3.649   2.014 -0.2991  0.3303 -0.1257
14641TIP3    H165414   2.299   3.633   2.045 -0.0650 -1.4133 -0.2778
14641TIP3    H265415   2.386   3.623   1.922  0.6003 -0.6422  0.1218
14642TIP3   OH265416   2.181   0.843   2.782  0.0442 -0.0250 -0.0372
14642TIP3    H165417   2.104   0.788   2.794 -0.4050  0.2569 -1.6135
14642TIP3    H265418   2.212   0.824   2.694  1.5655  0.1356  0.4467
14643TIP3   OH265419   3.109   0.345   2.988  0.1808 -0.8656 -0.2803
14643TIP3    H165420   3.107   0.284   3.061 -2.1483 -0.0102  0.3924
14643TIP3    H265421   3.017   0.366   2.970  0.6895 -0.9650 -3.3757
14644TIP3   OH265422   2.457   4.699   2.759 -1.1253  0.2257  0.1449
14644TIP3    H165423   2.444   4.763   2.830  2.1097 -1.4085  2.3196
14644TIP3    H265424   2.541   4.722   2.720 -1.5394 -0.6331 -1.2932
14645TIP3   OH265425   2.061   2.815   2.847 -0.8496  0.0616 -0.7053
14645TIP3    H165426   2.002   2.883   2.880  0.6229  0.9155  0.2159
14645TIP3    H265427   2.146   2.838   2.883  0.1334 -0.9203 -2.3572
14646TIP3   OH265428   2.016   2.561   2.712  0.2229  0.3088 -0.3159
14646TIP3    H165429   2.103   2.572   2.673  0.0400  0.3531 -0.7155
14646TIP3    H265430   1.999   2.643   2.757  0.7121  0.0184  0.4139
14647TIP3   OH265431   2.968   4.863   3.241 -0.4164 -0.3218 -0.0791
14647TIP3    H165432   3.046   4.811   3.257 -0.3299  0.4748  2.1793
14647TIP3    H265433   3.000   4.942   3.197 -0.0698 -0.4126  0.0100
14648TIP3   OH265434   2.355   1.048   2.287 -0.8739 -0.5404 -0.3343
14648TIP3    H165435   2.260   1.057   2.292 -0.8368 -0.7080  1.1041
14648TIP3    H265436   2.379   1.007   2.371  0.7166  1.7410  0.3557
14649TIP3   OH265437   5.032   3.899   3.882 -0.1834 -0.5707 -0.4811
14649TIP3    H165438   5.004   3.854   3.962  0.1393  0.1540  0.0399
14649TIP3    H265439   5.090   3.969   3.912 -0.1505 -0.2164 -1.3419
14650TIP3   OH265440   2.265   1.956   2.862  0.0133  0.2352  0.3154
14650TIP3    H165441   2.358   1.950   2.839  0.0670 -0.5013  0.7345
14650TIP3    H265442   2.222   1.890   2.808 -0.3661  1.0235 -0.3640
14651TIP3   OH265443   1.314   3.471   2.576  0.1197  0.2979  0.2540
14651TIP3    H165444   1.273   3.468   2.662 -0.5605 -1.8840 -0.1012
14651TIP3    H265445   1.241   3.460   2.515  0.9339 -1.3247 -0.4701
14652TIP3   OH265446   2.788   2.372   1.146  0.2855 -0.5809 -0.2349
14652TIP3    H165447   2.714   2.335   1.194 -0.2084 -0.6062 -1.0163
14652TIP3    H265448   2.828   2.296   1.103 -0.1718 -0.3409 -1.0853
14653TIP3   OH265449   2.407   3.921   2.888 -0.7229 -0.0098 -0.3283
14653TIP3    H165450   2.406   3.935   2.793  0.1495 -0.8519 -0.4733
14653TIP3    H265451   2.484   3.969   2.918 -0.2783 -0.7651 -0.2293
14654TIP3   OH265452   2.739   2.562   0.948 -0.2525 -0.0453  0.2041
14654TIP3    H165453   2.729   2.493   1.014  0.2368  0.9282  1.3123
14654TIP3    H265454   2.676   2.539   0.879  0.0639 -1.7109  0.4565
14655TIP3   OH265455   2.387   2.274   4.868 -0.3307  0.4018 -0.2441
14655TIP3    H165456   2.405   2.289   4.960 -1.0702 -0.3903  0.0322
14655TIP3    H265457   2.468   2.298   4.823  0.5160 -0.5887  0.7412
14656TIP3   OH265458   3.225   1.709   3.430  0.1192  0.0209 -0.0492
14656TIP3    H165459   3.310   1.750   3.444 -0.0335  0.6915 -1.0274
14656TIP3    H265460   3.226   1.682   3.338 -0.0492 -1.5657  0.4128
14657TIP3   OH265461   1.861   0.987   3.184  0.1504 -0.1083 -0.0259
14657TIP3    H165462   1.943   0.940   3.170 -0.3176 -0.7877 -0.5442
14657TIP3    H265463   1.845   0.980   3.278 -0.2993 -1.6653 -0.2007
14658TIP3   OH265464   1.420   3.182   2.846  0.0535  0.3184 -0.2579
14658TIP3    H165465   1.373   3.121   2.903 -0.0627 -0.0212 -0.7111
14658TIP3    H265466   1.380   3.169   2.759 -1.2648  2.3532 -0.0066
14659TIP3   OH265467   3.435   0.021   2.346  0.3380 -0.2216  0.1829
14659TIP3    H165468   3.445   0.026   2.441  1.2515 -1.7612  0.1994
14659TIP3    H265469   3.405   0.107   2.319  2.3501  0.9662  1.6095
14660TIP3   OH265470   2.640   3.538   2.031  0.6668 -0.0675 -0.0181
14660TIP3    H165471   2.569   3.603   2.031 -0.0760 -0.8004  3.3934
14660TIP3    H265472   2.710   3.580   1.982 -1.6130  1.2235 -2.3299
14661TIP3   OH265473   4.488   1.662   1.067 -0.3041  0.1866  0.0933
14661TIP3    H165474   4.502   1.706   0.984  0.0440 -1.0888 -0.5435
14661TIP3    H265475   4.490   1.568   1.045  2.0241 -0.2189  1.8783
14662TIP3   OH265476   2.425   1.417   3.623  0.2264 -0.2301 -0.8331
14662TIP3    H165477   2.507   1.375   3.596  1.1475  0.1393  1.2913
14662TIP3    H265478   2.433   1.507   3.591  1.9993  0.6472  1.9200
14663TIP3   OH265479   0.756   4.894   1.688 -0.6796 -0.4918  0.2347
14663TIP3    H165480   0.821   4.844   1.640  1.0127  2.8874 -1.1849
14663TIP3    H265481   0.799   4.919   1.769 -0.0844  1.8147 -0.7375
14664TIP3   OH265482   1.905   3.007   2.928 -0.4859  0.2026  0.2432
14664TIP3    H165483   1.823   2.958   2.927 -0.8800  0.8552 -2.2279
14664TIP3    H265484   1.880   3.097   2.907  0.7248  0.6161  0.5444
14665TIP3   OH265485   4.569   4.251   2.882 -0.0300 -0.4197  0.0165
14665TIP3    H165486   4.661   4.274   2.872 -0.4060  0.9261 -0.4776
14665TIP3    H265487   4.542   4.295   2.962 -0.9372  1.4854 -1.3092
14666TIP3   OH265488   3.847   2.589   0.218 -0.9386  0.4754 -0.8090
14666TIP3    H165489   3.763   2.634   0.218 -1.6180 -0.7761 -0.0164
14666TIP3    H265490   3.829   2.503   0.180 -0.0684  0.1022 -0.3916
14667TIP3   OH265491   2.106   1.759   2.140  0.0456 -0.2066  0.2007
14667TIP3    H165492   2.195   1.739   2.109  0.2489  0.9554 -0.0060
14667TIP3    H265493   2.064   1.802   2.065 -0.6227 -0.5716  0.3663
14668TIP3   OH265494   1.986   1.887   1.316 -0.1756 -0.8586  0.2390
14668TIP3    H165495   1.949   1.842   1.392  0.3227 -0.1539  0.9093
14668TIP3    H265496   2.013   1.816   1.257 -1.0765 -1.3991  0.4722
14669TIP3   OH265497   4.513   4.321   5.038 -0.3381  0.3646 -0.3741
14669TIP3    H165498   4.528   4.364   4.954  0.7165  1.3616  0.3067
14669TIP3    H265499   4.462   4.384   5.089  1.0456  0.7635  0.5544
14670TIP3   OH265500   4.763   2.242   2.567 -0.0105 -0.1780  0.3272
14670TIP3    H165501   4.820   2.204   2.500  0.2531 -0.9237  0.9707
14670TIP3    H265502   4.817   2.243   2.646 -0.4615  0.3155  0.6278
14671TIP3   OH265503   2.867   1.607   2.839  0.3658  0.2408 -0.4625
14671TIP3    H165504   2.860   1.670   2.768  0.6471  1.3144  0.4564
14671TIP3    H265505   2.788   1.554   2.832 -0.4171  1.4150 -0.5458
14672TIP3   OH265506   1.379   3.164   3.368 -0.0685  0.2083 -0.3837
14672TIP3    H165507   1.446   3.144   3.433 -1.8400 -0.0782  1.4093
14672TIP3    H265508   1.378   3.259   3.362  0.2421  0.2263 -0.1514
14673TIP3   OH265509   3.746   3.186   2.364  0.0572 -0.0901  0.1329
14673TIP3    H165510   3.749   3.106   2.311 -2.2327 -0.6661  0.7952
14673TIP3    H265511   3.719   3.255   2.303 -2.5239 -0.7408  0.4712
14674TIP3   OH265512   2.863   3.449   3.450 -0.2126 -0.0398  0.6163
14674TIP3    H165513   2.776   3.412   3.433 -0.4164  0.1815  1.1578
14674TIP3    H265514   2.858   3.538   3.417 -0.2117 -0.0053  0.7100
14675TIP3   OH265515   7.300   3.458   0.255 -0.2754 -0.0986 -0.3882
14675TIP3    H165516   7.376   3.403   0.238 -1.1229 -0.8033 -2.0317
14675TIP3    H265517   7.254   3.415   0.327 -1.5592 -2.2336 -2.4222
14676TIP3   OH265518   4.656   2.651   2.897 -0.7115  0.0032 -0.0578
14676TIP3    H165519   4.575   2.694   2.869 -0.7402 -0.9192 -1.4245
14676TIP3    H265520   4.677   2.591   2.826  0.3784 -0.8412  0.9618
14677TIP3   OH265521   2.553   2.795   4.607 -0.5630  0.2900 -0.7060
14677TIP3    H165522   2.625   2.755   4.559  0.1018 -0.1803  0.6588
14677TIP3    H265523   2.532   2.874   4.558  1.4384  0.8746 -0.6362
14678TIP3   OH265524   2.455   6.042   1.442  0.3331 -0.5986 -0.3490
14678TIP3    H165525   2.448   6.134   1.418 -0.9579 -0.2610  1.2287
14678TIP3    H265526   2.392   5.997   1.386 -0.2559 -0.2911  0.0701
14679TIP3   OH265527   6.815   3.949   3.152 -0.5152 -0.3812 -0.1630
14679TIP3    H165528   6.853   3.886   3.090 -0.1704 -0.1061 -0.2275
14679TIP3    H265529   6.726   3.917   3.166 -0.8607  0.0189 -1.4408
14680TIP3   OH265530   2.858   7.210   2.189 -0.0201 -0.3952  0.2748
14680TIP3    H165531   2.878   7.152   2.263  0.8982  0.2272  0.5223
14680TIP3    H265532   2.764   7.202   2.177 -0.0790 -0.9998  1.0968
14681TIP3   OH265533   2.378   1.316   0.207  0.4893  0.8080 -0.3052
14681TIP3    H165534   2.344   1.375   0.140  0.0614  1.2193  0.2650
14681TIP3    H265535   2.408   1.375   0.277  1.1414  0.3951 -0.2372
14682TIP3   OH265536   3.599   4.457   1.963 -0.6484  0.2290 -0.2272
14682TIP3    H165537   3.661   4.423   1.898 -0.6303  0.9972 -0.6209
14682TIP3    H265538   3.574   4.381   2.015 -0.8442 -0.4480 -1.2914
14683TIP3   OH265539   0.583   4.112   0.734  0.0326  0.3591 -0.2651
14683TIP3    H165540   0.571   4.104   0.829 -0.0154  0.0212 -0.3023
14683TIP3    H265541   0.625   4.198   0.723  0.4486  0.2021  0.0936
14684TIP3   OH265542   1.700   2.792   2.866  0.0793 -0.7043 -0.3636
14684TIP3    H165543   1.605   2.790   2.858 -0.0145  2.1218 -0.7862
14684TIP3    H265544   1.725   2.702   2.885 -2.6802 -1.4754 -0.1438
14685TIP3   OH265545   0.376   1.233   3.235 -0.2729 -0.1489 -0.6082
14685TIP3    H165546   0.344   1.286   3.162 -0.1419 -0.3595 -0.8233
14685TIP3    H265547   0.319   1.255   3.308 -0.0950  0.4336 -0.6415
14686TIP3   OH265548   2.821   4.043   5.332 -0.1489 -0.0801 -0.7830
14686TIP3    H165549   2.777   3.960   5.353 -0.9161  0.2311 -1.1329
14686TIP3    H265550   2.771   4.109   5.380  0.2211  0.2285 -0.8187
14687TIP3   OH265551   6.931   3.330   3.815  0.0924 -0.5134  0.8266
14687TIP3    H165552   6.968   3.243   3.828 -0.9354 -0.7009  2.6518
14687TIP3    H265553   6.836   3.317   3.816 -0.0737  0.5798  0.7546
14688TIP3   OH265554   2.220   2.317   1.610 -0.0221 -0.4544  0.5331
14688TIP3    H165555   2.145   2.264   1.583  0.3061 -0.0685 -1.1982
14688TIP3    H265556   2.200   2.343   1.700 -2.0424 -0.2126  0.0389
14689TIP3   OH265557   3.705   7.271   4.327  0.1210  0.1162  0.4607
14689TIP3    H165558   3.770   7.206   4.300 -0.3412 -0.4957  0.7913
14689TIP3    H265559   3.690   7.323   4.248 -0.0873 -0.6928 -0.0496
14690TIP3   OH265560   4.617   7.105  13.499  0.9200  0.4705 -0.1956
14690TIP3    H165561   4.554   7.067  13.437  0.4484 -1.8376  1.6341
14690TIP3    H265562   4.701   7.066  13.475  0.7837 -0.2179  0.4271
14691TIP3   OH265563   4.391   2.170   4.168 -0.1418  0.1816 -0.6621
14691TIP3    H165564   4.316   2.175   4.110 -0.0763 -0.8719 -0.8495
14691TIP3    H265565   4.445   2.245   4.144  0.2740 -0.6851 -2.5279
14692TIP3   OH265566   2.457   2.781   2.725 -0.4223  0.2930 -0.0468
14692TIP3    H165567   2.467   2.865   2.680  1.3312  0.4313  0.5488
14692TIP3    H265568   2.547   2.753   2.742 -0.9987 -1.6642 -0.1458
14693TIP3   OH265569   2.391   0.963   2.547  0.2378 -0.1660  0.8105
14693TIP3    H165570   2.361   1.006   2.627  0.6647  1.2188  0.2477
14693TIP3    H265571   2.483   0.941   2.565  0.3340  0.1464  0.7027
14694TIP3   OH265572   3.382   2.717   3.174  0.4655  0.1625  0.5755
14694TIP3    H165573   3.376   2.728   3.079 -0.2843  4.1703  1.0019
14694TIP3    H265574   3.335   2.635   3.192 -1.9011  0.8143 -2.2290
14695TIP3   OH265575   3.031   1.525   1.867 -1.1918 -0.2234  0.0225
14695TIP3    H165576   3.022   1.430   1.876  2.0281 -0.4414  1.8143
14695TIP3    H265577   3.096   1.536   1.797 -2.5306  0.7177 -1.0981
14696TIP3   OH265578   2.108   2.707   3.243  0.5646  0.6098 -0.5767
14696TIP3    H165579   2.132   2.635   3.301 -1.2406  0.2507 -0.2358
14696TIP3    H265580   2.168   2.699   3.169  1.9205  0.1953  0.5499
14697TIP3   OH265581   4.364   1.922   1.826 -0.1849 -0.3852 -0.0280
14697TIP3    H165582   4.397   1.971   1.902  0.9128 -1.3971  0.1443
14697TIP3    H265583   4.281   1.885   1.856 -0.2817  0.1160  0.3307
14698TIP3   OH265584   5.014   2.756   3.808  0.0471  0.1413  0.6260
14698TIP3    H165585   5.034   2.664   3.788 -0.8060 -0.1085  0.9278
14698TIP3    H265586   4.920   2.757   3.827 -0.6092  1.5824 -2.3627
14699TIP3   OH265587   1.575   2.240   3.885  0.0718  0.2485  0.3400
14699TIP3    H165588   1.514   2.264   3.955 -0.9600 -1.1080 -0.0508
14699TIP3    H265589   1.630   2.172   3.923  0.1963  0.2539  0.1690
14700TIP3   OH265590   3.222   2.896   2.770 -0.0240 -0.3795  0.2360
14700TIP3    H165591   3.257   2.881   2.682  0.6374  1.1925  0.2222
14700TIP3    H265592   3.269   2.834   2.825  1.2655  0.2418 -0.1427
14701TIP3   OH265593   2.597   3.330   4.673  0.3388  0.0225  0.3752
14701TIP3    H165594   2.611   3.244   4.632  2.0959 -0.3956  1.7662
14701TIP3    H265595   2.654   3.389   4.623  2.4412 -0.4775  2.0825
14702TIP3   OH265596   2.573   0.845   1.137  0.1284 -0.6029  0.0183
14702TIP3    H165597   2.482   0.817   1.137 -0.1238  0.1479 -1.6429
14702TIP3    H265598   2.617   0.782   1.080  1.0076 -1.9825  2.1537
14703TIP3   OH265599   2.383   2.955   3.952  0.2176 -0.7820 -0.0521
14703TIP3    H165600   2.454   2.974   3.891  0.3717 -0.5119  0.2113
14703TIP3    H265601   2.331   2.887   3.908 -0.8270  0.8502 -1.3753
14704TIP3   OH265602   0.772   3.911   1.672 -0.4281  0.1721  0.4501
14704TIP3    H165603   0.793   3.987   1.726 -2.8157  1.2154 -0.0202
14704TIP3    H265604   0.709   3.861   1.724 -0.3135 -0.4935 -0.0388
14705TIP3   OH265605   1.487   4.735   1.119  0.2141  0.1225 -0.0536
14705TIP3    H165606   1.578   4.750   1.147  0.2778 -0.7782  0.2528
14705TIP3    H265607   1.435   4.743   1.198  0.0675  0.3246 -0.1711
14706TIP3   OH265608   3.736   1.468   0.960 -1.0051  0.6316 -1.1215
14706TIP3    H165609   3.770   1.557   0.965  1.1998 -0.1788 -1.1385
14706TIP3    H265610   3.641   1.478   0.966 -0.7433  2.9116 -0.3889
14707TIP3   OH265611   3.060   3.841   4.449 -0.1103  0.1008  0.2236
14707TIP3    H165612   3.072   3.886   4.366 -2.6641 -1.6571 -1.1548
14707TIP3    H265613   3.107   3.758   4.439 -0.0574  0.0668  0.7198
14708TIP3   OH265614   3.575   3.359   3.680 -0.0592  0.1804 -0.1234
14708TIP3    H165615   3.594   3.439   3.632 -2.1497  0.3704 -0.7008
14708TIP3    H265616   3.635   3.294   3.645 -0.1478  0.8431 -1.5235
14709TIP3   OH265617   2.129   3.309   1.703 -0.2288 -0.6993 -0.1656
14709TIP3    H165618   2.146   3.382   1.644 -0.7397 -1.0005 -0.7011
14709TIP3    H265619   2.110   3.349   1.788  1.5008 -0.3059  0.0406
14710TIP3   OH265620   5.494   3.673   3.183  0.2737 -0.6016  0.8088
14710TIP3    H165621   5.495   3.766   3.204 -0.4251 -0.9035  2.2553
14710TIP3    H265622   5.509   3.669   3.089 -4.9000  1.2938 -0.2522
14711TIP3   OH265623   3.466   2.535   4.711  0.2569  0.7924 -0.3011
14711TIP3    H165624   3.375   2.510   4.725  1.5964 -3.7378  1.2933
14711TIP3    H265625   3.484   2.602   4.777 -1.1179 -0.5334  1.4668
14712TIP3   OH265626   0.833   3.546   1.568 -0.1581 -0.3442 -0.1112
14712TIP3    H165627   0.873   3.565   1.653 -1.4953  0.2756  0.4021
14712TIP3    H265628   0.821   3.451   1.568  1.2087 -0.5229 -0.2370
14713TIP3   OH265629   4.375   5.052   3.128  0.0763  0.7764  0.0141
14713TIP3    H165630   4.290   5.023   3.162  0.3451  1.7081  1.5045
14713TIP3    H265631   4.438   5.019   3.192  0.5455  2.9488  0.6842
14714TIP3   OH265632   2.636   0.880   3.002  0.2701  0.3860 -0.3558
14714TIP3    H165633   2.707   0.902   3.061  0.6185  1.1060 -1.0289
14714TIP3    H265634   2.610   0.964   2.963  0.9067 -0.2165 -2.1606
14715TIP3   OH265635   2.367   2.160   3.014  0.1553 -0.6109  0.1434
14715TIP3    H165636   2.338   2.081   2.968  0.8892 -1.7321  1.5663
14715TIP3    H265637   2.385   2.130   3.104 -0.7505  1.4157  1.0320
14716TIP3   OH265638   2.954   1.424   3.190 -0.3263 -0.4949 -0.2904
14716TIP3    H165639   3.024   1.490   3.189 -0.1321 -0.6429  1.8859
14716TIP3    H265640   2.960   1.383   3.104  0.2757  1.5631 -1.2789
14717TIP3   OH265641   5.284   4.915   2.884 -0.0865 -0.4146  0.3314
14717TIP3    H165642   5.286   4.919   2.979  0.7099 -2.6603  0.4220
14717TIP3    H265643   5.347   4.848   2.860 -0.2094  0.1664 -1.7979
14718TIP3   OH265644   4.354   3.580   2.482  0.1631 -0.3515  0.3610
14718TIP3    H165645   4.353   3.603   2.575  0.9196 -0.9228  0.5138
14718TIP3    H265646   4.301   3.648   2.440 -0.9504 -0.6002  1.3253
14719TIP3   OH265647   5.079   3.893   2.707  0.3786 -0.1539 -0.0511
14719TIP3    H165648   5.019   3.928   2.642 -0.3410 -0.0935  0.6392
14719TIP3    H265649   5.162   3.882   2.660  0.0168  0.4077 -0.8260
14720TIP3   OH265650   2.232   3.889   1.465 -0.2534  0.3424 -0.2124
14720TIP3    H165651   2.324   3.890   1.440  0.4576  1.2486  2.2004
14720TIP3    H265652   2.213   3.798   1.486  1.1331  0.6445  2.6310
14721TIP3   OH265653   3.914   1.594   4.010  0.1169 -0.1790 -0.0255
14721TIP3    H165654   3.940   1.679   3.974  0.4353 -0.8522 -1.4367
14721TIP3    H265655   3.898   1.611   4.103  1.3392  1.1634 -0.0405
14722TIP3   OH265656   2.160   2.763   1.644 -0.2400 -0.2143  0.7549
14722TIP3    H165657   2.116   2.706   1.581  0.8077 -0.3407  0.1290
14722TIP3    H265658   2.183   2.704   1.717 -0.3987 -0.3056  0.7323
14723TIP3   OH265659   3.322   2.970   3.805 -0.0201 -0.2394 -0.0829
14723TIP3    H165660   3.351   2.885   3.772  0.2786 -0.6664  1.2421
14723TIP3    H265661   3.229   2.975   3.781 -0.2454 -1.2930  0.5346
14724TIP3   OH265662   3.119   3.583   1.991  0.0567 -0.3787  0.0872
14724TIP3    H165663   3.176   3.514   2.024 -0.9713 -1.0028  0.5735
14724TIP3    H265664   3.087   3.550   1.907 -1.1711 -0.9052  0.7555
14725TIP3   OH265665   3.293   2.579   4.131  0.5639  0.2731  0.3541
14725TIP3    H165666   3.380   2.549   4.157  1.2182  0.7643 -1.2420
14725TIP3    H265667   3.305   2.670   4.104 -0.2231 -0.0240 -1.0424
14726TIP3   OH265668   2.596   6.343   2.767  0.1251  0.1246 -0.3045
14726TIP3    H165669   2.543   6.386   2.700 -1.1215 -0.5288  0.2355
14726TIP3    H265670   2.552   6.259   2.782  0.9675 -0.1709  0.6040
14727TIP3   OH265671   0.149   3.376   0.589 -0.1237  0.6765 -0.3096
14727TIP3    H165672   0.179   3.310   0.527 -0.4622  0.2413 -0.0105
14727TIP3    H265673   0.225   3.393   0.645 -0.6512 -1.0487  0.9896
14728TIP3   OH265674   5.209   3.038   5.459 -0.2217  0.0373 -0.0580
14728TIP3    H165675   5.293   3.007   5.491 -0.1354  1.0848  0.7857
14728TIP3    H265676   5.166   3.074   5.536 -0.7611  0.9901 -0.7843
14729TIP3   OH265677   4.927   2.223   3.914 -0.1022 -0.4859 -0.1561
14729TIP3    H165678   5.022   2.227   3.926 -0.2014 -0.0964  0.4757
14729TIP3    H265679   4.903   2.135   3.945 -0.1990  0.0887  1.4114
14730TIP3   OH265680   3.057   2.544   2.217 -0.2883 -0.0539  0.5862
14730TIP3    H165681   3.031   2.537   2.309 -0.8978 -2.2002  0.2658
14730TIP3    H265682   2.975   2.556   2.169 -0.0288  0.3894  0.2381
14731TIP3   OH265683   2.507   4.519   1.983 -0.2900  0.3125  0.4859
14731TIP3    H165684   2.466   4.472   2.055 -5.0217  1.4042 -1.2508
14731TIP3    H265685   2.479   4.472   1.904  2.0352  1.0286 -0.8126
14732TIP3   OH265686   0.845   2.705   2.268  0.0663 -0.2811  0.1992
14732TIP3    H165687   0.938   2.684   2.270  0.1419  0.1077  0.8177
14732TIP3    H265688   0.801   2.624   2.292  0.1449 -1.0581 -2.1377
14733TIP3   OH265689   1.437   2.514   2.785 -0.1967  0.6415  0.3155
14733TIP3    H165690   1.466   2.594   2.742 -0.1418 -0.0355 -0.9202
14733TIP3    H265691   1.471   2.522   2.875  1.2272  1.2448 -0.2588
14734TIP3   OH265692   1.709   3.173   2.474  0.3691  0.2817  0.2324
14734TIP3    H165693   1.636   3.235   2.475 -0.0889 -0.2525  1.1620
14734TIP3    H265694   1.667   3.087   2.472  0.9705 -0.0311  0.8685
14735TIP3   OH265695   1.753   3.478   2.940 -0.7871  0.3743  0.4390
14735TIP3    H165696   1.752   3.531   2.860  1.0707 -0.8238 -0.4202
14735TIP3    H265697   1.798   3.532   3.005 -0.1990  0.4133 -0.0033
14736TIP3   OH265698   4.704   4.983   3.103  0.1184  0.1440  0.4069
14736TIP3    H165699   4.633   4.933   3.064  0.9355 -0.8578  0.1985
14736TIP3    H265700   4.692   4.972   3.198  0.3700 -0.5771  0.3623
14737TIP3   OH265701   3.408   3.277   2.896 -0.0344  0.1346  0.4949
14737TIP3    H165702   3.418   3.184   2.915 -0.6775 -0.0438 -0.0075
14737TIP3    H265703   3.480   3.319   2.942  0.0099 -0.5704  1.0789
14738TIP3   OH265704   2.383   3.607   1.749  0.5445 -0.4428 -0.3694
14738TIP3    H165705   2.386   3.514   1.726 -0.5850 -0.9509  1.4207
14738TIP3    H265706   2.310   3.641   1.698  0.1437 -0.8328 -0.0646
14739TIP3   OH265707   2.562   4.727   3.411  0.2766 -0.2664 -0.6280
14739TIP3    H165708   2.574   4.702   3.502 -0.3206  2.0286  0.0993
14739TIP3    H265709   2.475   4.694   3.388  1.3579 -2.9426 -1.1370
14740TIP3   OH265710   5.472   5.381   1.214  0.4135 -0.5549 -0.1843
14740TIP3    H165711   5.522   5.351   1.137  0.3138 -0.4850 -0.2752
14740TIP3    H265712   5.521   5.346   1.288  1.1611  0.3562 -0.2401
14741TIP3   OH265713   3.918   4.815   3.439 -0.0932 -0.4758  0.1369
14741TIP3    H165714   3.980   4.804   3.511 -0.3754 -1.5806  0.2221
14741TIP3    H265715   3.921   4.732   3.391 -0.2914  0.0641 -0.8226
14742TIP3   OH265716   3.083   2.552   0.282  0.1627  1.0179 -0.7753
14742TIP3    H165717   3.043   2.581   0.200  0.1854  2.5009 -0.2766
14742TIP3    H265718   3.127   2.630   0.316  0.7800  0.2249  0.2840
14743TIP3   OH265719   2.781   3.758   4.332 -0.6103 -0.2039  0.1337
14743TIP3    H165720   2.869   3.756   4.371 -1.3117 -2.2418  1.6777
14743TIP3    H265721   2.743   3.840   4.364  0.8413  0.9150 -0.8921
14744TIP3   OH265722   2.987   2.601   0.861  0.0505  0.4267  1.0121
14744TIP3    H165723   2.996   2.532   0.796 -0.7398  0.5465  0.7641
14744TIP3    H265724   2.912   2.574   0.914  0.4815  0.4991  1.6567
14745TIP3   OH265725   3.404   3.255   1.963  0.4489 -0.1426 -0.4605
14745TIP3    H165726   3.420   3.297   2.048  1.5402  0.7941 -1.1140
14745TIP3    H265727   3.312   3.230   1.966  0.2281  0.7289  0.6334
14746TIP3   OH265728   1.619   5.130   0.570  0.0712 -0.1152 -0.1738
14746TIP3    H165729   1.650   5.214   0.537 -2.1167  1.1734  0.9412
14746TIP3    H265730   1.532   5.119   0.532  0.6637 -2.2835 -0.9658
14747TIP3   OH265731   4.223   1.814   4.212  0.0294  0.1928  0.1282
14747TIP3    H165732   4.300   1.801   4.155 -0.2204 -0.0590 -0.1530
14747TIP3    H265733   4.151   1.827   4.151 -0.1789  0.2807  0.3941
14748TIP3   OH265734   4.708   1.031   2.450  0.1161 -0.1895 -0.1193
14748TIP3    H165735   4.796   1.024   2.486  1.1214  0.3017 -2.4690
14748TIP3    H265736   4.707   0.971   2.376 -1.5734 -0.2896 -0.0421
14749TIP3   OH265737   5.904   3.272   1.987  0.3655 -0.6676  0.3298
14749TIP3    H165738   5.827   3.239   1.939  0.4660  0.4292 -0.6091
14749TIP3    H265739   5.956   3.194   2.006  0.2664 -1.1336 -1.2636
14750TIP3   OH265740   2.539   1.917   2.802  0.1256 -0.0370 -0.2020
14750TIP3    H165741   2.587   1.932   2.884 -0.9675  0.6329  0.3221
14750TIP3    H265742   2.574   1.834   2.769  0.5277 -0.3558  0.9907
14751TIP3   OH265743   2.470   1.480   1.130  0.5437 -0.1237 -0.1169
14751TIP3    H165744   2.437   1.442   1.049  1.0643  0.4282 -0.5942
14751TIP3    H265745   2.548   1.428   1.151  1.0273  0.4101 -0.5563
14752TIP3   OH265746   6.219   6.955   2.886  0.2125  0.3021 -0.1429
14752TIP3    H165747   6.252   7.033   2.843  0.3531  0.0261 -0.5451
14752TIP3    H265748   6.187   6.985   2.971  1.0627  0.6466  0.0518
14753TIP3   OH265749   1.186   3.695   1.418  0.0423 -0.1499  0.1330
14753TIP3    H165750   1.156   3.718   1.506  0.1625 -0.7099  0.3249
14753TIP3    H265751   1.105   3.674   1.370  0.0333 -0.5345  0.3156
14754TIP3   OH265752   1.716   0.828   1.832 -0.2265  0.2673  0.2561
14754TIP3    H165753   1.735   0.758   1.770 -0.2115 -0.6175  1.2357
14754TIP3    H265754   1.632   0.803   1.871 -1.0756  1.6914 -0.6212
14755TIP3   OH265755   3.242   2.371   2.560 -0.1301  0.4148 -0.1407
14755TIP3    H165756   3.253   2.433   2.488  0.3361  0.2156 -0.2467
14755TIP3    H265757   3.158   2.329   2.544 -0.4516  1.0353 -0.0579
14756TIP3   OH265758   3.181   5.048   1.286 -0.1719 -0.3421  0.6509
14756TIP3    H165759   3.107   5.069   1.229  1.8042  2.0705 -1.1527
14756TIP3    H265760   3.150   5.070   1.374 -2.4909 -1.9363  0.2747
14757TIP3   OH265761   1.465   4.919   1.608 -0.3686  0.1288  0.4892
14757TIP3    H165762   1.469   4.862   1.686 -0.5350 -1.1930 -0.4538
14757TIP3    H265763   1.531   4.986   1.625 -0.3936 -0.1515  1.7720
14758TIP3   OH265764   2.669   1.741   0.101  0.0161  0.0254  0.4620
14758TIP3    H165765   2.645   1.683   0.029  0.5682 -1.7185  1.6627
14758TIP3    H265766   2.736   1.694   0.149  2.3613  2.7609 -0.0105
14759TIP3   OH265767   2.430   5.713   2.562  0.0173  0.3517 -0.1050
14759TIP3    H165768   2.483   5.696   2.640 -0.3470  0.3205  0.1398
14759TIP3    H265769   2.465   5.793   2.525  0.4016  0.1921 -0.0887
14760TIP3   OH265770   4.157   2.972   3.261  0.0850  0.2487 -0.6863
14760TIP3    H165771   4.130   3.035   3.195 -1.1375 -0.0794 -0.5115
14760TIP3    H265772   4.235   3.011   3.301 -0.6645  1.6635 -0.5705
14761TIP3   OH265773   2.429   2.053   3.271  0.3478 -0.5649 -0.1231
14761TIP3    H165774   2.409   1.959   3.273 -0.8141 -0.3283 -0.4251
14761TIP3    H265775   2.495   2.065   3.340 -0.2470 -1.4249  0.6017
14762TIP3   OH265776   2.280   2.037   4.792  0.0740 -0.2857  0.5012
14762TIP3    H165777   2.263   2.035   4.698  2.1711  3.1077 -0.0494
14762TIP3    H265778   2.314   2.125   4.808  1.0228 -1.2425  4.2158
14763TIP3   OH265779   3.095   4.556   3.806  0.0122  0.6246 -0.4730
14763TIP3    H165780   3.138   4.620   3.862 -2.5850  0.8657  1.3513
14763TIP3    H265781   3.133   4.472   3.832  0.2772  0.9586  0.2244
14764TIP3   OH265782   1.453   1.230   1.801 -0.2053  0.1869  0.2528
14764TIP3    H165783   1.531   1.273   1.766  1.0941 -1.3574  1.1950
14764TIP3    H265784   1.406   1.199   1.723 -0.4248  1.9976 -0.3642
14765TIP3   OH265785   3.148   2.814   4.313  0.2751 -0.5180 -0.4075
14765TIP3    H165786   3.195   2.815   4.230  0.2665  1.5739 -0.4045
14765TIP3    H265787   3.217   2.807   4.380  0.3146 -1.5463 -0.5364
14766TIP3   OH265788   5.743   5.249   3.118  0.4325 -0.1674  0.1301
14766TIP3    H165789   5.772   5.309   3.187 -0.6698 -1.1297  1.4505
14766TIP3    H265790   5.816   5.189   3.105  0.4146 -0.3445  0.8721
14767TIP3   OH265791   3.110   1.295   3.823 -0.1117  0.0881  0.0139
14767TIP3    H165792   3.115   1.380   3.781 -0.5666 -0.0068 -0.2331
14767TIP3    H265793   3.030   1.298   3.875 -0.6416 -0.5250 -0.7468
14768TIP3   OH265794   1.061   0.711   2.298  0.0891 -0.1383  0.5278
14768TIP3    H165795   1.136   0.657   2.323  0.4205  0.7849  1.5544
14768TIP3    H265796   1.039   0.760   2.377 -2.5143 -1.4337  0.6690
14769TIP3   OH265797   2.614   2.460   3.336  0.2239  0.1464 -0.3480
14769TIP3    H165798   2.565   2.420   3.264 -1.1027 -0.9701  1.1425
14769TIP3    H265799   2.692   2.406   3.344  0.7064  0.6702 -1.3584
14770TIP3   OH265800   3.573   2.774   2.405  0.4430 -0.0288  0.0894
14770TIP3    H165801   3.597   2.862   2.435 -0.3200  0.1787  0.0997
14770TIP3    H265802   3.513   2.790   2.332  1.3170 -0.5355 -0.7506
14771TIP3   OH265803   1.388   1.562   3.568  0.1087 -0.0371  0.2713
14771TIP3    H165804   1.426   1.508   3.499  0.8336  1.4967 -0.5544
14771TIP3    H265805   1.359   1.500   3.634  1.8278 -1.3880 -0.2080
14772TIP3   OH265806   3.760   1.367   3.295 -0.7875 -0.7958  0.6117
14772TIP3    H165807   3.751   1.366   3.390  0.1744 -1.4469  0.6991
14772TIP3    H265808   3.851   1.393   3.280 -1.0596 -0.2643 -0.1377
14773TIP3   OH265809   4.660   3.309   3.502  0.1317  0.2149 -0.1465
14773TIP3    H165810   4.738   3.345   3.543 -0.4914  2.0298 -0.4891
14773TIP3    H265811   4.678   3.315   3.408 -0.4417  0.7377 -0.2295
14774TIP3   OH265812   3.679   3.456   4.093  0.7342  0.0052  0.6215
14774TIP3    H165813   3.712   3.545   4.078  0.6306  0.0855  0.8731
14774TIP3    H265814   3.665   3.421   4.005 -0.4618  0.6943  0.5256
14775TIP3   OH265815   3.203   2.042   2.491 -0.1489 -0.1271 -0.7033
14775TIP3    H165816   3.281   2.093   2.466  0.0052  0.9375  1.7888
14775TIP3    H265817   3.130   2.090   2.452  0.1922  0.7045 -0.3331
14776TIP3   OH265818   3.057   3.150   4.282  0.7286  0.0603  0.3695
14776TIP3    H165819   3.054   3.125   4.190  0.3623 -0.8479  0.6160
14776TIP3    H265820   2.981   3.105   4.321 -0.6777  2.5802  0.6000
14777TIP3   OH265821   2.868   2.215   3.510 -0.3262 -0.8499  1.2815
14777TIP3    H165822   2.923   2.160   3.567  2.5592 -0.6076 -1.1421
14777TIP3    H265823   2.893   2.304   3.532  1.7052 -0.7713 -1.0978
14778TIP3   OH265824   4.070   2.043   2.708  0.1988 -0.1049  0.1766
14778TIP3    H165825   4.110   2.103   2.645 -0.2463 -1.2422 -1.1937
14778TIP3    H265826   4.053   2.098   2.785  2.7649  0.7866  0.1343
14779TIP3   OH265827   2.593   0.414   3.748 -0.1457 -0.1421 -0.0087
14779TIP3    H165828   2.661   0.441   3.686  0.3271  0.0239  0.5745
14779TIP3    H265829   2.511   0.434   3.704  0.1889  0.1648 -0.4983
14780TIP3   OH265830   3.040   2.108   4.067  0.6094  0.2559  0.1966
14780TIP3    H165831   2.994   2.140   4.144  2.0504  0.3710  1.0281
14780TIP3    H265832   3.081   2.187   4.029 -1.9903  0.6160 -2.0425
14781TIP3   OH265833   2.969   2.745   4.502  0.2692  0.1873 -0.1651
14781TIP3    H165834   2.883   2.731   4.463  0.9507 -2.3563 -0.8318
14781TIP3    H265835   3.022   2.780   4.430  0.4382 -0.6014 -0.4282
14782TIP3   OH265836   2.497   2.217   5.129  0.3611 -0.0674  0.2643
14782TIP3    H165837   2.581   2.238   5.170 -0.7276  0.5211  2.2120
14782TIP3    H265838   2.476   2.130   5.160 -0.5076  0.4114  1.0165
14783TIP3   OH265839   0.288   2.024   3.724  0.0759 -0.1103  0.0289
14783TIP3    H165840   0.206   2.013   3.676  0.6825 -0.1445 -1.0145
14783TIP3    H265841   0.326   1.936   3.725  0.6247  0.1176 -0.4672
14784TIP3   OH265842   3.524   1.783   1.366  0.4387 -0.1693 -0.4318
14784TIP3    H165843   3.506   1.857   1.423 -1.2864  0.4723 -1.7522
14784TIP3    H265844   3.440   1.763   1.325  0.9719 -2.5437 -0.4940
14785TIP3   OH265845   4.777   2.391   3.750  0.2534 -0.3601 -0.1790
14785TIP3    H165846   4.820   2.337   3.817 -1.0366  0.9390  1.7430
14785TIP3    H265847   4.711   2.334   3.712  0.2010 -0.7703  0.5095
14786TIP3   OH265848   5.038   4.511   2.316  0.2439 -0.5256 -0.1411
14786TIP3    H165849   5.076   4.599   2.314  3.2847 -1.7460  1.5980
14786TIP3    H265850   4.968   4.514   2.250  0.7031  2.9856 -0.5529
14787TIP3   OH265851   0.861   0.980   4.047  0.2882  0.0784 -0.1581
14787TIP3    H165852   0.781   0.966   3.996 -0.1285  2.3212 -0.1476
14787TIP3    H265853   0.846   0.933   4.129  0.0688 -1.6962 -1.1789
14788TIP3   OH265854   4.091   4.035   3.794 -0.0598 -0.1348 -0.1763
14788TIP3    H165855   4.012   4.087   3.777 -1.0783 -1.7001 -0.3159
14788TIP3    H265856   4.162   4.088   3.757 -0.7797  2.1504  1.5659
14789TIP3   OH265857   5.161   4.001   4.409 -0.0224  0.1816 -0.3563
14789TIP3    H165858   5.127   3.912   4.412  2.3595 -0.7302  1.3800
14789TIP3    H265859   5.225   3.999   4.338  0.7399  0.2286  0.3246
14790TIP3   OH265860   2.330   2.857   2.979 -0.5062 -0.1484  0.0359
14790TIP3    H165861   2.375   2.848   2.895  0.3135  1.4522  0.2698
14790TIP3    H265862   2.371   2.791   3.035 -0.7621 -0.9361 -0.6901
14791TIP3   OH265863   1.207   5.225   0.896 -0.2188 -0.2644  0.0450
14791TIP3    H165864   1.176   5.135   0.889 -2.4094  0.5652 -1.3642
14791TIP3    H265865   1.128   5.277   0.915  0.5671  1.6651 -1.7206
14792TIP3   OH265866   3.858   2.973  15.115  0.5900  0.3548  0.6821
14792TIP3    H165867   3.909   2.892  15.125 -1.3257 -1.2064 -1.5955
14792TIP3    H265868   3.895   3.015  15.037 -1.1676 -0.4913 -0.6304
14793TIP3   OH265869   2.792   2.005   5.145 -0.3220 -0.3090  0.2840
14793TIP3    H165870   2.867   1.951   5.173  0.4024  0.7326  0.3595
14793TIP3    H265871   2.753   1.954   5.074  0.3751 -0.9307  0.3301
14794TIP3   OH265872   6.859   0.542   2.078  0.3503 -0.0660 -0.9502
14794TIP3    H165873   6.832   0.480   2.146 -0.0400 -0.2042 -1.2296
14794TIP3    H265874   6.850   0.493   1.997  1.2227 -0.0392 -1.0647
14795TIP3   OH265875   4.495   5.243   2.533  0.8623 -0.3207 -0.2352
14795TIP3    H165876   4.496   5.334   2.560 -4.3147  0.1001 -1.0583
14795TIP3    H265877   4.453   5.197   2.605  0.6766 -1.5712 -1.1201
14796TIP3   OH265878   2.030   4.106   5.815  0.1645  0.1833 -0.0664
14796TIP3    H165879   1.941   4.078   5.837 -0.6092  3.8623  1.9237
14796TIP3    H265880   2.045   4.071   5.728 -2.2773 -2.5982  0.5434
14797TIP3   OH265881   3.036   1.284   5.345  0.5035 -0.6328  0.1003
14797TIP3    H165882   2.999   1.366   5.312  3.3989  1.5959  2.1162
14797TIP3    H265883   3.117   1.272   5.295 -0.5285 -3.0424 -1.1098
14798TIP3   OH265884   3.760   4.117   3.421 -0.0202 -0.2878  0.3300
14798TIP3    H165885   3.670   4.107   3.449 -1.0607  3.5291 -1.3225
14798TIP3    H265886   3.774   4.046   3.359 -1.9549 -0.8241  0.4842
14799TIP3   OH265887   1.793   2.005   1.143  0.1528  0.2935 -0.5417
14799TIP3    H165888   1.885   1.990   1.168  0.0668  1.6314  0.6681
14799TIP3    H265889   1.743   1.976   1.219 -0.3549  0.6444 -0.7395
14800TIP3   OH265890   3.030   3.435   2.527  0.0441  0.0315  0.1017
14800TIP3    H165891   3.040   3.441   2.622  1.6395 -0.8077  0.0024
14800TIP3    H265892   2.957   3.374   2.515  0.8848 -1.1383  0.7900
14801TIP3   OH265893   4.763   1.973   3.182  0.3855 -0.4218  0.2999
14801TIP3    H165894   4.846   1.956   3.227  0.4263 -2.2937 -0.4481
14801TIP3    H265895   4.746   1.893   3.132 -1.7027  0.0734  0.1774
14802TIP3   OH265896   3.081   2.129   1.115  0.8742  0.4892  0.3294
14802TIP3    H165897   3.127   2.212   1.105  0.8778  0.2101 -2.2441
14802TIP3    H265898   3.004   2.137   1.059  0.4197 -0.9219  0.7369
14803TIP3   OH265899   2.995   2.138   1.718  0.1518 -0.4050 -0.7540
14803TIP3    H165900   3.023   2.216   1.670  0.3809 -1.3646 -2.2239
14803TIP3    H265901   3.063   2.074   1.701 -1.7815 -2.0546 -2.5371
14804TIP3   OH265902   4.879   1.484   3.244  0.8441 -0.1586 -0.2555
14804TIP3    H165903   4.963   1.448   3.216  1.5561  1.4659 -0.2203
14804TIP3    H265904   4.842   1.416   3.300  2.5467 -0.4881  0.4987
14805TIP3   OH265905   1.821   0.380   2.121  0.0854 -0.9732 -0.0095
14805TIP3    H165906   1.727   0.378   2.140 -0.0325 -1.2908 -0.6229
14805TIP3    H265907   1.829   0.436   2.045  0.6685  1.0840  1.5394
14806TIP3   OH265908   4.418   5.862   3.805 -0.0764  0.3017 -0.1513
14806TIP3    H165909   4.411   5.767   3.813 -3.5864  0.4895 -0.3734
14806TIP3    H265910   4.488   5.886   3.866 -0.0694 -2.2543  0.8940
14807TIP3   OH265911   3.594   4.788   4.550 -0.1852 -0.0227  0.0184
14807TIP3    H165912   3.503   4.770   4.528 -0.1660  0.5539 -0.5825
14807TIP3    H265913   3.599   4.782   4.645 -0.7873 -0.3332  0.0284
14808TIP3   OH265914   2.547   4.934   2.907  0.0128 -0.3727  0.1796
14808TIP3    H165915   2.529   4.966   2.995 -0.4972  0.9601 -0.4041
14808TIP3    H265916   2.641   4.917   2.907 -0.0019 -0.4718  1.0063
14809TIP3   OH265917   4.873   1.458   2.728 -0.2126  0.3593  0.1720
14809TIP3    H165918   4.926   1.510   2.788 -0.8469 -1.2621  2.1765
14809TIP3    H265919   4.892   1.367   2.750 -0.1698 -0.2883 -2.3490
14810TIP3   OH265920   1.943   3.970   2.005  0.1647 -0.4619 -0.0590
14810TIP3    H165921   2.020   3.926   2.043  1.0366  0.3369 -0.8598
14810TIP3    H265922   1.973   3.998   1.919 -0.9756  0.0476 -0.2906
14811TIP3   OH265923   1.852   3.661   3.131 -0.8139 -1.0255  0.0217
14811TIP3    H165924   1.944   3.652   3.106 -0.2536 -2.4397  2.4128
14811TIP3    H265925   1.847   3.746   3.174 -0.4551 -1.2695  0.5494
14812TIP3   OH265926   2.958   2.467   5.144  0.2977 -0.2722  0.0456
14812TIP3    H165927   2.972   2.561   5.156  1.4261 -0.3142 -0.8177
14812TIP3    H265928   2.915   2.438   5.224 -2.4957  1.4544 -0.7587
14813TIP3   OH265929   3.940   3.826   3.507  0.0762  0.4822  0.3846
14813TIP3    H165930   3.972   3.746   3.465 -0.5896  0.3552  0.1190
14813TIP3    H265931   3.903   3.878   3.435 -2.2254 -0.2930  0.9843
14814TIP3   OH265932   3.510   3.129   0.301 -0.2179  0.4269 -0.7572
14814TIP3    H165933   3.596   3.171   0.310 -1.0649  2.1974 -0.5639
14814TIP3    H265934   3.480   3.117   0.391  0.0687 -0.7153 -0.8120
14815TIP3   OH265935   3.824   3.038   3.782 -0.4448 -0.4499 -0.5319
14815TIP3    H165936   3.857   2.971   3.722  0.8412  0.9131 -1.4014
14815TIP3    H265937   3.822   3.118   3.729 -1.6934  0.2535  0.5568
14816TIP3   OH265938   3.794   5.300   1.807 -0.3089  0.2001  0.7647
14816TIP3    H165939   3.807   5.395   1.813 -1.9489  0.5158 -0.1617
14816TIP3    H265940   3.803   5.281   1.713 -1.9154 -0.2193  0.6735
14817TIP3   OH265941   3.356   3.388   3.815  0.1088 -0.0219 -0.2797
14817TIP3    H165942   3.437   3.351   3.780  0.4029 -0.0725  0.4608
14817TIP3    H265943   3.340   3.340   3.896  1.1357  2.2847  1.3399
14818TIP3   OH265944   2.744   3.475   2.845 -0.5555  0.5046 -0.0765
14818TIP3    H165945   2.684   3.404   2.822 -2.6345  2.0598  0.3986
14818TIP3    H265946   2.748   3.529   2.766  0.1818  0.4634 -0.0759
14819TIP3   OH265947   6.819   3.721   2.026 -0.4795  0.2958 -0.0743
14819TIP3    H165948   6.868   3.733   1.945  1.6179  0.2175  1.1318
14819TIP3    H265949   6.863   3.779   2.089 -0.8842 -1.0371  1.4672
14820TIP3   OH265950   2.909   1.907   1.208 -0.1619 -0.9011 -0.7266
14820TIP3    H165951   2.961   1.985   1.191 -0.4490 -0.6623 -0.5132
14820TIP3    H265952   2.819   1.933   1.189 -0.2244 -1.2643 -0.9375
14821TIP3   OH265953   0.192   1.453   2.743  0.4012  0.1384  0.0789
14821TIP3    H165954   0.121   1.389   2.755  0.3279 -0.0104 -1.1352
14821TIP3    H265955   0.235   1.426   2.662  0.5805  1.4485 -0.2690
14822TIP3   OH265956   1.709   3.355   3.589 -0.0282  0.7263 -0.0702
14822TIP3    H165957   1.720   3.391   3.677  1.2796  1.0773 -0.3640
14822TIP3    H265958   1.705   3.432   3.532 -0.1392  0.4779 -0.3963
14823TIP3   OH265959   1.935   3.296   2.764 -0.5488 -0.1124 -0.1396
14823TIP3    H165960   1.858   3.326   2.716 -0.6236 -0.2890 -0.1305
14823TIP3    H265961   1.950   3.364   2.829 -0.8925 -0.2350  0.0713
14824TIP3   OH265962   2.152   6.273   4.289 -0.1229  0.1769  0.1525
14824TIP3    H165963   2.175   6.319   4.370 -0.1703 -0.9020  0.7949
14824TIP3    H265964   2.105   6.195   4.319  1.5816 -1.2567 -0.8056
14825TIP3   OH265965   1.746   5.610   3.236 -0.6821  0.0881 -0.4160
14825TIP3    H165966   1.804   5.534   3.234 -0.2968  0.3633  0.1654
14825TIP3    H265967   1.693   5.599   3.314  1.3455  1.8425  1.2761
14826TIP3   OH265968   5.441   1.373   5.450  0.3539 -0.5613  0.6142
14826TIP3    H165969   5.348   1.354   5.465 -0.2542 -0.5111 -2.8433
14826TIP3    H265970   5.458   1.452   5.501 -2.6354  1.9105 -2.0477
14827TIP3   OH265971   2.085   4.601   3.462  0.3021  0.2948 -0.1384
14827TIP3    H165972   2.055   4.551   3.538  2.2363  1.8155  1.6982
14827TIP3    H265973   2.061   4.692   3.482 -2.4105  0.2699 -3.0465
14828TIP3   OH265974   2.010   3.177   0.299  0.5161  0.0558 -0.7744
14828TIP3    H165975   2.088   3.124   0.282 -0.6331 -1.0808 -2.6678
14828TIP3    H265976   2.007   3.239   0.226 -0.3131  0.1343 -0.6793
14829TIP3   OH265977   3.673   5.514   3.078 -0.3049 -0.3524  0.5720
14829TIP3    H165978   3.722   5.592   3.107  0.2578 -0.2135 -0.7323
14829TIP3    H265979   3.605   5.503   3.145  0.6263  0.2942  1.6467
14830TIP3   OH265980   2.142   3.925   2.986  0.1549  0.5919  0.3833
14830TIP3    H165981   2.124   3.980   2.910 -0.6535  1.1968  1.0090
14830TIP3    H265982   2.238   3.918   2.988  0.1614  0.0952 -1.0153
14831TIP3   OH265983   4.340   3.191   5.423  0.1455  0.0317 -0.4855
14831TIP3    H165984   4.288   3.197   5.503  0.4921  0.1090 -0.2622
14831TIP3    H265985   4.368   3.100   5.419  2.7551  0.6945  1.1795
14832TIP3   OH265986   0.680   2.802   2.734  0.8342  0.1212  0.0313
14832TIP3    H165987   0.640   2.722   2.699  0.6836 -0.9097  2.4068
14832TIP3    H265988   0.606   2.860   2.751  0.8308  0.2691 -0.4724
14833TIP3   OH265989   3.039   5.862   2.922  0.0762  0.2245 -0.8236
14833TIP3    H165990   3.048   5.894   3.011 -0.7978  2.9293 -1.6640
14833TIP3    H265991   3.117   5.896   2.877  1.5934 -2.8711 -0.6366
14834TIP3   OH265992   3.498   1.459   1.465 -0.3657  0.1404 -0.3745
14834TIP3    H165993   3.590   1.459   1.490 -0.9483  0.9376  1.8831
14834TIP3    H265994   3.483   1.547   1.429 -1.0312  1.2684  2.4978
14835TIP3   OH265995   5.224   1.597   3.362 -0.4338 -0.6106 -0.2367
14835TIP3    H165996   5.293   1.587   3.428  1.2297 -1.3408 -2.0629
14835TIP3    H265997   5.176   1.514   3.364 -0.2852 -0.6929 -0.0796
14836TIP3   OH265998   4.305   2.808   4.484  0.2210 -0.9093 -0.0417
14836TIP3    H165999   4.230   2.803   4.424 -0.7148  1.4155  0.9051
14836TIP3    H266000   4.269   2.781   4.568  0.3523  0.5476  0.4884
14837TIP3   OH266001   5.099   0.216   3.581 -0.6944 -0.1510  0.1255
14837TIP3    H166002   5.027   0.251   3.528 -2.4199 -0.6793  2.0877
14837TIP3    H266003   5.057   0.181   3.659  1.7600  0.0454  1.5843
14838TIP3   OH266004   4.954   1.253   0.959  0.8934  0.5741 -0.1199
14838TIP3    H166005   4.954   1.260   1.055 -0.5968  1.4010 -0.1714
14838TIP3    H266006   4.993   1.167   0.942  0.1263 -0.0771  1.2778
14839TIP3   OH266007   1.088   0.934   2.020 -0.1317  0.1911  0.7125
14839TIP3    H166008   1.016   0.879   2.051  1.5716 -1.3815  2.0371
14839TIP3    H266009   1.081   1.014   2.072 -0.5452 -0.2182  1.2997
14840TIP3   OH266010   1.458   0.246   3.136  0.1216  0.3183 -0.8136
14840TIP3    H166011   1.475   0.336   3.163 -0.6344  0.4012 -0.6126
14840TIP3    H266012   1.440   0.252   3.042  0.0358  0.3841 -0.7930
14841TIP3   OH266013   3.888   3.195   2.047 -0.2780  0.6907  0.0329
14841TIP3    H166014   3.945   3.213   2.121 -0.1999  1.3247 -0.1765
14841TIP3    H266015   3.929   3.121   2.002  1.1107  1.9707 -0.8649
14842TIP3   OH266016   1.087   1.565   2.475  0.1192 -0.1716  0.0194
14842TIP3    H166017   1.030   1.550   2.400  1.7351 -1.6843 -0.9523
14842TIP3    H266018   1.049   1.513   2.546  1.0872 -2.4162 -1.0489
14843TIP3   OH266019   0.535   0.364   1.455 -0.1373  0.8664 -0.1090
14843TIP3    H166020   0.448   0.388   1.487  0.8023  1.5665  2.0240
14843TIP3    H266021   0.534   0.388   1.363 -1.8172  1.9361  0.1583
14844TIP3   OH266022   1.949   1.029   1.197 -0.1636 -0.1425 -0.5665
14844TIP3    H166023   1.971   0.991   1.283 -1.3485 -0.9489 -0.6158
14844TIP3    H266024   2.002   1.109   1.193 -0.3228  0.0696  1.0459
14845TIP3   OH266025   1.841   0.665   2.200  0.0796  0.6346 -0.1533
14845TIP3    H166026   1.864   0.578   2.231  1.3040  0.3871 -1.7215
14845TIP3    H266027   1.925   0.710   2.189 -0.5739  2.3859  1.6734
14846TIP3   OH266028   3.660   5.471   2.265 -0.6587  0.0106  0.0723
14846TIP3    H166029   3.644   5.461   2.359  0.5134  0.3226  0.3158
14846TIP3    H266030   3.755   5.471   2.257 -0.7360  1.1088 -0.9939
14847TIP3   OH266031   4.313   2.869   1.510  0.0649  0.6039  0.0596
14847TIP3    H166032   4.328   2.810   1.585 -1.5672  0.5172  0.3297
14847TIP3    H266033   4.401   2.891   1.480  0.7174 -1.6057  0.2419
14848TIP3   OH266034   1.701   0.074   3.551  0.9203 -0.3120  0.0728
14848TIP3    H166035   1.698   0.105   3.461 -2.2126  1.0024  0.5565
14848TIP3    H266036   1.698   0.154   3.604 -0.7821 -1.1979  1.3430
14849TIP3   OH266037   2.102   1.122   4.479 -0.0305 -0.5225  0.8704
14849TIP3    H166038   2.016   1.097   4.513 -0.1126  0.2688  1.2591
14849TIP3    H266039   2.082   1.186   4.410  0.2378 -0.3483  0.9530
14850TIP3   OH266040   2.140   5.336  15.472 -0.1701 -0.1679  0.3768
14850TIP3    H166041   2.150   5.255  15.523 -0.7714  0.3799  1.3937
14850TIP3    H266042   2.049   5.335  15.442 -0.5320  0.6638  1.3742
14851TIP3   OH266043   2.877   2.492   5.651  0.3475  0.5539  0.1971
14851TIP3    H166044   2.902   2.507   5.742  0.3862  1.8376 -0.0215
14851TIP3    H266045   2.815   2.418   5.656  0.6631  0.3426  1.2103
14852TIP3   OH266046   2.034   4.837   5.636  0.6762 -0.3097 -0.5445
14852TIP3    H166047   1.973   4.886   5.581  0.5270  0.1787  0.0503
14852TIP3    H266048   1.981   4.805   5.709  1.4530  1.6788  0.9586
14853TIP3   OH266049   3.143   3.453   3.645  0.1010 -0.2524 -0.0030
14853TIP3    H166050   3.214   3.412   3.695  0.7954 -1.3903 -1.8579
14853TIP3    H266051   3.096   3.380   3.606 -1.0541  0.5821 -0.1763
14854TIP3   OH266052   3.296   3.170   3.989  0.2850  0.1406  0.7811
14854TIP3    H166053   3.206   3.138   3.986  1.5020 -3.6696  1.1012
14854TIP3    H266054   3.342   3.120   3.922  3.0369 -1.2904  3.5648
14855TIP3   OH266055   5.937   5.628   4.065  0.5758 -0.2800  0.0658
14855TIP3    H166056   5.978   5.622   4.151 -1.3014 -0.8670  0.9502
14855TIP3    H266057   5.947   5.540   4.027  0.7297 -0.2353  0.0030
14856TIP3   OH266058   5.399   2.905   1.213 -0.3037  0.8474 -0.4494
14856TIP3    H166059   5.307   2.928   1.201 -0.8608 -0.3675  1.2485
14856TIP3    H266060   5.446   2.988   1.207 -1.7807  1.8300  1.0978
14857TIP3   OH266061   4.430   3.452   3.578  0.3087  0.1193  0.5456
14857TIP3    H166062   4.494   3.407   3.522 -0.4345 -0.4223  0.1312
14857TIP3    H266063   4.426   3.541   3.544  1.3590  0.3487  1.0069
14858TIP3   OH266064   2.856   2.960   2.683 -0.1385  0.2529 -0.1100
14858TIP3    H166065   2.867   2.882   2.737 -0.3060  1.2251  1.3732
14858TIP3    H266066   2.915   2.948   2.609  0.1651 -1.0632  0.3418
14859TIP3   OH266067   3.391   4.433   1.747 -0.0257 -1.1092 -0.2007
14859TIP3    H166068   3.378   4.341   1.769  0.0179 -1.0964 -0.1200
14859TIP3    H266069   3.477   4.455   1.783  0.1310 -1.1407 -0.5576
14860TIP3   OH266070   2.335   3.359   2.350  0.3267 -0.0035  0.5220
14860TIP3    H166071   2.257   3.333   2.399 -1.8268  3.0556 -1.0802
14860TIP3    H266072   2.334   3.304   2.272 -0.0863 -0.1438  0.6238
14861TIP3   OH266073   2.232   1.687   1.865 -0.3102  0.1829  0.2326
14861TIP3    H166074   2.161   1.700   1.802 -0.1183  1.0652  0.1955
14861TIP3    H266075   2.308   1.731   1.825  0.2764 -0.8239  0.2345
14862TIP3   OH266076   4.718   4.131   1.918 -0.1559 -0.0403 -0.0049
14862TIP3    H166077   4.671   4.211   1.943  1.5871  0.5981  1.2805
14862TIP3    H266078   4.810   4.155   1.920  0.2533 -0.8493 -4.0428
14863TIP3   OH266079   4.684   0.426   3.728 -0.2160 -0.3013 -0.5340
14863TIP3    H166080   4.766   0.469   3.703  0.0164  0.5195  1.5720
14863TIP3    H266081   4.624   0.499   3.746 -0.2890 -0.8307  1.5111
14864TIP3   OH266082   3.850   2.874   1.080 -0.3515  0.0847 -0.5816
14864TIP3    H166083   3.790   2.867   1.006 -0.6324  0.7224 -0.4173
14864TIP3    H266084   3.916   2.806   1.064  0.3500  1.1142 -2.1105
14865TIP3   OH266085   4.910   5.343   4.393  0.2318  0.2957  0.0742
14865TIP3    H166086   4.951   5.426   4.371  0.6234  0.3324  0.9171
14865TIP3    H266087   4.941   5.282   4.326  0.0749  0.7905 -0.4487
14866TIP3   OH266088   5.505   2.700   5.966  0.1593  0.8647  0.2705
14866TIP3    H166089   5.561   2.765   6.009 -2.3321  2.7516  0.7033
14866TIP3    H266090   5.416   2.729   5.983 -0.9924 -2.0090 -0.5878
14867TIP3   OH266091   5.531   2.337   3.090  0.0511 -0.2486  0.2782
14867TIP3    H166092   5.565   2.393   3.159 -0.4946 -1.1324  1.2822
14867TIP3    H266093   5.536   2.249   3.126 -0.6657 -0.6754 -0.6442
14868TIP3   OH266094   0.669   1.937   3.768 -0.0436 -0.2231 -0.0514
14868TIP3    H166095   0.604   1.880   3.728  0.3265  0.5709 -1.8324
14868TIP3    H266096   0.752   1.912   3.728  0.2029  1.1952 -0.4668
14869TIP3   OH266097   3.909   3.604   5.019  0.7765 -0.1065 -0.2499
14869TIP3    H166098   3.964   3.541   5.067 -0.4016 -0.5826  0.4884
14869TIP3    H266099   3.833   3.553   4.991 -0.0228  0.9048  0.0479
14870TIP3   OH266100   2.679   4.780   2.598  0.1136  0.5455  0.4148
14870TIP3    H166101   2.768   4.809   2.582  0.4458 -0.8876 -0.4340
14870TIP3    H266102   2.629   4.811   2.522  0.3242 -0.4550 -0.1408
14871TIP3   OH266103   4.679   5.456   2.129  0.2762 -0.0711  0.6320
14871TIP3    H166104   4.752   5.486   2.076  0.8763 -0.5193  1.1953
14871TIP3    H266105   4.618   5.530   2.130  0.0601 -0.2136 -1.0163
14872TIP3   OH266106   5.327   5.886   1.101 -0.7282  0.3600  0.7574
14872TIP3    H166107   5.423   5.883   1.101 -0.7175  0.5117  0.1813
14872TIP3    H266108   5.300   5.795   1.115 -0.4771 -0.0649 -1.2775
14873TIP3   OH266109   2.998   2.850   2.471 -0.2602 -0.2075 -0.3184
14873TIP3    H166110   2.909   2.825   2.448 -0.6087 -0.5019  1.3707
14873TIP3    H266111   3.038   2.770   2.505  1.1087 -0.4441 -2.3837
14874TIP3   OH266112   5.305   3.129   4.974 -0.2795 -0.3536  0.0010
14874TIP3    H166113   5.283   3.054   5.030 -2.0309 -0.0559 -0.2451
14874TIP3    H266114   5.225   3.181   4.972  0.5984  0.9860 -0.6795
14875TIP3   OH266115   2.776   5.894   2.963  0.3834 -0.1777 -0.3541
14875TIP3    H166116   2.866   5.884   2.934 -0.2258  0.4042 -2.6202
14875TIP3    H266117   2.774   5.859   3.052  3.5655  2.9137  1.0448
14876TIP3   OH266118   7.160   5.946   3.077 -0.0454  0.3272  0.1425
14876TIP3    H166119   7.124   5.879   3.019  1.3186 -0.9254  0.7183
14876TIP3    H266120   7.150   5.910   3.165  3.2713 -0.3920  0.2704
14877TIP3   OH266121   5.237   3.121   2.810  0.3331 -0.1008  0.4293
14877TIP3    H166122   5.312   3.136   2.752  0.6332 -1.4073  0.4637
14877TIP3    H266123   5.268   3.148   2.897  0.8971 -0.9333  0.5035
14878TIP3   OH266124   5.611   0.477   1.891  0.4093  0.2127  0.1859
14878TIP3    H166125   5.535   0.429   1.857  1.2825 -1.5906  0.7487
14878TIP3    H266126   5.680   0.412   1.897  2.1012  1.8861 -0.5355
14879TIP3   OH266127   4.624   4.285   3.928  0.1918 -0.5068 -0.0735
14879TIP3    H166128   4.644   4.200   3.888 -0.4925 -0.1124 -1.2776
14879TIP3    H266129   4.691   4.344   3.894  1.0429 -0.6777  1.2504
14880TIP3   OH266130   4.751   2.447   2.294  0.4580 -0.9234  0.6570
14880TIP3    H166131   4.818   2.381   2.310  0.4369 -0.9188  0.7636
14880TIP3    H266132   4.776   2.521   2.349  2.9981  0.9129 -2.7663
14881TIP3   OH266133   5.694   4.130   4.329  0.9963  0.4656 -0.0467
14881TIP3    H166134   5.769   4.081   4.295  1.2864 -0.1521  1.4496
14881TIP3    H266135   5.728   4.178   4.404 -0.4293 -1.0310  1.6149
14882TIP3   OH266136   5.128   0.481   3.671 -0.5365 -0.2795 -0.4797
14882TIP3    H166137   5.199   0.506   3.611  0.4743  2.2718  1.6986
14882TIP3    H266138   5.163   0.407   3.720 -0.7460 -1.3094 -1.8491
14883TIP3   OH266139   5.671   4.436   0.179  0.2709 -0.5587  0.3737
14883TIP3    H166140   5.748   4.487   0.154 -0.3419  0.9813  1.5440
14883TIP3    H266141   5.599   4.477   0.131 -0.3018 -0.0001  1.7006
14884TIP3   OH266142   5.811   2.427   5.309  0.4444  0.1801 -0.5914
14884TIP3    H166143   5.855   2.511   5.322  0.0493  0.3663 -0.4654
14884TIP3    H266144   5.881   2.362   5.317  0.5617  0.4274  0.3640
14885TIP3   OH266145   5.405   0.368   1.557 -0.1072 -0.4168 -0.3318
14885TIP3    H166146   5.431   0.358   1.466  0.3853  1.1914 -0.3900
14885TIP3    H266147   5.343   0.297   1.573  0.1248 -0.9591 -1.7866
14886TIP3   OH266148   5.229   1.437   4.805  0.1587  0.1810 -0.1083
14886TIP3    H166149   5.300   1.430   4.740  0.2218 -1.9545  0.1402
14886TIP3    H266150   5.259   1.383   4.878 -0.8896  0.8124  0.7931
14887TIP3   OH266151   2.848   4.821   2.899  0.2786 -0.1749 -0.2602
14887TIP3    H166152   2.918   4.872   2.940  0.9900 -1.9979  0.8384
14887TIP3    H266153   2.893   4.759   2.842 -0.5956  0.4936 -1.7116
14888TIP3   OH266154   4.069   3.119   3.757  0.1068  0.4198  0.8933
14888TIP3    H166155   4.088   3.029   3.731  0.0251  0.0570  2.0683
14888TIP3    H266156   3.990   3.113   3.811 -0.2004  1.2602  0.5559
14889TIP3   OH266157   4.087   4.305   3.484  0.4745  0.5776 -0.5708
14889TIP3    H166158   3.993   4.296   3.501  0.7029  1.7711  1.4016
14889TIP3    H266159   4.100   4.399   3.469  1.4411  0.4943 -0.2633
14890TIP3   OH266160   5.222   3.330   2.319  0.0603 -0.5538 -0.6985
14890TIP3    H166161   5.293   3.272   2.292  0.5998 -1.5339  2.6232
14890TIP3    H266162   5.263   3.415   2.332  0.2620 -0.6514 -0.6932
14891TIP3   OH266163   7.209   3.957   2.821  0.2504  0.6059 -0.7129
14891TIP3    H166164   7.288   3.946   2.768  0.7925  2.2456 -0.2701
14891TIP3    H266165   7.212   3.884   2.883  1.7518  0.9921 -0.3038
14892TIP3   OH266166   4.340   3.205   3.680 -0.1115  0.3342 -0.2277
14892TIP3    H166167   4.257   3.225   3.722  0.0847  1.3292 -0.3015
14892TIP3    H266168   4.375   3.290   3.653  2.0243  0.1711  1.8567
14893TIP3   OH266169   3.130   2.482   2.775  0.0284 -0.0636 -0.0934
14893TIP3    H166170   3.158   2.426   2.703  1.1636 -1.2258  1.2260
14893TIP3    H266171   3.212   2.508   2.818 -0.5568  1.7334 -0.0323
14894TIP3   OH266172   4.130   2.589   3.699 -0.4262 -0.0785  0.2252
14894TIP3    H166173   4.196   2.566   3.633 -1.1713  0.8467 -0.8643
14894TIP3    H266174   4.076   2.510   3.707  0.7477 -0.8010  1.0437
14895TIP3   OH266175   4.873   1.487   4.039 -0.0298  0.2913 -0.1342
14895TIP3    H166176   4.848   1.572   4.076 -0.3635  0.7515 -1.3948
14895TIP3    H266177   4.811   1.426   4.079 -0.8032  0.8743 -0.4167
14896TIP3   OH266178   5.755   0.573   3.886 -0.3182  0.1614 -0.0785
14896TIP3    H166179   5.794   0.659   3.900 -0.8647  0.4089 -0.0418
14896TIP3    H266180   5.673   0.591   3.839  1.2484 -0.6368 -3.2398
14897TIP3   OH266181   7.055   1.883   4.032  0.3806  0.3477  1.0750
14897TIP3    H166182   7.149   1.875   4.042  0.9446  3.0244 -1.5135
14897TIP3    H266183   7.038   1.858   3.941 -1.6639 -1.8363  2.0068
14898TIP3   OH266184   7.329   4.824   2.526 -0.4287  0.4515 -0.2719
14898TIP3    H166185   7.314   4.740   2.571 -0.5454 -1.5666 -3.8435
14898TIP3    H266186   7.266   4.884   2.566 -0.8211 -1.3240  1.8910
14899TIP3   OH266187   5.735   2.655   3.779 -0.4229  0.1397 -0.2776
14899TIP3    H166188   5.760   2.748   3.775  0.2407  0.0415  1.3327
14899TIP3    H266189   5.758   2.620   3.693 -0.5530  1.4380 -0.8494
14900TIP3   OH266190   2.487   3.375   1.626  0.3026  1.0328  0.0949
14900TIP3    H166191   2.443   3.387   1.542 -0.0820  1.9253  0.4251
14900TIP3    H266192   2.575   3.345   1.602 -0.5730 -1.1562 -0.5590
14901TIP3   OH266193   6.345   1.103   3.233 -0.2999 -0.0366 -0.2726
14901TIP3    H166194   6.386   1.130   3.152  0.6794 -0.5552  0.0358
14901TIP3    H266195   6.418   1.092   3.294 -0.8647 -1.2510  0.2012
14902TIP3   OH266196   5.573   4.839   3.463 -0.4621 -0.6846  0.0525
14902TIP3    H166197   5.610   4.927   3.465  0.1867 -0.9053 -1.5919
14902TIP3    H266198   5.595   4.802   3.549  0.1545  0.3971  0.3668
14903TIP3   OH266199   2.684   2.643   2.766 -0.2035 -0.2923 -0.1643
14903TIP3    H166200   2.759   2.702   2.768 -2.0757  2.1206  1.9531
14903TIP3    H266201   2.675   2.612   2.856 -3.1875  1.4455  0.2156
14904TIP3   OH266202   3.168   1.591   5.398 -0.1003  0.3044 -0.0090
14904TIP3    H166203   3.131   1.629   5.318 -1.3167  1.2293  0.9804
14904TIP3    H266204   3.141   1.500   5.396 -1.6052  0.7266  0.1930
14905TIP3   OH266205   3.685   4.077   2.209 -0.1644  0.1841 -0.2256
14905TIP3    H166206   3.718   4.024   2.281 -1.8884  0.6484  0.9445
14905TIP3    H266207   3.695   4.022   2.131  2.1440 -0.1296  0.2827
14906TIP3   OH266208   1.967   3.964   2.541 -0.2419 -0.1161  0.2516
14906TIP3    H166209   1.976   4.018   2.463 -0.2515 -0.9833 -0.3629
14906TIP3    H266210   1.980   3.874   2.509  0.5026 -0.4160  1.3648
14907TIP3   OH266211   7.159   2.427   4.030  0.0260  0.3837  0.3051
14907TIP3    H166212   7.220   2.461   3.965 -0.0283  2.5724  1.3606
14907TIP3    H266213   7.141   2.501   4.088  0.3518 -1.5886  3.0390
14908TIP3   OH266214   2.490   5.881   3.843 -0.9706 -1.1296 -0.5994
14908TIP3    H166215   2.474   5.894   3.937 -0.4377 -0.7251 -0.5655
14908TIP3    H266216   2.426   5.938   3.800 -0.0776 -0.0072 -0.4645
14909TIP3   OH266217   4.716   1.277   5.323 -0.1284  0.1666  0.3080
14909TIP3    H166218   4.769   1.356   5.311  0.7941 -0.2800  1.2902
14909TIP3    H266219   4.739   1.222   5.248 -1.6634  1.2991 -1.0125
14910TIP3   OH266220   4.926   1.910   2.696 -0.1319  0.0647 -0.0545
14910TIP3    H166221   4.978   1.851   2.751 -0.5401 -0.5527 -0.3262
14910TIP3    H266222   4.908   1.860   2.617  2.6667  1.8388 -1.9469
14911TIP3   OH266223   6.195   5.195   2.538  0.8212  0.8237  0.5068
14911TIP3    H166224   6.227   5.174   2.450  0.7756  0.1922  0.6338
14911TIP3    H266225   6.168   5.286   2.533  1.3037  0.9386  0.0057
14912TIP3   OH266226   6.748   3.535   0.021 -0.0572 -0.2311 -0.4642
14912TIP3    H166227   6.762   3.483  -0.058  1.6267 -3.0905  1.6067
14912TIP3    H266228   6.660   3.510   0.051  0.0935 -0.6672 -0.3787
14913TIP3   OH266229   4.943   2.005   0.906  0.0704  0.2927 -0.1881
14913TIP3    H166230   5.001   2.080   0.917 -0.3373  0.7244 -0.9771
14913TIP3    H266231   4.867   2.025   0.961  0.2160  0.1897  0.0525
14914TIP3   OH266232   4.015   3.755   4.243  0.0070  0.2186 -0.2771
14914TIP3    H166233   4.003   3.850   4.247 -0.9601  0.0229  2.5159
14914TIP3    H266234   4.110   3.743   4.240  0.2304  1.2443  1.8392
14915TIP3   OH266235   5.099   5.027   0.332  0.3456 -0.2384  0.2838
14915TIP3    H166236   5.133   5.039   0.420  0.3313  0.7211  0.1620
14915TIP3    H266237   5.177   5.020   0.277  0.3595 -1.2485  0.4154
14916TIP3   OH266238   5.900   1.981   2.117 -0.0100 -0.1953  0.4291
14916TIP3    H166239   5.970   2.018   2.170  0.8249 -0.7333 -0.2810
14916TIP3    H266240   5.882   2.047   2.050 -0.3252  0.0311  0.7372
14917TIP3   OH266241   3.452   3.454   5.452 -0.6588  0.1079  0.3390
14917TIP3    H166242   3.498   3.537   5.446 -1.4942  0.4869 -1.0353
14917TIP3    H266243   3.420   3.451   5.542 -1.8238  1.9372  0.0088
14918TIP3   OH266244   5.921   0.495   5.297 -0.9180 -0.3091 -0.5294
14918TIP3    H166245   6.002   0.539   5.320 -0.8156 -1.2620  1.0080
14918TIP3    H266246   5.931   0.473   5.204 -0.0425  0.8622 -0.7202
14919TIP3   OH266247   5.437   4.077   0.831 -0.0242 -0.0274 -0.6963
14919TIP3    H166248   5.498   4.037   0.892 -0.2859  0.2466 -0.2534
14919TIP3    H266249   5.364   4.106   0.885 -1.4384 -2.0612 -1.4475
14920TIP3   OH266250   4.833   1.422   1.660 -0.2149 -0.4887 -0.6503
14920TIP3    H166251   4.751   1.425   1.710 -0.2311  0.2429 -0.7132
14920TIP3    H266252   4.841   1.510   1.623  0.0049 -0.8987 -1.5984
14921TIP3   OH266253   4.382   2.577   4.338 -0.4973  0.0576 -0.1828
14921TIP3    H166254   4.309   2.608   4.283 -0.5540  0.0334 -0.1212
14921TIP3    H266255   4.378   2.633   4.416  0.4767  1.0637 -0.8365
14922TIP3   OH266256   1.752   4.370   4.132 -0.4846  0.4113  0.2123
14922TIP3    H166257   1.815   4.410   4.191 -0.2553  0.1599  0.1371
14922TIP3    H266258   1.797   4.294   4.095 -0.8430  0.2059  0.1908
14923TIP3   OH266259   4.471   3.696   1.812 -0.1407 -0.0179  0.0901
14923TIP3    H166260   4.451   3.764   1.876  2.0000  0.5575  0.1770
14923TIP3    H266261   4.438   3.730   1.729  0.0841  0.7191  0.3030
14924TIP3   OH266262   4.620   1.348   3.410  0.8891 -0.0978  0.2934
14924TIP3    H166263   4.605   1.371   3.318  1.6011  1.5681  0.5682
14924TIP3    H266264   4.541   1.301   3.435  0.5643 -0.3346 -1.1022
14925TIP3   OH266265   3.378   1.211   1.311  0.4025 -0.0739  0.0440
14925TIP3    H166266   3.385   1.277   1.380 -2.8362 -0.4678  0.8546
14925TIP3    H266267   3.284   1.203   1.295  0.8479 -2.9600 -1.5132
14926TIP3   OH266268   4.533   2.948   2.435 -0.4920  0.3621  0.2918
14926TIP3    H166269   4.521   3.022   2.494  1.0525 -0.4492  1.6755
14926TIP3    H266270   4.594   2.979   2.368 -0.7771  0.7063  0.1934
14927TIP3   OH266271   5.560   0.383   2.839 -0.6840  0.2978 -0.1118
14927TIP3    H166272   5.474   0.356   2.870 -0.5891  1.0604  0.8612
14927TIP3    H266273   5.543   0.463   2.789 -0.7732 -0.6487 -1.6223
14928TIP3   OH266274   5.133   6.782   1.561 -0.4936 -0.2122 -0.3571
14928TIP3    H166275   5.155   6.875   1.554 -1.1076  0.0726  1.1118
14928TIP3    H266276   5.207   6.743   1.608 -0.9252 -0.1555  0.3899
14929TIP3   OH266277   6.888   5.429   2.775  0.1411 -0.4349  0.3952
14929TIP3    H166278   6.823   5.467   2.834 -1.3067 -0.2575 -1.2657
14929TIP3    H266279   6.901   5.496   2.708  0.9074 -1.0949 -0.1219
14930TIP3   OH266280   3.156   4.516   5.448 -0.2014 -0.2004  0.3570
14930TIP3    H166281   3.185   4.433   5.410  0.8865  0.0894  0.5490
14930TIP3    H266282   3.061   4.507   5.455 -0.4160 -0.3751 -2.1817
14931TIP3   OH266283   6.697   2.528   2.897  0.1498  0.3081 -0.0954
14931TIP3    H166284   6.750   2.574   2.962 -1.4747  0.0603  1.4590
14931TIP3    H266285   6.732   2.439   2.896 -0.9033 -0.1637  1.7511
14932TIP3   OH266286   4.591   1.028   3.692  0.7295  0.2796  0.1609
14932TIP3    H166287   4.544   1.015   3.775 -0.2634 -3.3419 -0.8833
14932TIP3    H266288   4.531   1.079   3.639 -0.1605 -0.4835  0.4207
14933TIP3   OH266289   7.115   1.453   2.302  0.1651  0.2441 -0.2619
14933TIP3    H166290   7.197   1.424   2.343  0.1724  1.0321  0.2933
14933TIP3    H266291   7.136   1.538   2.264 -0.6630  0.9189  0.7684
14934TIP3   OH266292   4.664   1.181   4.652 -0.7451  0.3000  0.0041
14934TIP3    H166293   4.714   1.257   4.679 -0.9871  1.3513 -2.3314
14934TIP3    H266294   4.596   1.217   4.595 -0.3440 -1.7221 -1.8124
14935TIP3   OH266295   5.562   3.051   1.931  0.2809  0.1475  0.1619
14935TIP3    H166296   5.566   3.002   1.849  0.5396 -2.0095  1.4271
14935TIP3    H266297   5.639   3.022   1.980 -2.2393 -2.0243  2.9963
14936TIP3   OH266298   6.473   2.094   0.993 -0.2381 -0.9014  0.0284
14936TIP3    H166299   6.562   2.084   1.029 -0.0810 -1.2766 -0.4511
14936TIP3    H266300   6.486   2.141   0.911 -0.5178 -0.6762  0.1163
14937TIP3   OH266301   3.527   4.429   4.922  0.2811  0.3048  0.2117
14937TIP3    H166302   3.556   4.355   4.974  2.1709 -0.5183 -1.9680
14937TIP3    H266303   3.444   4.400   4.883  2.0534 -1.5412 -2.3450
14938TIP3   OH266304   4.968   1.483   2.417  0.1135 -0.0259 -0.1280
14938TIP3    H166305   4.899   1.441   2.366  1.5285  0.1531 -2.2613
14938TIP3    H266306   4.929   1.498   2.503 -2.5169  0.1018 -1.2983
14939TIP3   OH266307   3.407   3.736   2.374  0.1217 -0.5127  0.4567
14939TIP3    H166308   3.433   3.821   2.409  0.7309  0.3853 -2.0405
14939TIP3    H266309   3.372   3.756   2.287  1.1180 -2.8971 -0.5387
14940TIP3   OH266310   2.692   4.674   2.086 -0.4305  0.6238 -0.3019
14940TIP3    H166311   2.652   4.613   2.024  0.7422 -1.1715  0.6461
14940TIP3    H266312   2.759   4.720   2.035  0.7830 -1.1041 -0.3080
14941TIP3   OH266313   5.399   2.018   3.707 -0.0999  0.4628  0.8318
14941TIP3    H166314   5.307   2.017   3.680 -0.2928 -0.0864  1.4917
14941TIP3    H266315   5.417   1.927   3.730  0.1846  0.8477  2.1467
14942TIP3   OH266316   6.134   4.236   3.756 -0.4457  1.1892 -0.2586
14942TIP3    H166317   6.073   4.250   3.683  0.2744 -0.7914 -1.2799
14942TIP3    H266318   6.217   4.216   3.713 -0.4777 -2.0130  1.0585
14943TIP3   OH266319   4.498   3.359   2.313  0.8821 -0.3900 -0.0844
14943TIP3    H166320   4.463   3.277   2.279  1.3170 -0.1812 -1.0459
14943TIP3    H266321   4.444   3.427   2.271  0.0445 -0.2113  1.2668
14944TIP3   OH266322   3.995   2.023   1.327  0.3175  0.4038 -0.0238
14944TIP3    H166323   4.046   2.043   1.405  1.1614 -2.4152  0.2145
14944TIP3    H266324   4.042   1.951   1.285 -0.8051  1.0358 -2.4722
14945TIP3   OH266325   2.746   4.694   3.123  0.1969 -0.0858  0.3556
14945TIP3    H166326   2.739   4.603   3.094 -0.1315  0.1735 -0.3953
14945TIP3    H266327   2.768   4.742   3.043 -1.5474  0.7502  0.3619
14946TIP3   OH266328   0.081   5.203   2.331 -0.3032  0.1274 -0.8484
14946TIP3    H166329   0.119   5.192   2.243 -1.1557  2.0224 -1.4741
14946TIP3    H266330   0.003   5.256   2.317 -1.6096 -1.2903  0.8141
14947TIP3   OH266331   5.327   4.042   3.529  0.3822 -0.2399  0.1957
14947TIP3    H166332   5.270   4.114   3.555 -0.3339 -0.7661  0.0743
14947TIP3    H266333   5.274   3.987   3.472  0.9948 -0.7519  0.1058
14948TIP3   OH266334   2.576   0.963   3.721  0.3204 -0.2709 -0.2265
14948TIP3    H166335   2.609   1.043   3.679 -0.0505  0.0088  0.0055
14948TIP3    H266336   2.611   0.966   3.810 -1.5304  0.8010  0.5018
14949TIP3   OH266337   5.852   5.358   1.712  0.1450  0.4718  0.4462
14949TIP3    H166338   5.939   5.356   1.752  0.2116 -0.4924  0.2716
14949TIP3    H266339   5.852   5.437   1.658  1.3244 -0.1166 -0.4463
14950TIP3   OH266340   5.658   4.269   4.007 -0.2487 -0.0298  0.2195
14950TIP3    H166341   5.662   4.283   4.102 -0.5275 -1.2488  0.4266
14950TIP3    H266342   5.750   4.259   3.981 -0.0438  2.0426  0.0630
14951TIP3   OH266343   5.422   3.810   4.745 -0.0567 -0.0989 -0.0526
14951TIP3    H166344   5.431   3.900   4.714  2.2932  0.1638  1.2162
14951TIP3    H266345   5.337   3.781   4.712 -0.9999  2.6873 -0.2021
14952TIP3   OH266346   7.155   4.899   3.808 -0.2878 -0.5424 -0.6829
14952TIP3    H166347   7.226   4.896   3.872 -0.8640 -0.2970 -0.0332
14952TIP3    H266348   7.118   4.810   3.810 -0.1493 -0.6056 -0.8578
14953TIP3   OH266349   4.003   0.642   2.856  0.2196 -0.8154  0.0524
14953TIP3    H166350   4.079   0.605   2.811  1.5260  0.5042  1.1020
14953TIP3    H266351   3.972   0.572   2.913  0.4601 -1.4767 -0.6300
14954TIP3   OH266352   4.075   2.963   2.354 -0.3431  0.2417 -0.0118
14954TIP3    H166353   4.129   3.035   2.320  0.4418 -0.0883  0.5292
14954TIP3    H266354   3.987   2.981   2.320 -0.3190  1.8815  0.7643
14955TIP3   OH266355   0.268   3.789   2.725  0.5613  0.0780  0.0309
14955TIP3    H166356   0.338   3.752   2.671  2.5431  1.3175  1.6877
14955TIP3    H266357   0.212   3.836   2.662 -0.3165 -3.0482 -1.6723
14956TIP3   OH266358   4.519   3.002   4.516 -0.0897 -0.3679 -0.7844
14956TIP3    H166359   4.469   3.027   4.593 -1.0252  0.9931 -1.8145
14956TIP3    H266360   4.453   2.976   4.452  0.5875  0.0191 -1.6513
14957TIP3   OH266361   6.444   3.975   4.672 -0.1555  0.7730  0.4904
14957TIP3    H166362   6.430   3.988   4.578  2.5574  0.5573  0.0118
14957TIP3    H266363   6.490   4.054   4.700 -1.9558  1.3529  1.9067
14958TIP3   OH266364   2.606   2.014   1.126  0.1094  0.2340 -0.2127
14958TIP3    H166365   2.611   2.073   1.201 -0.5532  0.0690 -0.0344
14958TIP3    H266366   2.514   1.986   1.124  0.2096 -0.0480 -0.8620
14959TIP3   OH266367   4.964   5.998   4.083 -0.4493 -0.3496  0.0358
14959TIP3    H166368   5.034   5.939   4.055 -1.8922 -1.7467 -0.6841
14959TIP3    H266369   4.994   6.034   4.167  2.4399  1.3129 -1.6079
14960TIP3   OH266370   2.416   3.937   2.545  0.0797 -0.1847  0.0718
14960TIP3    H166371   2.492   3.933   2.604  0.4712  2.0488 -0.2452
14960TIP3    H266372   2.390   4.029   2.546 -1.1758 -0.5123 -1.6735
14961TIP3   OH266373   6.134   2.268   1.488 -0.2522  0.3453  0.5219
14961TIP3    H166374   6.118   2.193   1.431  1.6791 -1.0094  1.6864
14961TIP3    H266375   6.216   2.306   1.455 -1.1281  1.8700  0.0435
14962TIP3   OH266376   2.959   2.910   1.526  0.3998  0.8866  0.1187
14962TIP3    H166377   2.988   2.851   1.597 -1.5579  0.6950  0.7757
14962TIP3    H266378   2.938   2.851   1.454  1.8889  1.0482 -0.4686
14963TIP3   OH266379   4.706   1.900   2.276 -0.7773 -0.2724 -0.0715
14963TIP3    H166380   4.770   1.916   2.207 -0.7361 -0.4609 -0.0778
14963TIP3    H266381   4.662   1.984   2.288  0.9603  0.4679  1.4532
14964TIP3   OH266382   2.843   3.242   3.009 -0.0042 -0.3921 -0.3638
14964TIP3    H166383   2.793   3.307   3.058 -0.7501 -0.5626 -0.8860
14964TIP3    H266384   2.786   3.165   3.008  0.5583 -0.8109 -0.3865
14965TIP3   OH266385   4.767   4.095   4.365  0.3881 -0.0029 -0.4016
14965TIP3    H166386   4.820   4.015   4.369 -1.5638 -1.3366 -0.5998
14965TIP3    H266387   4.760   4.123   4.456  0.9349 -0.1500 -0.3117
14966TIP3   OH266388   7.336   1.437   1.733 -0.4313  0.1050 -0.2490
14966TIP3    H166389   7.247   1.421   1.763 -0.9282  2.1791 -0.5530
14966TIP3    H266390   7.343   1.391   1.650 -1.3266  0.2339 -0.3903
14967TIP3   OH266391   4.883   0.595   3.688 -0.2017  0.2479 -0.5007
14967TIP3    H166392   4.953   0.531   3.699  1.3540  1.8324 -0.7505
14967TIP3    H266393   4.895   0.628   3.599  1.1209  3.1927  0.6808
14968TIP3   OH266394   3.027   3.643   0.595 -0.6071 -0.3038  0.0974
14968TIP3    H166395   2.971   3.621   0.521 -0.6043 -0.9362  0.2857
14968TIP3    H266396   2.969   3.637   0.671 -0.2992 -0.8743  0.2826
14969TIP3   OH266397   4.806   3.766   2.854  0.0587  0.0607  0.2560
14969TIP3    H166398   4.806   3.851   2.896 -2.2205 -0.4512  1.3474
14969TIP3    H266399   4.834   3.705   2.922 -1.1724 -0.4333  0.3357
14970TIP3   OH266400   4.010   2.888   2.776  0.2302  0.7845 -0.2618
14970TIP3    H166401   4.067   2.965   2.784  1.9254 -0.3641 -1.1148
14970TIP3    H266402   4.049   2.823   2.834  0.5446 -0.4530 -1.8458
14971TIP3   OH266403   4.774   3.076   3.629 -0.1738  0.2601 -0.2757
14971TIP3    H166404   4.758   3.001   3.686  0.2364 -0.0589 -0.5828
14971TIP3    H266405   4.844   3.125   3.672  0.6109 -0.3472 -0.8561
14972TIP3   OH266406   5.707   2.645   2.591  0.9344  0.4050  0.3791
14972TIP3    H166407   5.727   2.735   2.566 -1.7958  1.1811  0.8524
14972TIP3    H266408   5.708   2.646   2.687  1.1768 -0.1310  0.3807
14973TIP3   OH266409   3.493   5.756   1.323  0.4031 -0.0887  0.2760
14973TIP3    H166410   3.481   5.664   1.350 -0.0590  0.1373  0.8537
14973TIP3    H266411   3.449   5.761   1.238 -0.4262 -0.1674  0.6944
14974TIP3   OH266412   2.978   2.715   2.751 -0.0641  0.4811  0.5423
14974TIP3    H166413   3.042   2.776   2.788  0.1562  0.5388  0.0729
14974TIP3    H266414   3.022   2.630   2.752 -0.3955  0.3188  1.2560
14975TIP3   OH266415   2.724   3.771   3.839 -0.1520 -0.2662 -0.1143
14975TIP3    H166416   2.678   3.698   3.798 -0.1583 -0.5905  0.4652
14975TIP3    H266417   2.716   3.754   3.933 -1.5453  1.3099  0.0781
14976TIP3   OH266418   5.014   0.986   3.969 -0.5431  0.2713  0.1399
14976TIP3    H166419   5.055   1.011   3.887  0.5918  1.0335  0.9154
14976TIP3    H266420   4.975   0.900   3.952 -0.0688  0.2911 -1.0912
14977TIP3   OH266421   5.168   3.190   1.980  0.5227 -0.1355 -0.2325
14977TIP3    H166422   5.242   3.248   1.965 -0.9918  1.7540 -0.5957
14977TIP3    H266423   5.186   3.113   1.927  1.5176  0.9298 -1.4489
14978TIP3   OH266424   4.338   3.667   5.517  0.3658 -0.3785 -0.3981
14978TIP3    H166425   4.356   3.593   5.574  0.0466 -0.7273 -0.7465
14978TIP3    H266426   4.333   3.742   5.576  0.1546 -0.7173  0.0199
14979TIP3   OH266427   3.991   3.806   5.422  0.0043  0.4133 -0.5732
14979TIP3    H166428   4.042   3.770   5.349  1.2995  1.2115 -0.0824
14979TIP3    H266429   4.003   3.744   5.493 -0.0374  0.3949 -0.5824
14980TIP3   OH266430   1.175   4.289   0.349 -0.1924 -0.2111 -0.2029
14980TIP3    H166431   1.197   4.297   0.442  0.3113  2.2421 -0.5129
14980TIP3    H266432   1.151   4.197   0.339 -1.3580 -0.2927  2.6059
14981TIP3   OH266433   2.587   4.412   4.120  0.3705  0.8102 -0.2584
14981TIP3    H166434   2.511   4.468   4.135 -0.2108  0.8307 -3.0333
14981TIP3    H266435   2.551   4.323   4.123  0.4605  0.7696 -0.3675
14982TIP3   OH266436   4.094   1.854   1.937 -0.1406 -0.1441 -0.4596
14982TIP3    H166437   4.076   1.943   1.966  0.4248 -0.1373 -0.1209
14982TIP3    H266438   4.041   1.798   1.993 -0.1214 -0.0481 -0.3463
14983TIP3   OH266439   4.538   2.144   2.453 -0.2160  0.8868 -0.3892
14983TIP3    H166440   4.627   2.167   2.480 -0.3108 -0.1366  0.8405
14983TIP3    H266441   4.485   2.159   2.532 -0.5475 -1.8876 -0.0262
14984TIP3   OH266442   3.842   2.143   3.911  0.6623  0.2126  0.0121
14984TIP3    H166443   3.886   2.122   3.994  0.0669  1.1273  0.5703
14984TIP3    H266444   3.752   2.164   3.936  0.7553  1.5664 -0.7282
14985TIP3   OH266445   4.946   3.341   4.037 -0.1584  0.2680 -0.1183
14985TIP3    H166446   4.950   3.326   4.131 -0.0253 -0.9353 -0.3100
14985TIP3    H266447   4.871   3.399   4.025  0.5497  1.3827  0.8427
14986TIP3   OH266448   4.954   2.993   3.052  0.5386 -0.3234 -0.4849
14986TIP3    H166449   4.911   2.916   3.091  0.6832  0.0591  0.4266
14986TIP3    H266450   5.000   2.958   2.976 -0.1907 -0.9838 -0.6341
14987TIP3   OH266451   2.570   5.475   2.327  0.4368  0.2153  0.8421
14987TIP3    H166452   2.660   5.479   2.358  0.6544 -1.3766  0.4353
14987TIP3    H266453   2.562   5.549   2.267  2.7958 -2.1319 -2.5075
14988TIP3   OH266454   3.605   4.708   4.824  0.1282 -0.5297  0.6197
14988TIP3    H166455   3.604   4.618   4.790 -0.2014 -0.3439  0.1291
14988TIP3    H266456   3.698   4.726   4.838  0.3430 -0.3611 -0.8788
14989TIP3   OH266457   3.626   1.499   2.664 -0.2836  0.4683 -0.3071
14989TIP3    H166458   3.638   1.411   2.700 -0.9536  0.5987  0.2230
14989TIP3    H266459   3.602   1.484   2.572  0.4688  0.1227 -0.4526
14990TIP3   OH266460   4.240   4.293   3.254  0.6021  0.0696 -0.1395
14990TIP3    H166461   4.170   4.333   3.202 -0.0134 -2.4879 -1.3316
14990TIP3    H266462   4.203   4.286   3.342  0.3188  1.0976 -0.1681
14991TIP3   OH266463   4.434   1.759   2.100 -0.1072  0.0596  0.2334
14991TIP3    H166464   4.526   1.744   2.076 -0.0621  0.9436 -0.1499
14991TIP3    H266465   4.430   1.852   2.122 -0.3677 -0.5228  2.7147
14992TIP3   OH266466   3.441   4.312   3.462 -0.1189 -0.2015  0.2817
14992TIP3    H166467   3.370   4.331   3.523 -1.4209  1.2867 -1.6315
14992TIP3    H266468   3.466   4.222   3.482 -1.5941 -0.2839  1.9299
14993TIP3   OH266469   2.174   2.540   3.676  0.1838 -0.1759  0.5749
14993TIP3    H166470   2.252   2.499   3.713 -1.1175 -1.2672  2.1742
14993TIP3    H266471   2.100   2.499   3.723 -1.3827  0.3582 -1.3444
14994TIP3   OH266472   4.831   3.512   2.603  0.2654  0.0362  0.0098
14994TIP3    H166473   4.761   3.465   2.559 -0.9249  1.2018  0.6256
14994TIP3    H266474   4.818   3.495   2.696  1.1785 -0.2610  0.0873
14995TIP3   OH266475   5.749   3.059   0.608 -0.1148  0.1832  0.4761
14995TIP3    H166476   5.730   3.105   0.689 -1.3724  2.1937 -0.9107
14995TIP3    H266477   5.765   3.129   0.544  1.4406 -1.3646 -0.8730
14996TIP3   OH266478   7.029   5.323   3.257  0.6263 -0.3806  0.0956
14996TIP3    H166479   6.994   5.379   3.188  0.1351 -0.3331  0.3850
14996TIP3    H266480   6.987   5.238   3.243  1.0391 -0.5555 -0.0763
14997TIP3   OH266481   6.528   4.345   3.808 -0.2593  0.0153 -0.0616
14997TIP3    H166482   6.541   4.279   3.875  2.8132 -0.9238 -1.5265
14997TIP3    H266483   6.524   4.296   3.726 -1.2459  1.3730 -0.8476
14998TIP3   OH266484   3.676   6.000   2.337 -0.3357 -0.3014 -0.0857
14998TIP3    H166485   3.745   6.043   2.388 -1.4591 -0.4283  1.5728
14998TIP3    H266486   3.721   5.932   2.287  0.9512  0.5993 -0.1716
14999TIP3   OH266487   3.503   4.003   4.699  0.8061  0.5669 -0.4018
14999TIP3    H166488   3.587   3.963   4.676  0.0883 -0.8442 -0.6320
14999TIP3    H266489   3.475   3.955   4.777  0.4646  1.3878 -0.0200
15000TIP3   OH266490   4.928   0.963   5.830  0.4271 -0.5675 -0.2878
15000TIP3    H166491   4.952   1.049   5.796 -1.6587 -0.1638 -0.7948
15000TIP3    H266492   4.996   0.943   5.894  0.9454  1.4480 -0.1728
15001TIP3   OH266493   6.292   2.559   4.013 -0.1698  0.4990  0.5620
15001TIP3    H166494   6.243   2.639   3.991  0.7919  0.3188 -2.4127
15001TIP3    H266495   6.270   2.498   3.943  2.0506 -0.5625  0.7584
15002TIP3   OH266496   6.032   1.354   2.511  0.0235  0.4666 -0.2629
15002TIP3    H166497   6.127   1.357   2.521  0.1841 -3.1172 -0.2383
15002TIP3    H266498   6.019   1.328   2.420 -0.8820 -1.3759  0.3762
15003TIP3   OH266499   5.384   2.166   4.221  0.3855  0.1704  0.2736
15003TIP3    H166500   5.458   2.191   4.276  1.0669  0.5961 -0.8165
15003TIP3    H266501   5.314   2.227   4.245  0.6260  0.2440  0.7852
15004TIP3   OH266502   6.143   1.735   4.339  0.4699  0.6497 -0.3532
15004TIP3    H166503   6.099   1.810   4.380 -1.5319 -0.6584 -0.0019
15004TIP3    H266504   6.188   1.691   4.411 -0.9429 -0.2034  0.0508
15005TIP3   OH266505   5.319   1.838   4.764  1.0061  1.0245 -0.1087
15005TIP3    H166506   5.352   1.761   4.811 -0.0217 -0.3893 -1.6520
15005TIP3    H266507   5.352   1.828   4.675 -0.0004  1.8259 -0.5846
15006TIP3   OH266508   3.858   3.444   5.338  0.5150 -0.6873  0.6276
15006TIP3    H166509   3.821   3.529   5.362  0.9255 -0.1680 -0.5320
15006TIP3    H266510   3.949   3.449   5.368 -0.0327 -1.5589  2.5180
15007TIP3   OH266511   2.907   3.178   1.438  0.1242  0.1286 -0.2369
15007TIP3    H166512   2.949   3.172   1.353 -0.8520 -0.5453 -0.6798
15007TIP3    H266513   2.940   3.102   1.487 -1.1344 -0.8418 -0.8507
15008TIP3   OH266514   3.753   3.986   1.431 -0.4809  0.3715 -0.6497
15008TIP3    H166515   3.729   3.949   1.516  0.2874  0.3251 -0.4536
15008TIP3    H266516   3.802   4.066   1.452 -0.9477  0.7707 -1.0584
15009TIP3   OH266517   3.057   5.910   2.404 -0.5835  0.0512 -0.6702
15009TIP3    H166518   3.012   5.836   2.363  3.0176 -1.3215 -2.3411
15009TIP3    H266519   3.082   5.966   2.330  2.9839 -0.7345 -0.1322
15010TIP3   OH266520   2.538   6.896   3.041  0.9808 -0.0944  0.1354
15010TIP3    H166521   2.506   6.846   3.117  2.3221 -0.4700  0.4574
15010TIP3    H266522   2.511   6.845   2.965  0.9245 -0.4773  0.4108
15011TIP3   OH266523   4.573   3.695   2.361 -0.3930 -0.1708 -0.6663
15011TIP3    H166524   4.490   3.652   2.379 -0.1448 -0.4141 -0.0808
15011TIP3    H266525   4.607   3.718   2.448 -0.7802  1.6916 -0.9836
15012TIP3   OH266526   2.496   3.876   1.353 -0.0017 -0.1071 -0.4755
15012TIP3    H166527   2.568   3.837   1.403  0.9974  0.4484 -1.4604
15012TIP3    H266528   2.458   3.803   1.305 -0.6338 -0.5502  0.6770
15013TIP3   OH266529   6.151   3.761   5.543 -0.1285 -0.5096 -0.1149
15013TIP3    H166530   6.143   3.673   5.507 -0.1957 -0.5190 -0.0761
15013TIP3    H266531   6.218   3.803   5.489  0.4114 -0.8143  0.3089
15014TIP3   OH266532   5.902   4.266   1.295 -0.4136 -0.0460  0.3596
15014TIP3    H166533   5.807   4.274   1.289 -0.2943  0.7714 -0.4625
15014TIP3    H266534   5.916   4.188   1.349 -1.5495 -0.2807  0.3222
15015TIP3   OH266535   3.482   5.513   1.903  0.1252  1.0815 -0.2330
15015TIP3    H166536   3.497   5.559   1.820  2.0869  1.6038  0.3865
15015TIP3    H266537   3.563   5.525   1.952 -0.6779 -0.0059  1.4033
15016TIP3   OH266538   3.224   4.873   2.701 -0.5750 -0.3160  0.3250
15016TIP3    H166539   3.145   4.835   2.662 -0.6834  0.1779  0.0621
15016TIP3    H266540   3.289   4.803   2.696 -0.7100 -0.3902 -0.3604
15017TIP3   OH266541   5.240   1.867   1.058  0.0031 -0.0207 -0.9919
15017TIP3    H166542   5.252   1.929   1.130 -1.4766 -0.8378 -0.0006
15017TIP3    H266543   5.146   1.848   1.058  0.3969 -2.1235 -1.3681
15018TIP3   OH266544   5.252   3.933   1.113 -0.7640  0.2389  0.0527
15018TIP3    H166545   5.281   4.022   1.090 -0.7029  0.2321  0.1050
15018TIP3    H266546   5.311   3.875   1.064  0.6659  0.1904  1.7843
15019TIP3   OH266547   4.828   4.690   4.000  0.3572 -0.2185  0.1986
15019TIP3    H166548   4.745   4.735   4.014 -0.4121 -1.7168  0.5614
15019TIP3    H266549   4.893   4.760   3.996 -1.0348  1.0303 -0.9576
15020TIP3   OH266550   5.396   2.505   3.526  0.2131 -0.2071  0.1133
15020TIP3    H166551   5.305   2.493   3.499  0.0256 -0.1207  0.6929
15020TIP3    H266552   5.404   2.451   3.605  0.4790  0.3186  0.4427
15021TIP3   OH266553   4.515   1.548   3.587  0.5413  0.2299  0.2388
15021TIP3    H166554   4.566   1.554   3.668  2.5817  0.1256 -0.9948
15021TIP3    H266555   4.572   1.500   3.527 -0.7362  0.7588 -1.4282
15022TIP3   OH266556   4.417   2.960   5.103  0.3325 -0.4054  0.5562
15022TIP3    H166557   4.507   2.966   5.072 -0.4212 -2.1840 -2.2010
15022TIP3    H266558   4.414   2.881   5.156 -0.2478 -2.0787 -1.8989
15023TIP3   OH266559   5.027   4.189   5.097  0.3597  0.3632 -0.2889
15023TIP3    H166560   5.022   4.139   5.178 -2.8092  1.9661  0.5851
15023TIP3    H266561   5.111   4.234   5.102  0.7913 -0.5963  1.4648
15024TIP3   OH266562   0.942   2.658   0.160 -0.1349  0.0354  0.0340
15024TIP3    H166563   0.863   2.609   0.141 -0.1201  0.6306 -1.6478
15024TIP3    H266564   0.912   2.733   0.212 -0.5400 -0.2816  0.2533
15025TIP3   OH266565   4.273   3.726   4.167 -0.2584 -0.2620  0.2960
15025TIP3    H166566   4.282   3.764   4.079 -1.6466 -1.4885 -0.3978
15025TIP3    H266567   4.362   3.699   4.190 -0.0866 -1.2342 -1.3509
15026TIP3   OH266568   0.300   1.573   2.255 -0.3645  0.0979 -0.1126
15026TIP3    H166569   0.313   1.613   2.169 -1.9344 -0.7272 -0.7519
15026TIP3    H266570   0.242   1.634   2.301  0.6649  0.6583  0.4688
15027TIP3   OH266571   4.418   2.700   3.833  0.3667  0.4859 -0.2922
15027TIP3    H166572   4.496   2.663   3.793  0.0793  0.3927 -0.7723
15027TIP3    H266573   4.368   2.738   3.760  0.4538  1.4496  0.1404
15028TIP3   OH266574   4.394   3.293   0.758 -0.2926  0.1089  0.0731
15028TIP3    H166575   4.463   3.243   0.715  1.1493  1.9260  0.2317
15028TIP3    H266576   4.353   3.231   0.818  1.6786 -0.8036  0.5061
15029TIP3   OH266577   6.354   2.849   5.287 -0.0104  0.7970  0.4291
15029TIP3    H166578   6.381   2.940   5.275 -0.0161  0.5153 -1.9307
15029TIP3    H266579   6.431   2.805   5.322  0.5303  1.3561 -0.0595
15030TIP3   OH266580   2.179   2.934   2.490 -0.0116  0.2832  0.2041
15030TIP3    H166581   2.169   2.999   2.560  1.6855 -0.2402  0.9478
15030TIP3    H266582   2.250   2.968   2.436  2.1360 -1.7858  1.6039
15031TIP3   OH266583   6.064   4.950   2.543  0.0923  0.5595 -0.1562
15031TIP3    H166584   6.104   5.033   2.571  1.2459  0.0895 -0.3981
15031TIP3    H266585   6.135   4.886   2.551 -1.2261 -0.7236  1.5861
15032TIP3   OH266586   2.569   2.966   4.272  0.2840  0.6214  0.2598
15032TIP3    H166587   2.493   2.909   4.263  0.9976 -0.4203  0.7753
15032TIP3    H266588   2.558   3.032   4.203 -1.0996  0.5135  0.3678
15033TIP3   OH266589   6.462   4.459   4.760  0.1551 -0.0852 -0.5357
15033TIP3    H166590   6.453   4.367   4.736 -2.0810 -0.7039  2.3999
15033TIP3    H266591   6.480   4.504   4.677  1.9788 -3.2033 -1.9231
15034TIP3   OH266592   1.101   3.945   3.319  0.6121 -0.1708  0.5672
15034TIP3    H166593   1.152   3.886   3.263 -1.2915  0.8280 -2.2978
15034TIP3    H266594   1.037   3.888   3.362  0.0749 -0.4885 -0.6453
15035TIP3   OH266595   4.182   1.927   3.786 -0.3967 -0.0117 -0.4305
15035TIP3    H166596   4.234   2.008   3.781 -1.6089  0.7240 -1.3215
15035TIP3    H266597   4.225   1.868   3.723  0.3464  0.0086  0.0442
15036TIP3   OH266598   4.043   5.980   3.495  0.0747  0.5907  0.5666
15036TIP3    H166599   3.959   5.942   3.472 -0.4599  1.2454  1.4242
15036TIP3    H266600   4.030   6.016   3.583  1.6789 -0.6362  1.3392
15037TIP3   OH266601   3.477   2.396   3.514  0.1674 -0.1417 -0.3446
15037TIP3    H166602   3.521   2.315   3.489  0.2038 -0.1989 -0.0976
15037TIP3    H266603   3.407   2.368   3.573 -0.6998 -0.1268 -1.3580
15038TIP3   OH266604   4.083   4.660   4.653 -0.0355  0.1366  0.3279
15038TIP3    H166605   4.017   4.725   4.679 -1.2104 -0.2926 -1.4588
15038TIP3    H266606   4.033   4.592   4.609  1.2196 -1.9287  2.0335
15039TIP3   OH266607   4.739   3.238   2.818  0.0705  0.6733  0.1523
15039TIP3    H166608   4.659   3.287   2.802 -1.1879 -0.9591  1.1771
15039TIP3    H266609   4.746   3.234   2.914  1.1249  0.4149  0.0758
15040TIP3   OH266610   4.251   4.641   3.020  0.2040  0.3729 -0.4669
15040TIP3    H166611   4.240   4.709   3.087 -2.8567  0.5759 -1.1022
15040TIP3    H266612   4.255   4.690   2.937 -2.0872 -0.1625 -0.9317
15041TIP3   OH266613   3.300   5.723   4.685  0.8809 -0.6862  0.5659
15041TIP3    H166614   3.310   5.656   4.617  2.3267 -0.8256  0.8852
15041TIP3    H266615   3.381   5.774   4.680  0.4334  0.1036  1.3190
15042TIP3   OH266616   6.086   3.090   3.783  0.3621  0.9261 -0.0287
15042TIP3    H166617   6.167   3.053   3.747  0.4052  0.4994  0.4979
15042TIP3    H266618   6.021   3.074   3.715  0.4913  0.3299 -0.0113
15043TIP3   OH266619   3.742   4.810   3.140 -0.0994 -0.0787  0.6278
15043TIP3    H166620   3.738   4.886   3.198 -2.1984 -0.2275  0.6909
15043TIP3    H266621   3.780   4.740   3.194 -2.4257 -0.3336  1.9909
15044TIP3   OH266622   3.506   5.768   3.442  0.0386  0.1360 -0.4363
15044TIP3    H166623   3.564   5.750   3.515 -0.1680 -0.6352 -0.4649
15044TIP3    H266624   3.542   5.848   3.402  0.2568  0.4476  0.3828
15045TIP3   OH266625   2.715   5.152   2.672 -0.5284 -0.1330 -0.3342
15045TIP3    H166626   2.726   5.067   2.715 -0.9632 -0.1710 -0.2879
15045TIP3    H266627   2.640   5.191   2.717 -0.0041  0.4955 -0.0114
15046TIP3   OH266628   5.547   5.193   4.601 -0.0719  0.2475 -0.1132
15046TIP3    H166629   5.588   5.156   4.679 -0.3651 -0.9651 -0.5159
15046TIP3    H266630   5.507   5.274   4.631 -0.8107 -0.5724  1.1621
15047TIP3   OH266631   5.460   2.898   3.835 -0.1821 -0.0023 -0.4886
15047TIP3    H166632   5.379   2.890   3.785  0.2898  0.0657 -1.2829
15047TIP3    H266633   5.463   2.819   3.889 -0.7796  0.0027 -0.4452
15048TIP3   OH266634   2.623   4.921   1.880  0.1906  0.0322  0.1238
15048TIP3    H166635   2.699   4.880   1.920  0.1162 -0.0112  0.2200
15048TIP3    H266636   2.603   4.995   1.937 -0.4326 -0.5255  0.6343
15049TIP3   OH266637   2.659   5.130   2.411 -0.0582  0.3720 -0.3475
15049TIP3    H166638   2.677   5.137   2.505  1.1477  0.3221 -0.5605
15049TIP3    H266639   2.641   5.037   2.397  0.4169  0.2630 -0.2647
15050TIP3   OH266640   5.452   3.225   3.182 -0.3296 -0.8600  0.3872
15050TIP3    H166641   5.487   3.172   3.253 -1.0633 -1.9580 -0.0551
15050TIP3    H266642   5.389   3.283   3.224  3.3478  2.5154  1.5105
15051TIP3   OH266643   5.515   2.137   3.349  0.4524 -0.4696 -0.2901
15051TIP3    H166644   5.473   2.215   3.386  0.6626 -0.2063 -0.6001
15051TIP3    H266645   5.445   2.071   3.347  0.3854 -0.4223  0.3677
15052TIP3   OH266646   5.751   7.259   2.584  0.0614 -0.2558 -0.8038
15052TIP3    H166647   5.806   7.331   2.555 -1.9303  1.7515  0.2664
15052TIP3    H266648   5.665   7.275   2.544 -0.8995 -1.0003  0.8643
15053TIP3   OH266649   5.020   4.830   2.895  0.7705  0.3101 -0.7139
15053TIP3    H166650   5.000   4.746   2.854  0.2963  0.3809 -0.6216
15053TIP3    H266651   5.108   4.851   2.863  1.2428 -0.6322 -0.0831
15054TIP3   OH266652   0.941   1.233   1.935  0.3584  0.2474  0.0635
15054TIP3    H166653   0.856   1.210   1.970  0.7994  1.0341  1.6743
15054TIP3    H266654   0.933   1.325   1.910 -0.1570 -0.4590 -2.5958
15055TIP3   OH266655   3.881   4.196   3.701  0.4154  0.3531  0.3172
15055TIP3    H166656   3.809   4.211   3.762  0.1383  0.5394 -0.0537
15055TIP3    H266657   3.844   4.140   3.633  0.3154  1.3404 -0.4491
15056TIP3   OH266658   4.890   3.415   3.616 -0.0129 -0.0721  0.5928
15056TIP3    H166659   4.935   3.339   3.654  0.4247  0.1333  0.4879
15056TIP3    H266660   4.830   3.443   3.684  0.4153 -0.0113  0.9518
15057TIP3   OH266661   4.187   4.153   2.122  0.0924 -0.7968 -0.2754
15057TIP3    H166662   4.136   4.201   2.187  0.2982 -0.7673 -0.1362
15057TIP3    H266663   4.130   4.150   2.045  0.6724  1.0269 -0.8079
15058TIP3   OH266664   5.355   1.168   2.107  0.1217  0.1167 -0.5196
15058TIP3    H166665   5.387   1.249   2.148 -0.7310 -0.0374  0.4589
15058TIP3    H266666   5.412   1.099   2.141 -0.6268 -0.0208  0.4745
15059TIP3   OH266667   4.266   4.066   1.471 -0.2078  0.4109  0.0385
15059TIP3    H166668   4.330   4.006   1.432 -0.5595 -0.3989  0.6942
15059TIP3    H266669   4.234   4.119   1.398  5.5656  5.0240  0.4579
15060TIP3   OH266670   1.639   3.917   3.141  0.6154 -0.4191 -0.8195
15060TIP3    H166671   1.659   3.996   3.092 -0.6766  0.3844 -0.0696
15060TIP3    H266672   1.694   3.922   3.219 -1.6715  1.2929  0.7478
15061TIP3   OH266673   6.443   0.878   1.255 -0.1463  0.1016  0.1524
15061TIP3    H166674   6.534   0.878   1.227 -0.1889  0.6342  0.0015
15061TIP3    H266675   6.428   0.791   1.291  1.1646  0.8592  2.6049
15062TIP3   OH266676   5.162   3.883  14.440 -0.2517  0.0186 -0.2448
15062TIP3    H166677   5.190   3.792  14.447  0.3162  0.2234  0.1963
15062TIP3    H266678   5.215   3.920  14.370 -0.5228 -0.0029 -0.4616
15063TIP3   OH266679   4.500   5.027   3.377  0.3150  0.5585 -0.1789
15063TIP3    H166680   4.594   5.022   3.393  0.1940 -0.5715  0.1917
15063TIP3    H266681   4.461   5.043   3.463  0.0770 -0.1792 -0.1472
15064TIP3   OH266682   4.524   3.662   4.205 -0.1153  0.2925  0.0395
15064TIP3    H166683   4.532   3.586   4.262 -0.5348 -0.3145 -0.7083
15064TIP3    H266684   4.533   3.737   4.264  0.6831 -0.3309  0.7204
15065TIP3   OH266685   5.402   3.144   2.272 -0.3628  0.1421  0.7486
15065TIP3    H166686   5.458   3.202   2.221 -0.3421 -0.6467 -0.1406
15065TIP3    H266687   5.379   3.073   2.211  0.3232 -1.2365  2.0673
15066TIP3   OH266688   3.730   5.035   3.290 -0.2819  0.0595  0.5940
15066TIP3    H166689   3.770   5.064   3.372  0.2744  0.0449  0.3243
15066TIP3    H266690   3.782   5.077   3.222 -1.0149  0.4243  0.2500
15067TIP3   OH266691   6.291   1.060   4.492  0.3899  0.3510  0.6479
15067TIP3    H166692   6.379   1.076   4.526  0.2942 -0.8848  1.5198
15067TIP3    H266693   6.278   0.965   4.502 -0.0650  0.0950 -1.8380
15068TIP3   OH266694   5.160   5.929   3.735  0.1804 -0.0512  0.3376
15068TIP3    H166695   5.131   5.846   3.698  0.8554 -0.0319 -0.2278
15068TIP3    H266696   5.194   5.978   3.660  1.2846  0.0994  0.9382
15069TIP3   OH266697   5.597   3.709   2.618  0.8219 -0.1496 -0.0498
15069TIP3    H166698   5.634   3.749   2.539  0.4593 -0.8986 -0.6021
15069TIP3    H266699   5.582   3.617   2.594  1.9595 -0.7073  1.3077
15070TIP3   OH266700   0.083   2.772   0.211  0.3117 -0.0252 -0.2880
15070TIP3    H166701   0.008   2.738   0.260 -0.0169  1.0140 -0.0665
15070TIP3    H266702   0.044   2.815   0.135  0.8149 -1.5882 -1.4769
15071TIP3   OH266703   4.116   4.805   1.635 -0.9984 -0.1100  0.0473
15071TIP3    H166704   4.124   4.751   1.713 -2.3962 -2.0996 -1.1283
15071TIP3    H266705   4.160   4.755   1.566 -2.0310  0.3694 -0.9937
15072TIP3   OH266706   0.926   1.455   1.780 -0.1883 -0.2699  0.0561
15072TIP3    H166707   0.892   1.473   1.692 -0.0314 -0.2731 -0.0057
15072TIP3    H266708   0.861   1.494   1.839  0.8570  1.7577 -0.1008
15073TIP3   OH266709   1.794   2.248  15.907 -0.3469  0.3852 -0.4021
15073TIP3    H166710   1.888   2.262  15.920 -0.6025  1.9799 -0.1080
15073TIP3    H266711   1.781   2.155  15.924  1.0256  0.3441  0.5484
15074TIP3   OH266712   6.212   3.345   2.944  0.4121  0.0707  0.0571
15074TIP3    H166713   6.286   3.332   3.002 -0.7867 -0.1596  1.5550
15074TIP3    H266714   6.203   3.262   2.897  0.3899 -0.3008  0.7099
15075TIP3   OH266715   4.608   4.799   3.605  0.6197  0.8102 -0.3034
15075TIP3    H166716   4.657   4.730   3.651 -1.0787 -0.5022 -0.4121
15075TIP3    H266717   4.565   4.848   3.675  0.0603  0.3896 -0.3541
15076TIP3   OH266718   7.029   4.682   3.023 -0.0839 -0.1955  0.0666
15076TIP3    H166719   7.109   4.720   3.059 -0.6942  0.9886  0.2046
15076TIP3    H266720   7.010   4.607   3.079  2.2473 -1.9398 -1.4110
15077TIP3   OH266721   6.868   3.221   1.595  0.2079  0.0754 -0.7278
15077TIP3    H166722   6.906   3.166   1.526  0.3847 -0.6396 -0.0748
15077TIP3    H266723   6.789   3.174   1.622  2.0808 -1.6597  2.1376
15078TIP3   OH266724   6.436   5.631   3.573 -1.1002 -0.6003 -0.2121
15078TIP3    H166725   6.479   5.551   3.604 -1.4603 -0.2178  1.3220
15078TIP3    H266726   6.345   5.604   3.559 -1.0244 -0.6748 -0.5693
15079TIP3   OH266727   5.373   3.945   1.469  0.0905 -0.4064 -0.4600
15079TIP3    H166728   5.343   3.863   1.508 -0.2554 -0.4033 -0.7230
15079TIP3    H266729   5.297   3.980   1.424  0.0614  0.3737  0.1671
15080TIP3   OH266730   1.261   3.700   1.087  0.9271  0.0157  0.3957
15080TIP3    H166731   1.178   3.652   1.091  1.0418 -0.1744  0.5259
15080TIP3    H266732   1.239   3.789   1.113  1.0283 -0.3742  1.8827
15081TIP3   OH266733   4.532   4.584   2.344 -0.4236  0.1475  0.1113
15081TIP3    H166734   4.578   4.590   2.260 -2.6969 -1.0625 -1.2475
15081TIP3    H266735   4.564   4.502   2.383 -1.2978 -0.6130 -0.7624
15082TIP3   OH266736   4.880   4.023   2.563 -0.2153  0.2983  0.5018
15082TIP3    H166737   4.817   4.092   2.544  1.3911  1.6113 -0.2091
15082TIP3    H266738   4.935   4.018   2.485 -0.1203 -1.5780  0.6717
15083TIP3   OH266739   5.445   3.456   4.405 -0.1708 -0.2525 -0.1978
15083TIP3    H166740   5.365   3.434   4.358 -0.8810  0.0099  0.8671
15083TIP3    H266741   5.432   3.419   4.493 -0.0025  1.5506  0.6056
15084TIP3   OH266742   0.092   1.993   2.002  0.0684  0.5590  0.5160
15084TIP3    H166743   0.176   2.008   1.958  0.0266  1.7442  0.8132
15084TIP3    H266744   0.029   1.985   1.931  0.5173 -0.9201  0.2746
15085TIP3   OH266745   1.198   1.194   2.812  0.1444 -0.2572 -0.4638
15085TIP3    H166746   1.120   1.161   2.767 -1.1257 -0.2601  1.6600
15085TIP3    H266747   1.230   1.120   2.863 -1.3088  1.0375  2.4292
15086TIP3   OH266748   6.555   5.536   1.748  0.0156  0.1526 -0.1997
15086TIP3    H166749   6.636   5.492   1.719  0.7281  2.0027 -1.1276
15086TIP3    H266750   6.503   5.466   1.787  1.6809 -1.2611 -0.4041
15087TIP3   OH266751   5.725   1.777   3.133  0.4306 -0.0167  0.5592
15087TIP3    H166752   5.786   1.704   3.120 -0.8721 -1.1552  0.5936
15087TIP3    H266753   5.778   1.856   3.124  1.6395 -0.9513 -0.7187
15088TIP3   OH266754   4.067   4.439   2.493  0.5537 -0.1474 -0.6005
15088TIP3    H166755   4.151   4.479   2.517  0.8597 -0.2346 -1.5234
15088TIP3    H266756   4.071   4.428   2.398  0.1063 -1.5291 -0.4781
15089TIP3   OH266757   4.996   4.442   3.044  0.1513 -0.3725  1.1679
15089TIP3    H166758   5.035   4.501   2.980  1.0115 -1.8370  0.3001
15089TIP3    H266759   5.071   4.399   3.086 -0.4747 -2.1907  0.4749
15090TIP3   OH266760   0.418   2.380   2.300  0.2273 -0.5974 -0.7178
15090TIP3    H166761   0.480   2.424   2.242 -0.6022 -0.4336 -1.4908
15090TIP3    H266762   0.385   2.448   2.359  1.5213 -0.8822  0.3605
15091TIP3   OH266763   6.813   0.678   0.645  0.0156 -0.3730 -0.0265
15091TIP3    H166764   6.731   0.657   0.602 -0.8793  0.3075  1.2986
15091TIP3    H266765   6.864   0.597   0.642 -0.7918 -0.8618 -0.6385
15092TIP3   OH266766   5.323   2.486   1.180  0.3526 -0.6806  0.4088
15092TIP3    H166767   5.388   2.556   1.182  1.1491 -1.3752 -0.7669
15092TIP3    H266768   5.360   2.418   1.235  0.9017 -1.2981 -0.6981
15093TIP3   OH266769   6.268   5.518   2.418  0.0055  0.1158 -0.6217
15093TIP3    H166770   6.215   5.589   2.383  1.9430  0.8077 -2.2713
15093TIP3    H266771   6.348   5.561   2.450  0.1285 -1.0285  0.6630
15094TIP3   OH266772   0.341   2.703   1.680 -0.1597  0.1179 -0.2202
15094TIP3    H166773   0.271   2.710   1.616 -0.4642 -1.3345 -0.0628
15094TIP3    H266774   0.320   2.624   1.730  0.2494  1.0493  1.4543
15095TIP3   OH266775   6.942   3.510   2.242 -0.6350  0.4206 -0.6845
15095TIP3    H166776   7.031   3.476   2.235 -0.9002 -0.1808 -1.1274
15095TIP3    H266777   6.953   3.605   2.236 -0.0324  0.3493 -0.8028
15096TIP3   OH266778   0.797   0.924   3.355  0.1979  0.5307 -0.0486
15096TIP3    H166779   0.759   0.897   3.271  1.3155 -0.3428 -0.2877
15096TIP3    H266780   0.889   0.940   3.336  0.3346  0.8980  0.8930
15097TIP3   OH266781   4.200   3.843   2.321 -0.1593  0.3433  0.1948
15097TIP3    H166782   4.271   3.874   2.265  0.2887 -0.9942  0.0217
15097TIP3    H266783   4.141   3.797   2.262  0.0398 -0.6048  0.7322
15098TIP3   OH266784   1.396   1.399   1.211 -0.3597  0.7876 -0.0713
15098TIP3    H166785   1.307   1.372   1.234  0.0997 -0.1407  0.5884
15098TIP3    H266786   1.407   1.368   1.121  0.6092 -2.3397  1.0894
15099TIP3   OH266787   0.381   7.237   1.803  0.1202 -0.4025 -0.4423
15099TIP3    H166788   0.309   7.300   1.810 -2.0157 -2.5407 -2.2005
15099TIP3    H266789   0.427   7.243   1.887 -2.3567  0.7215  0.8889
15100TIP3   OH266790   0.322   4.940   2.369  1.0755 -0.2330 -0.4964
15100TIP3    H166791   0.240   4.956   2.414  0.8604 -1.9641 -0.2506
15100TIP3    H266792   0.317   4.993   2.289  0.3212  0.7250  0.1886
15101TIP3   OH266793   7.228   5.340   2.615  0.1279  0.1134  0.3166
15101TIP3    H166794   7.139   5.307   2.626 -1.1700  2.8103 -1.4208
15101TIP3    H266795   7.229   5.421   2.666  2.0445 -0.6181  1.4642
15102TIP3   OH266796   3.718   3.638   3.332  0.2031 -0.2874  0.1746
15102TIP3    H166797   3.624   3.634   3.352  0.0610 -1.2886 -0.6699
15102TIP3    H266798   3.759   3.666   3.414 -0.6206 -2.0353  1.2070
15103TIP3   OH266799   7.055   4.910   2.607  0.1205  0.1143  0.3239
15103TIP3    H166800   7.037   4.981   2.668  1.8774 -0.0344  1.0667
15103TIP3    H266801   6.971   4.866   2.594 -0.2383  0.0342  2.7885
15104TIP3   OH266802   0.659   4.314   1.525 -0.0806  0.3370 -0.6419
15104TIP3    H166803   0.722   4.346   1.590  1.1414 -1.1059 -1.0678
15104TIP3    H266804   0.603   4.254   1.574  0.1159  0.1274 -0.6728
15105TIP3   OH266805   5.360   3.150   2.540 -0.3816 -0.5406  0.0966
15105TIP3    H166806   5.390   3.125   2.453 -0.2935 -1.3026  0.3426
15105TIP3    H266807   5.347   3.245   2.535  0.8214 -0.3913 -0.3891
15106TIP3   OH266808   4.674   4.163   2.457 -0.0991 -0.0813  0.0750
15106TIP3    H166809   4.690   4.080   2.412  2.2431  0.0763  0.5816
15106TIP3    H266810   4.594   4.148   2.508 -0.1470 -1.7395 -0.4784
15107TIP3   OH266811   6.678   1.797   3.704  0.2518 -0.3898  0.9272
15107TIP3    H166812   6.617   1.739   3.749 -0.6715  0.1156  0.3360
15107TIP3    H266813   6.622   1.860   3.658  1.2235  0.4360  0.8620
15108TIP3   OH266814   6.758   4.202   3.106 -0.3892  0.4176  0.7488
15108TIP3    H166815   6.810   4.130   3.141 -0.3572  0.6416  1.1567
15108TIP3    H266816   6.769   4.195   3.011  0.0469  0.2147  0.8141
15109TIP3   OH266817   6.844   2.937   3.022 -0.4299  0.3183  0.2780
15109TIP3    H166818   6.873   2.871   2.958 -0.6942 -1.1668  1.6592
15109TIP3    H266819   6.785   2.994   2.973 -0.6472 -0.8162 -0.7979
15110TIP3   OH266820   3.767   4.738   1.763 -1.1631 -0.7282 -0.1195
15110TIP3    H166821   3.829   4.762   1.832  0.5759  1.5097 -2.3709
15110TIP3    H266822   3.681   4.747   1.804 -0.1313 -0.9251  2.1741
15111TIP3   OH266823   4.944   3.525   0.660 -0.4086  0.2870 -0.3804
15111TIP3    H166824   4.975   3.443   0.620 -0.0692 -0.3411  1.1532
15111TIP3    H266825   4.861   3.501   0.701 -0.0078  0.5509  0.6014
15112TIP3   OH266826   3.495   4.531   5.215 -0.0343 -0.2757  0.5867
15112TIP3    H166827   3.568   4.523   5.276  0.5906 -0.4307 -0.1685
15112TIP3    H266828   3.456   4.443   5.213 -0.3088 -0.1695  1.0583
15113TIP3   OH266829   0.031   3.693   5.005  0.8957  0.2873  0.0592
15113TIP3    H166830  -0.003   3.782   5.014  0.9344  0.5443 -1.9870
15113TIP3    H266831   0.125   3.704   4.993  1.0055 -0.0806  0.5704
15114TIP3   OH266832   0.217   2.413   0.855 -0.3847  0.2340  0.0431
15114TIP3    H166833   0.290   2.414   0.793  0.1816  2.4170  0.7178
15114TIP3    H266834   0.254   2.375   0.934 -0.3383  0.0884 -0.0482
15115TIP3   OH266835   4.957   2.710   2.756  0.0632 -0.4942  0.2103
15115TIP3    H166836   4.865   2.724   2.735 -0.0610  0.3376  1.2609
15115TIP3    H266837   4.984   2.791   2.801  1.6894 -0.1216 -1.3798
15116TIP3   OH266838   0.167   3.308   2.649  0.2774 -0.1681 -0.2790
15116TIP3    H166839   0.136   3.239   2.590 -1.5363  0.0234  0.4178
15116TIP3    H266840   0.215   3.261   2.717  0.4677 -0.5821 -0.6892
15117TIP3   OH266841   7.317   1.178   2.110 -0.6835  0.0384 -0.1050
15117TIP3    H166842   7.320   1.166   2.205  1.3768 -2.0429 -0.3964
15117TIP3    H266843   7.349   1.268   2.096  1.3106 -0.4690  1.0403
15118TIP3   OH266844   0.002   3.746   3.191  0.1940  0.3004  0.0941
15118TIP3    H166845  -0.037   3.830   3.165  0.8575  0.5323 -0.1524
15118TIP3    H266846   0.009   3.697   3.109  0.2513  0.1864  0.1682
15119TIP3   OH266847   4.764   4.882   3.412 -0.0897 -0.1588 -0.7909
15119TIP3    H166848   4.812   4.810   3.372 -0.1261  0.2557 -1.5997
15119TIP3    H266849   4.715   4.842   3.484  0.8802 -0.7147 -0.4375
15120TIP3   OH266850   5.758   7.062   3.460  0.2776 -0.4395  0.0500
15120TIP3    H166851   5.780   6.972   3.437  1.0572 -0.4760  0.9036
15120TIP3    H266852   5.839   7.098   3.496 -0.0894  0.5387 -0.0759
15121TIP3   OH266853   1.367   0.602   3.519  0.6801  0.2182  0.3509
15121TIP3    H166854   1.437   0.648   3.565  1.8674 -0.7984 -0.3984
15121TIP3    H266855   1.292   0.605   3.579  1.7446  0.2226  1.7089
15122TIP3   OH266856   0.603   1.451   1.739  0.5877  0.4847  0.0479
15122TIP3    H166857   0.511   1.467   1.758  0.7799  1.5718  0.1305
15122TIP3    H266858   0.606   1.361   1.707 -0.1619 -0.4396  2.4192
15123TIP3   OH266859   0.358   2.115   1.597  0.3847 -0.4643 -0.3950
15123TIP3    H166860   0.288   2.175   1.573  0.2992 -0.3543  0.1273
15123TIP3    H266861   0.432   2.141   1.543 -0.0648 -0.7637 -1.1607
15124TIP3   OH266862   0.739   1.127   2.098  0.2131 -0.2296 -0.5393
15124TIP3    H166863   0.779   1.077   2.169 -0.1574 -0.5350 -0.5405
15124TIP3    H266864   0.715   1.061   2.033  0.2139  0.0087 -0.7836
15125TIP3   OH266865   6.404   4.008   2.461 -0.3818 -0.1071 -0.3801
15125TIP3    H166866   6.348   3.955   2.403 -0.3074 -0.2822 -0.2919
15125TIP3    H266867   6.485   3.958   2.469 -0.6448 -0.4188  0.4257
15126TIP3   OH266868   7.294   0.913   5.219  0.2770 -0.2958 -0.1368
15126TIP3    H166869   7.321   0.961   5.140  0.6188  0.0869  0.2147
15126TIP3    H266870   7.292   0.979   5.288  0.0647 -0.6523  0.1995
15127TIP3   OH266871   5.936   1.686  15.726  0.0560  0.4026 -0.6271
15127TIP3    H166872   5.922   1.780  15.730  0.3821  0.3839  1.7600
15127TIP3    H266873   6.030   1.676  15.713  0.0383  0.4052 -0.7561
15128TIP3   OH266874   6.607   1.342   4.527 -0.7047  0.2859  0.0252
15128TIP3    H166875   6.588   1.271   4.588 -3.4302  0.4381 -0.5666
15128TIP3    H266876   6.616   1.419   4.583 -2.0426  0.2172  0.3677
15129TIP3   OH266877   0.613   2.219   1.485  0.2879  0.4361 -0.4730
15129TIP3    H166878   0.591   2.280   1.555 -0.0870 -0.4322  0.1769
15129TIP3    H266879   0.704   2.240   1.462  0.4061  0.7247  0.2691
15130TIP3   OH266880   4.699   1.335   2.361 -0.2170 -0.5733 -0.4385
15130TIP3    H166881   4.686   1.241   2.360  0.9595 -0.7278 -1.2455
15130TIP3    H266882   4.642   1.366   2.432  1.7798 -2.2475  1.9777
15131TIP3   OH266883   6.949   2.245   1.665  0.3146  1.2373  0.1439
15131TIP3    H166884   7.000   2.319   1.634 -0.7650  1.0563 -2.1586
15131TIP3    H266885   6.911   2.206   1.586 -0.0577 -1.0883  1.4051
15132TIP3   OH266886   5.032   1.163   2.112 -0.2217 -0.2616 -0.1764
15132TIP3    H166887   5.077   1.127   2.188 -0.7007 -2.6131 -0.9728
15132TIP3    H266888   4.940   1.144   2.127 -0.4407  0.2876 -0.7960
15133TIP3   OH266889   6.017   1.012   2.530  0.2772 -0.1936 -0.2591
15133TIP3    H166890   5.952   1.036   2.464  0.2787 -0.7572 -0.4648
15133TIP3    H266891   6.101   1.016   2.484  0.3730  0.3706 -0.0370
15134TIP3   OH266892   5.945   2.299   2.693 -0.2942  0.2586 -0.5186
15134TIP3    H166893   6.041   2.304   2.700 -0.2773  1.2655 -1.3877
15134TIP3    H266894   5.916   2.286   2.783  0.6927 -0.5881 -0.3133
15135TIP3   OH266895   6.680   3.102   2.886  0.5848  0.2527  0.0358
15135TIP3    H166896   6.751   3.160   2.856  1.2406 -1.0511 -0.9646
15135TIP3    H266897   6.633   3.079   2.805  0.2584 -0.5189  0.4486
15136TIP3   OH266898   7.309   4.721   2.278  0.5696 -0.0815 -0.1523
15136TIP3    H166899   7.341   4.778   2.208  1.7424  0.7432  1.0544
15136TIP3    H266900   7.324   4.770   2.358 -1.7074 -0.5954  0.6197
15137TIP3   OH266901   5.126   4.023   1.366 -0.1430  0.1316  0.4476
15137TIP3    H166902   5.043   4.070   1.358 -1.5020 -2.1364  1.0438
15137TIP3    H266903   5.156   4.012   1.275 -1.4086 -0.6239  0.1041
15138TIP3   OH266904   5.664   2.391   1.889  0.1516  0.5001 -0.6285
15138TIP3    H166905   5.726   2.436   1.947 -0.2092 -0.5408  0.5709
15138TIP3    H266906   5.630   2.460   1.833  1.2400  1.3527 -0.2591
15139TIP3   OH266907   5.605   5.732   1.393 -0.4844 -0.2302  0.7105
15139TIP3    H166908   5.574   5.756   1.480 -0.5135 -1.3147  0.9965
15139TIP3    H266909   5.537   5.676   1.357  0.1555 -0.9001  0.5203
15140TIP3   OH266910   1.796   3.883   3.857  0.4235  0.3706  0.5166
15140TIP3    H166911   1.748   3.874   3.775 -1.5079 -1.7084  1.8558
15140TIP3    H266912   1.886   3.858   3.834 -0.6867 -3.0268 -0.3573
15141TIP3   OH266913   5.217   2.940   4.138 -0.2574  0.8772 -0.0352
15141TIP3    H166914   5.252   2.865   4.090  1.6953  1.6584  0.1049
15141TIP3    H266915   5.124   2.941   4.116 -0.5714 -2.2215  0.8258
15142TIP3   OH266916   5.905   3.074   4.004 -0.3278 -0.1510 -0.0111
15142TIP3    H166917   5.843   3.032   3.945 -0.0164 -1.7631  0.7879
15142TIP3    H266918   5.987   3.079   3.955  0.0764 -1.9729  0.4408
15143TIP3   OH266919   5.045   5.750   3.565  0.3781  0.3799  0.3405
15143TIP3    H166920   4.998   5.776   3.486 -0.9565 -0.6441  0.7873
15143TIP3    H266921   5.039   5.655   3.567  0.8134  0.3625  1.4318
15144TIP3   OH266922   0.038   5.281   4.289 -0.3609 -0.1892 -0.4098
15144TIP3    H166923   0.110   5.344   4.291 -0.4509 -0.0978  0.5785
15144TIP3    H266924   0.055   5.227   4.213 -1.3369  2.2505 -2.4248
15145TIP3   OH266925   6.963   5.146   2.111 -0.2082  0.3096  0.3190
15145TIP3    H166926   7.045   5.152   2.159 -0.3671  0.9813  0.5166
15145TIP3    H266927   6.918   5.228   2.131 -1.9885 -1.0506  2.1660
15146TIP3   OH266928   0.192   5.100   1.365  0.0032 -0.3711 -0.2859
15146TIP3    H166929   0.267   5.047   1.338 -0.8852 -1.6330 -0.3150
15146TIP3    H266930   0.147   5.047   1.431  0.2652  1.2439  1.2283
15147TIP3   OH266931   6.780   2.801   1.180  0.0029  0.1196 -0.0969
15147TIP3    H166932   6.830   2.839   1.108 -0.8838  2.4448  0.4631
15147TIP3    H266933   6.743   2.720   1.144  0.5026  0.6687 -1.8790
15148TIP3   OH266934   6.526   3.568   5.402  0.1144  0.1326 -0.2000
15148TIP3    H166935   6.483   3.652   5.420 -0.8659 -0.8116  1.9876
15148TIP3    H266936   6.534   3.566   5.307  0.0351  2.6459 -0.3045
15149TIP3   OH266937   6.865   1.573   2.084 -0.3748 -0.5529 -0.1903
15149TIP3    H166938   6.855   1.584   1.989  0.2061 -2.4538 -0.4820
15149TIP3    H266939   6.880   1.479   2.096  3.0243  0.1124  1.4683
15150TIP3   OH266940   4.067   5.160   2.158 -0.0207  0.4489 -0.3508
15150TIP3    H166941   4.162   5.154   2.169 -0.2786 -0.9714  1.2854
15150TIP3    H266942   4.054   5.156   2.063  1.4796 -0.4046 -0.5329
15151TIP3   OH266943   5.434   3.296   1.922  0.7702 -0.4435  0.0164
15151TIP3    H166944   5.459   3.205   1.912 -0.3547 -0.8609  0.8227
15151TIP3    H266945   5.494   3.330   1.988 -0.7860 -1.4657  2.0203
15152TIP3   OH266946   4.865   2.171   2.830 -0.3953 -0.1989  0.7744
15152TIP3    H166947   4.948   2.134   2.801 -0.4410 -0.6165  1.1834
15152TIP3    H266948   4.809   2.095   2.845 -0.9711  0.0916  0.1357
15153TIP3   OH266949   0.623   3.938   5.409 -0.1858 -0.6621 -0.1464
15153TIP3    H166950   0.544   3.894   5.377 -0.4401 -0.3049 -0.0022
15153TIP3    H266951   0.615   3.938   5.504 -0.1654 -0.3381 -0.1442
15154TIP3   OH266952   5.862   3.826   2.415 -0.0311 -0.1805 -0.3059
15154TIP3    H166953   5.946   3.869   2.397 -1.2182  2.3143 -0.0661
15154TIP3    H266954   5.828   3.804   2.328  1.3840 -2.3020 -0.3642
15155TIP3   OH266955   6.335   3.153   0.982 -0.0737 -0.0101 -0.2383
15155TIP3    H166956   6.328   3.058   0.966  2.7317 -0.3841  0.4817
15155TIP3    H266957   6.412   3.162   1.039 -0.3388  2.7108 -0.2544
15156TIP3   OH266958   0.595   3.279   0.385 -1.0941 -0.3990 -0.2095
15156TIP3    H166959   0.544   3.223   0.326 -1.2084 -1.0096  0.4681
15156TIP3    H266960   0.683   3.281   0.346 -1.2908 -0.4013 -0.6630
15157TIP3   OH266961   5.316   6.086   2.527  0.8440 -0.2396 -0.9251
15157TIP3    H166962   5.300   6.124   2.441 -0.1363  1.8887  0.1426
15157TIP3    H266963   5.370   6.151   2.572  1.5663 -1.4499 -0.0222
15158TIP3   OH266964   5.887   6.280   2.841  0.0606 -0.1578  0.4136
15158TIP3    H166965   5.799   6.249   2.862 -0.3541 -0.5302 -1.7705
15158TIP3    H266966   5.901   6.355   2.899 -0.8238 -1.4301  2.3020
15159TIP3   OH266967   1.374   5.706   3.637 -0.9364 -0.1275  0.1090
15159TIP3    H166968   1.297   5.711   3.580 -0.1848  1.0183 -0.8526
15159TIP3    H266969   1.412   5.794   3.632 -0.3920 -0.2530  1.7518
15160TIP3   OH266970   0.449   1.866   1.484  0.4288 -0.0122  0.4016
15160TIP3    H166971   0.379   1.880   1.421  2.5335 -1.4202 -2.3429
15160TIP3    H266972   0.434   1.933   1.552 -2.2938  1.0577 -1.1841
15161TIP3   OH266973   5.402   4.435   3.396  0.2432  0.1480 -0.2815
15161TIP3    H166974   5.353   4.356   3.373 -0.0902  0.3691 -0.3334
15161TIP3    H266975   5.484   4.403   3.435 -1.1206 -0.2347  2.3921
15162TIP3   OH266976   5.399   3.147   3.951 -0.0923 -0.3168 -0.5977
15162TIP3    H166977   5.420   3.085   3.882  1.3473 -1.8371  1.1526
15162TIP3    H266978   5.350   3.095   4.015  0.2643  0.6034  0.4316
15163TIP3   OH266979   0.245   1.944   0.936 -1.2854 -0.5198 -0.7091
15163TIP3    H166980   0.247   2.036   0.962 -0.5531 -0.8791  0.5353
15163TIP3    H266981   0.242   1.947   0.840  1.7690  0.8286 -0.8440
15164TIP3   OH266982   5.575   4.724   3.715  0.3750  0.3267 -0.5945
15164TIP3    H166983   5.572   4.808   3.759  0.1042 -0.3789  0.7668
15164TIP3    H266984   5.628   4.668   3.772 -0.3668 -0.7300 -0.9049
15165TIP3   OH266985   6.516   2.422   2.608 -0.2193 -0.9417 -0.2568
15165TIP3    H166986   6.430   2.463   2.597 -0.9280 -2.5022 -0.5877
15165TIP3    H266987   6.562   2.480   2.668 -2.0169 -0.8476  1.0581
15166TIP3   OH266988   0.074   5.231   3.418 -0.2302  0.1240  0.2216
15166TIP3    H166989   0.064   5.257   3.326  2.7757 -0.5461 -0.3278
15166TIP3    H266990   0.109   5.308   3.461 -0.7995  0.1514  0.6437
15167TIP3   OH266991   6.480   4.811   2.772 -0.2415  0.2506  0.1868
15167TIP3    H166992   6.514   4.898   2.796 -0.9833  0.1105  1.7980
15167TIP3    H266993   6.410   4.830   2.709 -1.3486  0.9492  1.5735
15168TIP3   OH266994   0.491   4.397   2.916 -0.5438  0.0460 -0.2034
15168TIP3    H166995   0.495   4.486   2.881 -1.0856  0.4069  0.6467
15168TIP3    H266996   0.411   4.395   2.969 -0.7785 -1.0726 -0.5718
15169TIP3   OH266997   5.428   2.751   1.673  0.0760  0.0481 -0.3205
15169TIP3    H166998   5.356   2.688   1.680 -1.1218  1.4475  0.0838
15169TIP3    H266999   5.482   2.734   1.751 -0.9846  0.4506  0.4992
15170TIP3   OH267000   5.215   3.285   3.504  0.3155 -0.2231 -0.2329
15170TIP3    H167001   5.258   3.360   3.463  0.5730  0.4027  1.1690
15170TIP3    H267002   5.122   3.302   3.495  0.3713 -0.0265 -0.4386
15171TIP3   OH267003   6.631   2.588   2.321 -0.2828 -0.1807 -0.4133
15171TIP3    H167004   6.711   2.589   2.374 -0.8085  0.7565  0.3857
15171TIP3    H267005   6.589   2.672   2.339 -1.2433 -0.4905 -1.1475
15172TIP3   OH267006   5.967   1.872   3.381  0.5596 -0.0923 -0.0314
15172TIP3    H167007   6.037   1.912   3.432  1.3550 -0.5962 -0.7094
15172TIP3    H267008   5.895   1.935   3.385  1.8877  1.5361 -1.2876
15173TIP3   OH267009   7.327   2.972   3.639 -0.1381  0.9612 -0.4780
15173TIP3    H167010   7.372   3.037   3.585  1.1627  0.9312  0.5690
15173TIP3    H267011   7.387   2.898   3.643 -0.2425  0.9510  0.9883
15174TIP3   OH267012   6.227   3.879   1.936 -0.4777  0.7951  0.1440
15174TIP3    H167013   6.264   3.811   1.993  0.2228 -0.1146 -1.3558
15174TIP3    H267014   6.289   3.952   1.943 -0.2643  0.5969  0.3688
15175TIP3   OH267015   6.072   3.113   3.090  0.0872  0.3332  0.4362
15175TIP3    H167016   5.983   3.137   3.064 -0.0259  1.2310  1.6322
15175TIP3    H267017   6.115   3.196   3.110  1.0198 -0.1401  0.4563
15176TIP3   OH267018   6.978   0.975   0.994  0.4938 -0.5579 -0.9505
15176TIP3    H167019   7.022   0.896   1.026  0.7805  0.1786  0.5111
15176TIP3    H267020   7.024   1.047   1.037 -2.4175  0.2180  0.9959
15177TIP3   OH267021   0.721   1.191   2.819  0.3064 -0.1272 -0.2255
15177TIP3    H167022   0.785   1.256   2.849 -1.2246  0.9551  0.7375
15177TIP3    H267023   0.638   1.238   2.817 -0.6298 -1.7652 -0.5717
15178TIP3   OH267024   5.250   3.709   1.615 -0.4756  0.1445 -0.0769
15178TIP3    H167025   5.286   3.636   1.666  0.7728  0.3953 -0.5888
15178TIP3    H267026   5.202   3.761   1.679  1.3837  0.6587  0.9556
15179TIP3   OH267027   4.355   3.980   1.893 -0.0446  0.5685 -0.2161
15179TIP3    H167028   4.315   4.029   1.965 -0.1045  0.4280 -0.1531
15179TIP3    H267029   4.377   4.046   1.828 -0.0577  0.6878 -0.0996
15180TIP3   OH267030   0.678   2.334   2.917 -0.3623  0.4406  0.3334
15180TIP3    H167031   0.763   2.307   2.881 -1.6283  0.0983 -2.4371
15180TIP3    H267032   0.657   2.265   2.981  1.2683  0.3468  0.7960
15181TIP3   OH267033   4.215   3.014   4.277  0.3826 -0.0238 -0.2648
15181TIP3    H167034   4.164   3.039   4.200  1.4351  0.0834 -0.9351
15181TIP3    H267035   4.284   2.957   4.242  1.5940  1.0164  0.4307
15182TIP3   OH267036   6.229   4.144   3.179  0.2861 -0.0357 -0.1724
15182TIP3    H167037   6.296   4.108   3.121  0.4755 -1.1999  0.7475
15182TIP3    H267038   6.261   4.232   3.200  2.1256 -0.9749  1.1457
15183TIP3   OH267039   7.049   6.548   3.297 -0.1399  0.2927 -0.7254
15183TIP3    H167040   7.141   6.548   3.269 -0.0450 -0.0611 -0.4265
15183TIP3    H267041   7.004   6.602   3.233  0.0736 -0.4928 -1.5451
15184TIP3   OH267042   6.347   1.343   4.438 -0.1535  0.5769 -0.0078
15184TIP3    H167043   6.443   1.340   4.443 -0.0995  1.8313 -0.1464
15184TIP3    H267044   6.319   1.254   4.462  1.0079  0.4547  0.9434
15185TIP3   OH267045   4.717   4.606   2.835 -0.3617 -0.1081 -0.6836
15185TIP3    H167046   4.711   4.655   2.752  2.1971 -0.9651 -1.4387
15185TIP3    H267047   4.718   4.514   2.808 -0.7481 -0.4344  0.4066
15186TIP3   OH267048   5.222   3.087   4.367  0.1904 -0.1468  0.0655
15186TIP3    H167049   5.232   3.033   4.289 -3.3070  0.1747 -0.6572
15186TIP3    H267050   5.218   3.177   4.333 -2.4533 -0.0810  0.4519
15187TIP3   OH267051   4.400   3.043   3.137 -0.0143 -0.2922 -0.5015
15187TIP3    H167052   4.494   3.032   3.147 -0.3586 -3.7036 -0.5870
15187TIP3    H267053   4.385   3.045   3.042  0.2029  3.0216 -0.5258
15188TIP3   OH267054   0.450   4.699   2.280 -0.4834 -0.3907 -0.4595
15188TIP3    H167055   0.414   4.769   2.335  0.5720 -0.3383  0.1861
15188TIP3    H267056   0.489   4.744   2.205 -2.5224 -0.5072 -1.6129
15189TIP3   OH267057   0.708   3.474   4.526  0.7611 -0.6741  0.2327
15189TIP3    H167058   0.624   3.458   4.567 -0.3313 -1.0707 -2.0839
15189TIP3    H267059   0.771   3.425   4.579 -0.5142 -0.7656  1.6823
15190TIP3   OH267060   6.230   3.992   3.559 -0.8147  0.2583  0.3768
15190TIP3    H167061   6.147   3.975   3.514 -1.3747 -0.3406  1.6384
15190TIP3    H267062   6.252   3.910   3.603 -0.3828  0.8988  1.3827
15191TIP3   OH267063   6.180   3.382   3.242 -0.0969  0.1403 -0.1045
15191TIP3    H167064   6.210   3.375   3.333 -0.9638  0.8182  0.2339
15191TIP3    H267065   6.261   3.393   3.191  0.3869 -0.1729  0.5811
15192TIP3   OH267066   6.581   1.559   2.663  0.2648 -0.1121 -0.0485
15192TIP3    H167067   6.567   1.531   2.572  2.3805  0.5882 -0.6024
15192TIP3    H267068   6.498   1.538   2.707 -0.3859 -1.4982 -1.8666
15193TIP3   OH267069   3.973   4.700   2.641  0.5237  0.4346  0.5700
15193TIP3    H167070   4.002   4.617   2.603  0.9578  0.0611  1.6948
15193TIP3    H267071   3.953   4.680   2.732  0.4590  1.5318  0.8124
15194TIP3   OH267072   5.043   3.415  15.805 -0.2566  0.2556  0.1518
15194TIP3    H167073   5.047   3.363  15.885 -1.4753  1.7066  1.1963
15194TIP3    H267074   5.133   3.445  15.791  0.3045 -1.5226 -0.0664
15195TIP3   OH267075   7.231   1.984   4.590 -0.2042 -0.1979  0.1655
15195TIP3    H167076   7.195   1.943   4.512 -0.7366  1.2112 -0.3462
15195TIP3    H267077   7.271   2.065   4.558  1.6288 -0.7341  1.0187
15196TIP3   OH267078   6.291   3.325   3.506  0.2165  0.4046  0.5705
15196TIP3    H167079   6.286   3.329   3.601  0.3417  0.1141  0.5881
15196TIP3    H267080   6.363   3.264   3.488  0.5552  0.8815  0.2941
15197TIP3   OH267081   4.933   3.121   2.652  0.2964 -0.1444  0.2949
15197TIP3    H167082   4.854   3.154   2.694  0.3859  0.1895  0.2005
15197TIP3    H267083   5.004   3.142   2.713  0.3054 -0.5112  0.4149
15198TIP3   OH267084   5.664   1.251   4.788 -0.2846  0.0895 -0.1288
15198TIP3    H167085   5.742   1.297   4.819  0.4354  0.2186 -2.0703
15198TIP3    H267086   5.696   1.166   4.758 -1.7175 -2.2141  4.2592
15199TIP3   OH267087   5.537   4.812   0.698  0.2010  0.1420 -0.0477
15199TIP3    H167088   5.589   4.741   0.736 -0.7100  0.5295  1.9601
15199TIP3    H267089   5.478   4.769   0.636 -0.5320 -0.8869  1.3539
15200TIP3   OH267090   5.146   4.650   3.611 -0.1848 -0.5040  0.2476
15200TIP3    H167091   5.131   4.744   3.627 -0.3696 -0.5985  0.6418
15200TIP3    H267092   5.217   4.627   3.670  0.1259 -0.5286 -0.1300
15201TIP3   OH267093   0.539   2.859   2.314 -0.1256  0.3873  0.0050
15201TIP3    H167094   0.535   2.932   2.375  0.0313  0.1084  0.3463
15201TIP3    H267095   0.632   2.846   2.296 -0.1766  0.5515 -0.3933
15202TIP3   OH267096   3.914   4.462   4.539  0.7399  0.8697  0.1123
15202TIP3    H167097   3.862   4.497   4.466  0.2329  0.5471  0.3174
15202TIP3    H267098   3.922   4.368   4.520  1.2860  0.9242  0.0608
15203TIP3   OH267099   4.906   4.107   1.472  0.4223  0.0744  0.1628
15203TIP3    H167100   4.879   4.112   1.564  2.9976  0.7194  0.9217
15203TIP3    H267101   4.846   4.167   1.426 -0.8151 -0.1819  1.4113
15204TIP3   OH267102   5.168   2.399   5.017 -0.1868 -0.1587 -0.2503
15204TIP3    H167103   5.138   2.409   4.926  2.5674 -0.4989 -1.2356
15204TIP3    H267104   5.222   2.476   5.034 -0.1785 -0.4078  0.8992
15205TIP3   OH267105   1.371   0.748   2.435  0.6791  0.4154 -0.5611
15205TIP3    H167106   1.465   0.764   2.436  0.9432 -1.0556 -0.0014
15205TIP3    H267107   1.348   0.746   2.342  1.4385 -0.4369 -0.7452
15206TIP3   OH267108   5.223   2.679   5.099 -0.8777  0.1964  0.2848
15206TIP3    H167109   5.260   2.764   5.122 -0.1844  0.1894 -0.8058
15206TIP3    H267110   5.200   2.640   5.184 -0.0912  0.9642  0.8634
15207TIP3   OH267111   0.636   1.518   2.097  1.0484  0.5031  0.3344
15207TIP3    H167112   0.585   1.563   2.165  0.9165  1.6834 -0.5344
15207TIP3    H267113   0.572   1.466   2.050  0.8850  0.8296  0.1905
15208TIP3   OH267114   0.404   2.765   1.339  1.0571 -0.1147  0.0262
15208TIP3    H167115   0.393   2.844   1.285 -1.9320 -0.1014  0.5469
15208TIP3    H267116   0.454   2.705   1.284  0.2330  0.8216 -1.8086
15209TIP3   OH267117   0.616   0.935   1.962  0.3072 -0.0378 -0.0906
15209TIP3    H167118   0.527   0.901   1.970  0.4491 -0.0901  1.4525
15209TIP3    H267119   0.672   0.858   1.969  0.5663  0.3001  1.7818
15210TIP3   OH267120   4.393   3.363   1.593 -0.1376 -0.3448  0.2060
15210TIP3    H167121   4.479   3.331   1.565 -0.3216 -0.6181 -0.0511
15210TIP3    H267122   4.354   3.288   1.638 -1.2275 -1.0191 -1.8170
15211TIP3   OH267123   4.982   3.807   5.360 -0.2342  0.1080 -0.4117
15211TIP3    H167124   5.031   3.742   5.411  1.3445  1.2368 -0.4428
15211TIP3    H267125   4.935   3.859   5.425  1.7757  1.5444 -0.0446
15212TIP3   OH267126   7.131   2.596   2.176  0.1760 -0.6482 -0.0243
15212TIP3    H167127   7.203   2.539   2.201  0.1428 -0.7669 -0.2002
15212TIP3    H267128   7.075   2.599   2.254  0.0370 -1.0721 -0.1072
15213TIP3   OH267129   0.883   2.294   1.455 -0.2629  0.3011  0.5484
15213TIP3    H167130   0.959   2.347   1.478  0.5393 -0.3728 -0.5086
15213TIP3    H267131   0.852   2.331   1.373 -0.9540  0.4434  0.8738
15214TIP3   OH267132   7.074   4.716   1.357  0.6607 -0.0011  0.2177
15214TIP3    H167133   7.075   4.667   1.275  0.0824 -1.2056  0.9131
15214TIP3    H267134   6.981   4.725   1.378  0.7830  0.9845  0.3430
15215TIP3   OH267135   6.104   4.699   2.822 -0.3288  0.4950 -0.4136
15215TIP3    H167136   6.134   4.637   2.755 -0.5232 -0.4623  0.3755
15215TIP3    H267137   6.173   4.697   2.889  0.2760  2.0779 -0.9592
15216TIP3   OH267138   3.724   5.864   2.674 -0.1272 -0.0284 -0.3802
15216TIP3    H167139   3.702   5.789   2.618  0.7571  0.0104 -0.7967
15216TIP3    H267140   3.791   5.911   2.624  0.9187 -0.1781  0.8775
15217TIP3   OH267141   3.785   5.558   1.224 -0.3949 -0.8895  0.0855
15217TIP3    H167142   3.839   5.483   1.197  0.9639  0.7759 -1.9717
15217TIP3    H267143   3.697   5.536   1.195 -0.0012 -1.6497 -0.5567
15218TIP3   OH267144   0.946   4.512   0.566 -0.2043  0.1336  0.1039
15218TIP3    H167145   0.924   4.603   0.586 -0.6996  0.0728 -0.1398
15218TIP3    H267146   0.887   4.461   0.622  0.7324 -0.0408  0.9445
15219TIP3   OH267147   7.141   5.177   3.460 -0.0906 -0.1563  0.2877
15219TIP3    H167148   7.120   5.234   3.386 -0.1420 -3.1484 -2.1199
15219TIP3    H267149   7.226   5.209   3.491  0.8703  0.0122 -2.3309
15220TIP3   OH267150   1.213   2.423   1.000  0.4265 -0.3340 -0.1691
15220TIP3    H167151   1.200   2.514   1.026 -1.2239 -0.5143 -0.3001
15220TIP3    H267152   1.141   2.375   1.042 -0.4533 -1.1137 -2.4646
15221TIP3   OH267153   6.480   4.033   3.389 -0.0464 -0.4108 -0.0608
15221TIP3    H167154   6.412   4.008   3.451  0.7358  0.3960  1.1523
15221TIP3    H267155   6.453   3.994   3.306 -2.1776  0.2008  0.3115
15222TIP3   OH267156   5.352   2.410   1.604  0.1038 -0.4196 -0.2903
15222TIP3    H167157   5.402   2.405   1.523 -0.7612 -0.9239 -0.7909
15222TIP3    H267158   5.392   2.344   1.661  0.5219 -0.2652 -0.4037
15223TIP3   OH267159   2.032   2.237   3.724  0.0358 -0.3687  0.6892
15223TIP3    H167160   1.961   2.299   3.708  1.2648  0.5767 -1.1758
15223TIP3    H267161   2.053   2.202   3.638 -0.2304 -2.9757  1.6245
15224TIP3   OH267162   3.135   3.224   3.076  0.0428 -0.1426 -0.1539
15224TIP3    H167163   3.055   3.267   3.045  0.3744  1.6857  1.4367
15224TIP3    H267164   3.204   3.255   3.017  0.0559  0.4729  0.1846
15225TIP3   OH267165   1.460   0.090   1.495 -0.2458  0.9980  0.0662
15225TIP3    H167166   1.470   0.148   1.420  1.1537 -0.5452 -0.9630
15225TIP3    H267167   1.532   0.115   1.554  1.0603 -0.4241 -0.8903
15226TIP3   OH267168   2.080   2.365   0.526  0.0458  0.2292 -0.7364
15226TIP3    H167169   2.039   2.420   0.593  1.1732  0.4368 -0.2169
15226TIP3    H267170   2.094   2.281   0.569 -0.4626 -0.0663 -1.1318
15227TIP3   OH267171   6.170   2.039   4.558 -0.5017 -0.0535  0.4491
15227TIP3    H167172   6.258   2.072   4.576  0.2687 -1.6272 -0.2805
15227TIP3    H267173   6.141   2.089   4.482 -0.3662  0.6893  0.8795
15228TIP3   OH267174   4.516   3.737   3.517  0.0201 -0.1799 -0.4058
15228TIP3    H167175   4.444   3.787   3.555  1.0792 -1.3369  3.3186
15228TIP3    H267176   4.591   3.755   3.574  2.4014  0.0039 -3.4562
15229TIP3   OH267177   0.040   0.219   2.434  0.1467 -0.6606  0.0595
15229TIP3    H167178   0.108   0.238   2.370 -0.0919  0.7063  0.1932
15229TIP3    H267179   0.057   0.129   2.461  2.1194 -0.2293  0.3398
15230TIP3   OH267180   5.874   5.447   3.802  0.3839  0.2284  0.1396
15230TIP3    H167181   5.926   5.397   3.865 -0.5333 -0.0025  0.7250
15230TIP3    H267182   5.788   5.404   3.802 -0.7036  2.3037  1.2794
15231TIP3   OH267183   5.192   2.960   3.716 -0.3905 -0.5635  0.3579
15231TIP3    H167184   5.151   2.910   3.787 -2.2001  0.9791  0.4486
15231TIP3    H267185   5.146   2.933   3.637  1.1606 -1.7695 -0.1616
15232TIP3   OH267186   5.491   1.503   1.210  0.0354  0.1170  0.2824
15232TIP3    H167187   5.450   1.476   1.128 -0.7559  1.5085  0.2001
15232TIP3    H267188   5.436   1.575   1.241  2.3205  1.8997  0.2690
15233TIP3   OH267189   6.941   6.829   3.257  0.2794  0.1543  0.1317
15233TIP3    H167190   7.007   6.841   3.326  0.1864 -0.9786  0.4278
15233TIP3    H267191   6.945   6.910   3.206 -0.5080  1.5237  2.2019
15234TIP3   OH267192   6.395   1.062   3.921  0.6614 -0.1784  0.4084
15234TIP3    H167193   6.425   1.046   4.011 -1.1674  2.4506  1.5518
15234TIP3    H267194   6.302   1.081   3.930  0.4918  0.3021 -2.0302
15235TIP3   OH267195   4.424   3.891   2.180 -0.3404  0.2068  0.0100
15235TIP3    H167196   4.430   3.907   2.086 -0.0618 -0.0335 -0.0112
15235TIP3    H267197   4.507   3.850   2.203 -0.9586 -0.9940  0.1080
15236TIP3   OH267198   5.967   2.386   1.161 -0.1385  0.6961  0.0458
15236TIP3    H167199   6.002   2.335   1.234 -1.9349  0.0348  0.4724
15236TIP3    H267200   6.038   2.445   1.136  0.6812  0.5332  1.9628
15237TIP3   OH267201   7.272   4.180   3.668  0.7330 -0.3624 -0.2239
15237TIP3    H167202   7.335   4.128   3.618 -1.9682 -2.7708 -1.2168
15237TIP3    H267203   7.232   4.238   3.604  0.1250 -0.6330 -0.0919
15238TIP3   OH267204   6.253   1.736   3.519 -0.1434 -0.0801  0.2050
15238TIP3    H167205   6.268   1.806   3.456 -0.2971  0.0257  0.2842
15238TIP3    H267206   6.158   1.736   3.532 -0.1052 -0.0429  0.5006
15239TIP3   OH267207   0.139   3.869   1.256  0.1458 -0.2698 -0.1119
15239TIP3    H167208   0.223   3.833   1.286 -0.3560 -1.7215 -0.4098
15239TIP3    H267209   0.132   3.953   1.301  1.6293 -0.2589  0.1380
15240TIP3   OH267210   7.286   3.211   4.615 -0.2652  0.3114  0.1704
15240TIP3    H167211   7.307   3.231   4.707  1.1726 -0.0703 -0.0557
15240TIP3    H267212   7.336   3.276   4.566  0.3709 -0.6074 -0.4006
15241TIP3   OH267213   0.164   1.005   1.976  0.1659  0.4422 -0.2380
15241TIP3    H167214   0.186   0.951   2.052 -0.4665  0.7776  0.1904
15241TIP3    H267215   0.101   1.068   2.009 -1.1429 -0.2601 -1.3525
15242TIP3   OH267216   7.127   4.065   3.889 -0.0051  0.0111 -0.3289
15242TIP3    H167217   7.106   3.972   3.886 -0.4317  0.1648 -2.4464
15242TIP3    H267218   7.166   4.085   3.804 -2.0043  2.2513 -0.7880
15243TIP3   OH267219   6.414   3.909   4.015  0.0316 -0.0838 -0.1732
15243TIP3    H167220   6.390   3.855   3.940  1.1650 -1.0599  0.1384
15243TIP3    H267221   6.460   3.848   4.074  1.0946  1.1618  0.3047
15244TIP3   OH267222   5.534   5.063   2.930  0.0218  0.0373  0.5478
15244TIP3    H167223   5.552   5.144   2.978  1.2738 -0.4042  0.8251
15244TIP3    H267224   5.538   5.088   2.838 -0.5992  0.5019  0.6450
15245TIP3   OH267225   6.116   3.222   1.133 -0.2348  0.3706 -0.0840
15245TIP3    H167226   6.147   3.183   1.215  0.8560  1.2427 -0.0794
15245TIP3    H267227   6.182   3.197   1.068 -1.5520 -1.0867 -0.9184
15246TIP3   OH267228   6.110   3.588   2.378  0.0285  0.0074 -0.5664
15246TIP3    H167229   6.046   3.581   2.307  0.1093 -0.8393 -0.5608
15246TIP3    H267230   6.081   3.525   2.443  0.2415  0.4234 -0.0641
15247TIP3   OH267231   5.014   2.237   4.551 -0.2620 -0.0473  0.0749
15247TIP3    H167232   5.020   2.142   4.558 -0.6150 -0.0133  0.8067
15247TIP3    H267233   4.928   2.259   4.586  0.1833  0.6299  0.7631
15248TIP3   OH267234   3.353   2.680   2.871  0.2358  0.1458  0.1553
15248TIP3    H167235   3.442   2.694   2.838  0.2442  0.3106  0.2439
15248TIP3    H267236   3.343   2.585   2.878  0.3876  0.1267  0.0964
15249TIP3   OH267237   4.921   3.249   2.073 -0.4368  0.1230  0.4201
15249TIP3    H167238   5.001   3.208   2.039 -0.3192  1.4867 -1.0181
15249TIP3    H267239   4.938   3.263   2.166 -0.1956 -2.3721  0.7875
15250TIP3   OH267240   4.036   1.956   2.299 -0.2326 -0.2652  0.0068
15250TIP3    H167241   4.095   2.029   2.319 -1.4542  0.3753  1.3545
15250TIP3    H267242   4.094   1.880   2.290  0.9693  0.6888 -0.5301
15251TIP3   OH267243   6.838   1.639   2.576 -0.3510 -0.2412  0.0136
15251TIP3    H167244   6.768   1.626   2.640 -1.4483 -0.9238 -1.3019
15251TIP3    H267245   6.868   1.551   2.554  3.1297  0.0956  2.8753
15252TIP3   OH267246   5.969   2.703   3.117  0.4389 -0.5369 -0.6454
15252TIP3    H167247   6.002   2.702   3.207 -1.6033 -0.1393  0.1158
15252TIP3    H267248   6.024   2.767   3.073  0.7855  0.0235  0.5654
15253TIP3   OH267249   5.759   1.668   0.655  0.6843 -0.3445 -0.3458
15253TIP3    H167250   5.811   1.670   0.736  0.7461 -1.6638 -0.3345
15253TIP3    H267251   5.724   1.756   0.647 -0.7598 -0.6491  2.0622
15254TIP3   OH267252   6.194   4.218   1.524  0.2128 -0.6845  0.1070
15254TIP3    H167253   6.260   4.156   1.492  0.2527 -0.8209  0.4456
15254TIP3    H267254   6.110   4.177   1.501  0.2341 -1.0306  0.6272
15255TIP3   OH267255   7.184   2.632   2.606  0.5943 -0.5531 -0.5873
15255TIP3    H167256   7.147   2.639   2.518 -1.2793 -0.2101  0.2022
15255TIP3    H267257   7.131   2.566   2.650  1.7511 -0.9872  0.1838
15256TIP3   OH267258   4.506   4.066   2.677  0.2584  0.5224  0.2000
15256TIP3    H167259   4.524   4.115   2.757 -0.3433  1.1374 -0.0389
15256TIP3    H267260   4.410   4.062   2.671  0.2215  3.3221 -2.1901
15257TIP3   OH267261   5.429   5.417   0.329 -0.4417  0.0307  0.1466
15257TIP3    H167262   5.402   5.446   0.242 -1.5146 -0.2253  0.3890
15257TIP3    H267263   5.463   5.496   0.372 -0.6805  0.3271 -0.2085
15258TIP3   OH267264   4.387   2.825   4.111 -0.5998 -0.5215  0.1047
15258TIP3    H167265   4.396   2.764   4.038 -1.1372 -1.3289  0.7051
15258TIP3    H267266   4.465   2.881   4.106 -0.7464 -0.4346 -1.2007
15259TIP3   OH267267   5.258   3.538   5.135  0.1121 -0.0195 -0.1055
15259TIP3    H167268   5.191   3.483   5.094 -0.8422 -1.1485  2.8294
15259TIP3    H267269   5.296   3.482   5.202  4.9395  0.1717 -2.4835
15260TIP3   OH267270   3.262   3.450   3.321  0.7163 -0.6816  0.7425
15260TIP3    H167271   3.233   3.493   3.401  2.4532 -1.1429  1.6585
15260TIP3    H267272   3.246   3.514   3.252  0.9847  0.4919  1.7472
15261TIP3   OH267273   0.487   2.122   2.452 -0.6466 -0.5491 -0.3424
15261TIP3    H167274   0.535   2.140   2.533 -1.2082 -0.1714 -0.0867
15261TIP3    H267275   0.458   2.209   2.422 -2.0992 -0.8646  0.0923
15262TIP3   OH267276   6.584   2.589   1.350  0.2227  0.4408  0.0699
15262TIP3    H167277   6.535   2.646   1.291  1.7894  2.8919  1.0871
15262TIP3    H267278   6.659   2.560   1.299 -0.6511 -0.8913 -0.4963
15263TIP3   OH267279   2.383   1.099   2.802 -0.5230 -0.4791 -0.2095
15263TIP3    H167280   2.335   1.058   2.874 -1.6868 -0.2633 -0.8416
15263TIP3    H267281   2.438   1.164   2.844 -1.6194  0.0481  0.4486
15264TIP3   OH267282   0.622   1.863   2.394  0.2511 -0.6869 -0.2504
15264TIP3    H167283   0.696   1.881   2.452 -0.8686 -0.5101  1.1585
15264TIP3    H267284   0.550   1.913   2.432 -1.1477 -2.6120 -0.3473
15265TIP3   OH267285   1.734   4.090   2.622 -0.0691 -0.1955  0.1420
15265TIP3    H167286   1.813   4.050   2.584 -0.1994 -0.5455  0.2334
15265TIP3    H267287   1.713   4.034   2.696  0.1216  0.4272  0.6735
15266TIP3   OH267288   1.294   3.754   3.179  0.1509 -0.1349  0.0044
15266TIP3    H167289   1.263   3.669   3.210 -2.0132  0.2860 -0.9412
15266TIP3    H267290   1.295   3.746   3.084 -0.9324  1.1766 -0.1336
15267TIP3   OH267291   6.693   4.601   1.708  0.4250 -0.6397 -0.3597
15267TIP3    H167292   6.671   4.573   1.797 -0.4569 -0.8486 -0.6432
15267TIP3    H267293   6.610   4.597   1.661  0.5043  1.3691 -0.6923
15268TIP3   OH267294   2.148   4.206   3.567 -0.1238 -0.5294  0.0957
15268TIP3    H167295   2.067   4.257   3.559 -0.8481 -1.2135  2.7236
15268TIP3    H267296   2.123   4.117   3.543  0.3883 -0.3030 -1.3038
15269TIP3   OH267297   5.773   4.568   2.224  0.0620  0.1610  0.3190
15269TIP3    H167298   5.828   4.570   2.302  0.4682  0.2313  0.0312
15269TIP3    H267299   5.830   4.534   2.155 -0.7423 -1.3918  0.4011
15270TIP3   OH267300   1.955   6.195   3.762 -0.5073  0.0730  0.2712
15270TIP3    H167301   1.923   6.206   3.852  2.0724  1.3057  1.0947
15270TIP3    H267302   1.961   6.285   3.728  1.5847 -0.1343  0.0173
15271TIP3   OH267303   7.038   4.378   1.632  0.1040  0.3207 -0.1243
15271TIP3    H167304   6.979   4.375   1.707 -0.8678  0.5280 -0.8767
15271TIP3    H267305   7.085   4.294   1.636 -0.2770  0.1322  0.4433
15272TIP3   OH267306   2.903   4.927   1.060  0.1256  0.1925  0.0944
15272TIP3    H167307   2.809   4.939   1.046  0.1940  0.4125 -0.1793
15272TIP3    H267308   2.908   4.863   1.131 -0.2484  1.9430  1.7408
15273TIP3   OH267309   1.655   4.607   4.484 -0.3665 -0.1637 -0.7132
15273TIP3    H167310   1.666   4.702   4.480  0.3961 -0.2911 -1.9488
15273TIP3    H267311   1.682   4.582   4.572  0.2152  0.6714 -0.6547
15274TIP3   OH267312   0.068   2.552   2.263 -0.6966  0.5651  0.3131
15274TIP3    H167313   0.114   2.614   2.320 -0.0108 -0.1630  0.5598
15274TIP3    H267314   0.131   2.482   2.248 -1.1885  0.3171 -0.6205
15275TIP3   OH267315   2.485   3.251   5.740  0.3448  0.1958  0.2999
15275TIP3    H167316   2.545   3.305   5.689  0.3107  0.7118  0.7983
15275TIP3    H267317   2.422   3.313   5.777  0.0277 -0.2370  0.4963
15276TIP3   OH267318   2.189   3.202   2.661 -0.2060 -0.0853 -0.0229
15276TIP3    H167319   2.108   3.249   2.645  0.2378  1.1344  1.1988
15276TIP3    H267320   2.187   3.181   2.755  1.3952  0.9774  0.2735
15277TIP3   OH267321   7.119   6.085   4.041 -0.4326 -0.3329  0.3795
15277TIP3    H167322   7.117   6.118   4.131  0.0723 -0.8128  0.5711
15277TIP3    H267323   7.031   6.101   4.007 -0.3014  0.8653  0.5883
15278TIP3   OH267324   1.956   6.899   5.061  0.2462  0.4253 -0.0507
15278TIP3    H167325   1.906   6.980   5.056 -0.5765 -0.0058  0.7714
15278TIP3    H267326   1.889   6.831   5.073  0.9450 -0.3240 -0.3471
15279TIP3   OH267327   2.056   3.913   3.725 -0.0836 -0.3127 -0.2771
15279TIP3    H167328   2.046   3.934   3.632 -1.2136 -0.6069 -0.2289
15279TIP3    H267329   2.147   3.935   3.744 -0.1786  0.9364 -1.1531
15280TIP3   OH267330   0.413   3.939   2.393  0.0883  0.0904  0.6714
15280TIP3    H167331   0.445   3.909   2.478  1.2124  1.0803  0.6161
15280TIP3    H267332   0.358   4.014   2.413  1.9860  1.5815  0.3942
15281TIP3   OH267333   1.766   3.795   3.579  0.1558 -0.1587 -0.0731
15281TIP3    H167334   1.708   3.727   3.544 -1.4833  2.1388 -2.0128
15281TIP3    H267335   1.814   3.827   3.502  0.6854  1.0925  0.7723
15282TIP3   OH267336   4.691   3.114   3.085 -0.4703 -0.3241  0.0964
15282TIP3    H167337   4.665   3.072   3.166 -0.8404 -0.0420  0.1263
15282TIP3    H267338   4.753   3.053   3.044  0.1904 -0.1883  0.8785
15283TIP3   OH267339   1.280   5.381   1.179 -0.5052  0.6155  0.2254
15283TIP3    H167340   1.256   5.326   1.104 -0.5966 -0.3255  0.9378
15283TIP3    H267341   1.360   5.342   1.213 -0.6027  0.8928  0.7774
15284TIP3   OH267342   6.915   2.736   3.360 -0.0804  0.3000 -0.1149
15284TIP3    H167343   6.980   2.706   3.297  0.5743 -2.4794  1.7855
15284TIP3    H267344   6.965   2.766   3.435 -0.9060  0.5281  0.3587
15285TIP3   OH267345   0.287   4.284   3.546  0.2506  0.0232 -0.2039
15285TIP3    H167346   0.253   4.363   3.505  0.8670  1.2342  1.5625
15285TIP3    H267347   0.242   4.212   3.502 -1.7182  1.4377 -0.5402
15286TIP3   OH267348   1.692   4.155   3.009  0.3238  0.5602  0.3503
15286TIP3    H167349   1.782   4.186   3.016  0.9963 -1.4890  1.2884
15286TIP3    H267350   1.641   4.233   2.986  2.4888  1.4926 -1.4408
15287TIP3   OH267351   3.134   2.258   3.115 -0.1069  0.0429  0.2831
15287TIP3    H167352   3.083   2.211   3.181 -1.5264  0.6101 -0.3885
15287TIP3    H267353   3.183   2.189   3.070 -0.1675 -0.4995  1.0212
15288TIP3   OH267354   1.993   2.021   1.662  0.2242  0.0355  0.7110
15288TIP3    H167355   2.044   2.043   1.584  1.0971  2.7223  1.9520
15288TIP3    H267356   1.950   1.939   1.641  0.3472  0.7596 -2.6479
15289TIP3   OH267357   0.470   4.859   2.057 -0.2519 -0.0507 -0.3061
15289TIP3    H167358   0.402   4.806   2.017 -0.6980 -0.2208  0.6711
15289TIP3    H267359   0.427   4.940   2.083  0.3240  0.6044 -1.3604
15290TIP3   OH267360   1.773   4.625   4.752 -0.4360  0.2560  0.3403
15290TIP3    H167361   1.779   4.719   4.768  1.9597  0.6124 -2.2818
15290TIP3    H267362   1.857   4.590   4.783 -0.5070 -0.7114 -0.5430
15291TIP3   OH267363   2.624   3.931   4.881  0.0904 -0.0634  0.5762
15291TIP3    H167364   2.631   4.014   4.835 -0.1396 -0.4295 -0.1297
15291TIP3    H267365   2.709   3.921   4.926  0.6676 -0.1341 -0.5097
15292TIP3   OH267366   1.348   3.913   2.378 -0.4298 -0.1712 -0.2905
15292TIP3    H167367   1.321   3.953   2.296 -2.2289 -3.0683 -1.1821
15292TIP3    H267368   1.297   3.959   2.445  0.4384  1.6453 -0.8568
15293TIP3   OH267369   2.106   5.561   3.138  0.4090  0.0524  0.4212
15293TIP3    H167370   2.048   5.485   3.135 -1.0056  1.1185  0.6327
15293TIP3    H267371   2.193   5.524   3.148  0.1878 -1.7664 -3.4082
15294TIP3   OH267372   0.705   3.470   3.800 -0.2839  0.5595  0.1672
15294TIP3    H167373   0.784   3.498   3.845  0.1910 -0.3132 -0.1103
15294TIP3    H267374   0.665   3.406   3.860 -0.6529  0.8133  0.1973
15295TIP3   OH267375   2.354   4.373   2.179  0.2669 -0.2793 -0.6506
15295TIP3    H167376   2.264   4.356   2.206  0.5703  0.1436  0.6389
15295TIP3    H267377   2.366   4.318   2.101 -1.0305 -0.5022 -0.7050
15296TIP3   OH267378   1.001   3.711   5.296  0.0052  0.1429  0.0651
15296TIP3    H167379   0.941   3.724   5.370  0.8061  0.7992  0.6065
15296TIP3    H267380   0.948   3.730   5.219 -0.1376  2.1052  0.6025
15297TIP3   OH267381   7.328   5.937   2.703 -0.0589  0.8389 -0.0920
15297TIP3    H167382   7.254   5.998   2.710  0.3829  1.9083 -3.7030
15297TIP3    H267383   7.298   5.872   2.639  1.0185 -0.4567  0.7061
15298TIP3   OH267384   2.414   0.033   2.820  0.6148  0.2248  0.1551
15298TIP3    H167385   2.436   0.059   2.909  0.9065 -2.9346  1.0823
15298TIP3    H267386   2.324   0.001   2.826  1.0361 -1.1009 -0.4210
15299TIP3   OH267387   2.232   4.168   1.571  0.4693 -0.2837  0.1774
15299TIP3    H167388   2.293   4.100   1.598  1.7049  0.3898 -0.8270
15299TIP3    H267389   2.210   4.146   1.480  0.1542  0.1333  0.1478
15300TIP3   OH267390   0.772   5.743   4.911 -0.6045 -0.0870 -0.1697
15300TIP3    H167391   0.741   5.659   4.877  1.7771 -0.4819 -1.4273
15300TIP3    H267392   0.776   5.800   4.834  0.5348  0.3319  0.1903
15301TIP3   OH267393   1.502   4.453   4.044 -0.0723  0.1492  0.2942
15301TIP3    H167394   1.450   4.378   4.074 -0.3270  0.4810  0.6838
15301TIP3    H267395   1.591   4.433   4.074  0.4513 -1.4120 -2.1543
15302TIP3   OH267396   1.447   4.292   1.860  0.5677 -0.4585 -0.3534
15302TIP3    H167397   1.533   4.253   1.850  0.7205 -0.4546  0.8486
15302TIP3    H267398   1.464   4.384   1.879  0.2512 -0.1306 -1.6290
15303TIP3   OH267399   1.325   4.681   4.079 -0.2376  0.0125  0.2184
15303TIP3    H167400   1.393   4.624   4.044  0.2249  1.6339 -1.5905
15303TIP3    H267401   1.341   4.682   4.174  1.0799 -1.1140  0.0205
15304TIP3   OH267402   0.263   2.553   1.897  0.0928 -0.1212 -0.1233
15304TIP3    H167403   0.279   2.585   1.986  2.5512  1.1672 -0.9708
15304TIP3    H267404   0.278   2.459   1.903 -0.7429 -0.1980  1.0303
15305TIP3   OH267405   0.739   3.586   3.254  0.1277  0.2409  0.2386
15305TIP3    H167406   0.672   3.643   3.291 -0.0615 -0.8844  1.6538
15305TIP3    H267407   0.715   3.498   3.284  1.1226 -0.4277 -0.8807
15306TIP3   OH267408   0.823   3.085   0.612 -0.0385 -0.2426 -0.0977
15306TIP3    H167409   0.839   3.032   0.690  2.0648  0.5501  0.0400
15306TIP3    H267410   0.894   3.148   0.611 -1.3607  1.2740 -1.3870
15307TIP3   OH267411   0.558   4.131   1.281  0.3061  0.4886 -0.7222
15307TIP3    H167412   0.482   4.189   1.277 -0.0162  0.1598  0.4749
15307TIP3    H267413   0.622   4.178   1.335 -0.5326 -0.8995  1.5294
15308TIP3   OH267414   2.620   4.622   1.110  0.3153 -0.0795 -0.2455
15308TIP3    H167415   2.613   4.690   1.043  0.9467 -0.9343 -1.1901
15308TIP3    H267416   2.656   4.546   1.064  0.5539 -0.7473  1.0141
15309TIP3   OH267417   1.960   4.031   4.682  0.0610 -0.2237  0.7822
15309TIP3    H167418   1.929   4.036   4.773 -0.1745 -0.9696  0.7466
15309TIP3    H267419   1.932   3.944   4.652  2.9820 -1.3075  1.0434
15310TIP3   OH267420   2.510   0.320   5.118  0.3384 -0.1310  0.1094
15310TIP3    H167421   2.511   0.297   5.211  0.0955 -0.3672  0.0568
15310TIP3    H267422   2.420   0.301   5.091  0.0062  1.3027  0.1641
15311TIP3   OH267423   2.336   4.916   2.202  0.4268 -0.3121  0.3666
15311TIP3    H167424   2.368   4.979   2.138 -0.0952 -0.0707  0.3461
15311TIP3    H267425   2.257   4.880   2.163 -1.2752  1.6135  1.9257
15312TIP3   OH267426   0.753   4.962   3.487 -0.0755  0.2751 -0.4457
15312TIP3    H167427   0.709   4.996   3.408  2.2728 -1.8234 -2.7474
15312TIP3    H267428   0.726   4.871   3.491  1.4683 -0.1636 -0.0073
15313TIP3   OH267429   1.500   6.457   4.158 -0.0822 -0.6692  0.7234
15313TIP3    H167430   1.509   6.523   4.089  0.2770 -0.1247  1.2841
15313TIP3    H267431   1.427   6.403   4.130  0.0460 -0.4349 -0.0742
15314TIP3   OH267432   1.175   4.419   3.857 -0.2260 -0.0524  0.1174
15314TIP3    H167433   1.174   4.445   3.950  1.2232  2.9284 -0.6220
15314TIP3    H267434   1.127   4.489   3.813 -0.9264 -1.4731 -1.3831
15315TIP3   OH267435   1.538   6.246  15.947  0.3815  0.5350  0.1680
15315TIP3    H167436   1.511   6.335  15.967  0.7640  1.0264 -1.4407
15315TIP3    H267437   1.608   6.228  16.009 -1.9236  0.1078  2.7651
15316TIP3   OH267438   2.135   1.306   3.608  0.1288 -0.4593  0.2006
15316TIP3    H167439   2.045   1.332   3.624  0.2677 -0.4483  0.9816
15316TIP3    H267440   2.135   1.211   3.619  0.2218 -0.4533  0.2577
15317TIP3   OH267441   2.050   4.975   4.417 -0.1929 -0.0257  0.1753
15317TIP3    H167442   2.042   4.898   4.474  0.5247  0.7594  1.3653
15317TIP3    H267443   2.011   5.046   4.468 -1.5224  0.2594 -1.2253
15318TIP3   OH267444   2.070   5.857   1.900  0.3238  0.4014 -0.3898
15318TIP3    H167445   2.087   5.951   1.904 -0.8548  0.7305 -2.7204
15318TIP3    H267446   2.039   5.835   1.988  0.5819  2.1747  0.1712
15319TIP3   OH267447   2.170   1.595   4.139  0.0319 -0.3696  0.5800
15319TIP3    H167448   2.204   1.658   4.203  0.8046 -1.4489  1.2506
15319TIP3    H267449   2.084   1.629   4.116  0.3627  0.8295  1.0826
15320TIP3   OH267450   0.707   4.585   4.352 -0.0805  0.3678  0.0817
15320TIP3    H167451   0.631   4.591   4.411 -1.0837  0.3417 -1.1886
15320TIP3    H267452   0.720   4.491   4.339 -0.8015  0.3975 -0.9163
15321TIP3   OH267453   1.257   3.320   4.800 -0.5097 -0.1079 -0.0130
15321TIP3    H167454   1.342   3.320   4.758 -0.8373 -0.7332 -0.6731
15321TIP3    H267455   1.276   3.313   4.894  0.1847  0.5765 -0.1002
15322TIP3   OH267456   1.596   3.388   3.247 -0.2388 -0.7361 -0.2018
15322TIP3    H167457   1.602   3.339   3.165 -0.8597 -2.5268  0.8042
15322TIP3    H267458   1.503   3.387   3.269 -0.3723  1.5559 -0.5368
15323TIP3   OH267459   7.061   4.471   0.399 -0.6698 -0.3821  0.4336
15323TIP3    H167460   7.115   4.452   0.322 -0.7868 -0.6537  0.4194
15323TIP3    H267461   6.988   4.409   0.394 -0.6671 -0.4166  0.7736
15324TIP3   OH267462   0.013   0.705   2.154 -0.5857 -0.1691  0.0898
15324TIP3    H167463  -0.071   0.750   2.147 -0.3429  0.6989  2.2072
15324TIP3    H267464   0.075   0.774   2.178  0.2736 -1.1863  0.8420
15325TIP3   OH267465   0.424   6.403   4.194  0.8815 -0.2401 -0.3415
15325TIP3    H167466   0.507   6.437   4.226  1.0208  0.1923 -1.1565
15325TIP3    H267467   0.362   6.475   4.207  0.4836 -0.7862  0.8698
15326TIP3   OH267468   0.454   3.517   3.420  0.4009  0.0066  0.4559
15326TIP3    H167469   0.468   3.448   3.484 -0.9824 -0.5654  0.1751
15326TIP3    H267470   0.499   3.594   3.455 -0.5908 -0.2123  2.2586
15327TIP3   OH267471   0.582   4.666   5.637 -0.6848  0.3676 -0.3484
15327TIP3    H167472   0.638   4.723   5.691 -0.4060  0.7397 -1.0250
15327TIP3    H267473   0.573   4.713   5.554  0.0289 -0.8396 -1.1232
15328TIP3   OH267474   2.123   4.885   2.471  0.1525 -0.3732  0.3565
15328TIP3    H167475   2.149   4.965   2.425 -0.7791 -0.5871 -0.5709
15328TIP3    H267476   2.199   4.827   2.464  1.0200  0.5932  1.4674
15329TIP3   OH267477   0.937   7.312   4.427 -0.4680 -0.5676 -0.0086
15329TIP3    H167478   0.915   7.230   4.471 -1.9466  0.4447  1.1841
15329TIP3    H267479   0.882   7.314   4.349 -0.8413 -0.4495  0.2577
15330TIP3   OH267480   0.745   2.581   1.303  0.1070  0.2238 -0.3615
15330TIP3    H167481   0.801   2.657   1.318 -0.2656  0.5863 -0.8072
15330TIP3    H267482   0.686   2.579   1.378 -1.9902  2.2389 -1.8943
15331TIP3   OH267483   7.061   2.577   2.870 -0.0102  0.2871 -0.1822
15331TIP3    H167484   7.004   2.653   2.869  0.1824  0.4354  0.0950
15331TIP3    H267485   7.007   2.507   2.907  0.2663  0.6486  0.9238
15332TIP3   OH267486   5.642   5.548   2.723  0.0127  0.0901 -0.1927
15332TIP3    H167487   5.690   5.497   2.658 -0.5758  1.0954 -1.4258
15332TIP3    H267488   5.709   5.578   2.784  0.6890 -0.1023 -0.8403
15333TIP3   OH267489   0.267   0.806   1.215  0.5169  0.0815 -0.0404
15333TIP3    H167490   0.263   0.902   1.214 -1.9393  0.0197  1.2298
15333TIP3    H267491   0.203   0.778   1.150  1.1446 -0.7150 -0.3294
15334TIP3   OH267492   2.298   4.012   3.802 -0.2546  0.2819 -0.6619
15334TIP3    H167493   2.300   4.094   3.753  3.0840 -0.6097 -2.1921
15334TIP3    H267494   2.379   4.013   3.854  0.4112 -2.4703 -1.5430
15335TIP3   OH267495   7.335   2.155   3.894 -0.0270 -0.1456  0.6141
15335TIP3    H167496   7.267   2.146   3.827 -0.6431 -0.0324  1.2190
15335TIP3    H267497   7.297   2.214   3.959  0.8371  0.3107  0.7222
15336TIP3   OH267498   2.383   3.799   5.287  0.0501  0.4215  0.6153
15336TIP3    H167499   2.470   3.787   5.325  0.1844 -0.4470  0.0417
15336TIP3    H267500   2.397   3.789   5.193 -0.9335 -1.3815  0.6334
15337TIP3   OH267501   2.477   2.425   1.903 -0.2414  0.4061 -0.4437
15337TIP3    H167502   2.469   2.450   1.995 -0.8107  1.4444 -0.7679
15337TIP3    H267503   2.571   2.412   1.890  0.0504  2.1103 -0.1939
15338TIP3   OH267504   0.796   5.334   1.688 -0.3874  0.3618 -0.1598
15338TIP3    H167505   0.794   5.423   1.653  3.2237  0.3173 -0.7193
15338TIP3    H267506   0.851   5.286   1.627 -0.3015 -1.6469  1.4456
15339TIP3   OH267507   2.435   0.086   3.073  0.2867 -0.0391  0.4715
15339TIP3    H167508   2.360   0.125   3.117  0.9322  3.3783 -1.3359
15339TIP3    H267509   2.511   0.114   3.124  0.7084  0.6559 -0.5187
15340TIP3   OH267510   1.887   5.555   1.892 -0.5886  0.5454 -0.2477
15340TIP3    H167511   1.884   5.634   1.837 -1.1921  1.9870  1.7724
15340TIP3    H267512   1.801   5.514   1.878 -0.4717  0.5231 -0.9177
15341TIP3   OH267513   2.378   0.437   1.137 -0.5365 -0.2549 -0.0701
15341TIP3    H167514   2.365   0.494   1.061 -0.0050  1.9939  1.4614
15341TIP3    H267515   2.464   0.397   1.123 -0.4747  0.0845 -0.6841
15342TIP3   OH267516   6.967   3.750   1.795 -0.2483 -0.1433 -0.2152
15342TIP3    H167517   7.048   3.702   1.774  0.5131  0.1683  1.8877
15342TIP3    H267518   6.996   3.839   1.813 -1.1495  0.1193 -0.0430
15343TIP3   OH267519   1.542   4.534   2.177 -0.2035  0.1174  0.0468
15343TIP3    H167520   1.534   4.439   2.184 -1.3288 -0.0220 -2.6779
15343TIP3    H267521   1.456   4.563   2.145 -0.2443  2.1906  1.8850
15344TIP3   OH267522   0.780   5.046   4.607  0.3992 -0.3173 -0.4705
15344TIP3    H167523   0.794   5.100   4.685  1.4759  0.8149 -1.4155
15344TIP3    H267524   0.798   4.956   4.636 -1.8497 -0.2537  1.2354
15345TIP3   OH267525   2.304   5.513   4.407  0.5678  0.0495 -0.2567
15345TIP3    H167526   2.384   5.504   4.457 -0.3017 -1.3658  0.9044
15345TIP3    H267527   2.273   5.602   4.426  0.2516 -0.4623  1.7325
15346TIP3   OH267528   0.682   1.545   3.106 -0.3275  0.2960 -0.1503
15346TIP3    H167529   0.621   1.487   3.059  0.1665 -0.9300  0.6867
15346TIP3    H267530   0.767   1.529   3.065  0.4765 -2.2049  2.3358
15347TIP3   OH267531   0.984   4.170   3.195  0.1055 -0.6612 -0.4622
15347TIP3    H167532   0.972   4.209   3.282  0.9008  1.9576 -1.4695
15347TIP3    H267533   1.045   4.098   3.209  0.7432  0.1486  1.0633
15348TIP3   OH267534   1.905   2.499   0.739 -0.2533 -0.3569  0.0043
15348TIP3    H167535   1.835   2.486   0.803 -0.7127  0.3237 -0.3542
15348TIP3    H267536   1.897   2.591   0.713  1.6721  0.1168  1.0113
15349TIP3   OH267537   4.618   5.140   2.296  0.1333  0.6044  0.0036
15349TIP3    H167538   4.580   5.188   2.369  1.1679  2.1330 -0.4537
15349TIP3    H267539   4.697   5.100   2.332 -1.4329 -1.9395  0.7487
15350TIP3   OH267540   1.401   4.977   2.068 -0.1209  0.2386  0.3340
15350TIP3    H167541   1.450   5.045   2.115  0.9577  0.4121 -0.9999
15350TIP3    H267542   1.359   5.023   1.996 -1.0724 -0.1692  0.6240
15351TIP3   OH267543   0.164   6.016   3.709 -0.0406 -0.1939 -0.7967
15351TIP3    H167544   0.085   6.058   3.742  1.6970  2.1780  0.5232
15351TIP3    H267545   0.163   6.032   3.615 -1.1359 -0.2438 -0.8031
15352TIP3   OH267546   1.851   2.436   3.665 -0.0383  0.1493  0.0494
15352TIP3    H167547   1.760   2.451   3.692  0.0012  1.9450 -0.7400
15352TIP3    H267548   1.857   2.477   3.579  1.5511  0.0909  0.1285
15353TIP3   OH267549   5.952   5.547   4.825 -0.0617 -0.1626  0.3102
15353TIP3    H167550   5.883   5.590   4.874 -0.4748 -2.5888  1.9624
15353TIP3    H267551   6.030   5.600   4.843 -0.6006  0.0952  2.0680
15354TIP3   OH267552   2.310   2.056   3.692  0.3387 -0.1509  0.5240
15354TIP3    H167553   2.229   2.045   3.742 -0.7329  0.6083 -0.9863
15354TIP3    H267554   2.325   1.971   3.652 -1.5054  0.5299 -1.7517
15355TIP3   OH267555   2.442   6.394   4.280  0.3628  0.4489 -0.4545
15355TIP3    H167556   2.350   6.373   4.267 -0.1809  2.1483  0.3755
15355TIP3    H267557   2.468   6.341   4.355 -0.0316  0.1938 -0.4957
15356TIP3   OH267558   1.991   5.679   1.217 -0.4684  0.3544  0.2449
15356TIP3    H167559   2.085   5.696   1.225 -0.4981  0.4503  0.3881
15356TIP3    H267560   1.983   5.629   1.136 -0.3856  1.0710 -0.2178
15357TIP3   OH267561   2.499   4.356   3.115 -0.4174  0.7001  0.2992
15357TIP3    H167562   2.485   4.386   3.205 -1.6330  3.1487 -0.6631
15357TIP3    H267563   2.579   4.400   3.087  1.2068 -1.7861  0.8694
15358TIP3   OH267564   2.619   6.696   4.317 -0.2713  0.1832  0.0447
15358TIP3    H167565   2.567   6.651   4.384 -0.8080 -0.0217 -0.5058
15358TIP3    H267566   2.568   6.686   4.236  1.2809 -1.2148 -0.8003
15359TIP3   OH267567   5.938   6.165   3.116 -0.1617  0.7701  0.4335
15359TIP3    H167568   5.882   6.238   3.142  0.2363  0.5594  1.9443
15359TIP3    H267569   5.894   6.088   3.151  1.3445  0.6524  2.1596
15360TIP3   OH267570   1.780   4.217   2.189  0.3131  0.1158  0.3190
15360TIP3    H167571   1.708   4.160   2.217  1.4613 -1.6400 -0.2133
15360TIP3    H267572   1.775   4.217   2.094  0.7269  0.3831  0.2941
15361TIP3   OH267573   2.519   5.952   2.404  0.5255 -0.4524 -0.0039
15361TIP3    H167574   2.562   6.001   2.474 -0.1251  0.4473 -0.2339
15361TIP3    H267575   2.588   5.938   2.339  0.4104  1.2417 -0.5055
15362TIP3   OH267576   0.169   5.498   1.312 -0.0346  0.1900 -0.0624
15362TIP3    H167577   0.132   5.448   1.384 -2.4478  0.1588 -1.2755
15362TIP3    H267578   0.095   5.515   1.253  1.9323 -0.2348 -2.7988
15363TIP3   OH267579   0.369   6.198   2.986  0.4716 -0.0652  0.3448
15363TIP3    H167580   0.320   6.163   2.912  1.5950 -1.6188  0.3082
15363TIP3    H267581   0.303   6.234   3.045 -0.4162  1.4080 -1.5188
15364TIP3   OH267582   1.521   3.261   4.194  0.5152 -0.0681  0.5317
15364TIP3    H167583   1.560   3.192   4.248  1.5531 -1.3868 -1.8318
15364TIP3    H267584   1.594   3.317   4.169  0.2658 -0.3030 -0.7198
15365TIP3   OH267585   2.001   5.237   3.494  0.1061  0.8052  0.4089
15365TIP3    H167586   1.912   5.228   3.460  0.5495  0.0850 -0.5930
15365TIP3    H267587   2.008   5.168   3.560 -0.5381  1.7798  1.5178
15366TIP3   OH267588   3.397   5.696   2.754  0.6423 -0.2611 -0.6174
15366TIP3    H167589   3.363   5.692   2.664  2.1298 -0.5123 -1.1917
15366TIP3    H267590   3.486   5.660   2.747  1.3415  1.1547  0.6622
15367TIP3   OH267591   6.883   3.679   4.103  0.2140 -0.5463  0.4164
15367TIP3    H167592   6.812   3.637   4.054 -0.3023 -0.4602  1.0945
15367TIP3    H267593   6.942   3.608   4.126  0.2845 -0.6367 -0.0273
15368TIP3   OH267594   7.188   3.214   2.593  0.6296  0.1565  0.0227
15368TIP3    H167595   7.114   3.155   2.606  1.9707 -1.5759 -0.1485
15368TIP3    H267596   7.261   3.157   2.572  1.9926  1.8737  0.0219
15369TIP3   OH267597   1.914   6.693   4.219 -0.3445 -0.0010 -0.5914
15369TIP3    H167598   1.939   6.724   4.132  2.7263  2.1499  0.9909
15369TIP3    H267599   1.822   6.719   4.228 -0.2523  1.1164 -2.5790
15370TIP3   OH267600   7.265   4.011  15.822 -0.3171  0.2431  0.3324
15370TIP3    H167601   7.215   3.981  15.899 -0.5141 -0.7823 -0.1824
15370TIP3    H267602   7.350   3.967  15.831 -0.6021 -0.4777 -0.4238
15371TIP3   OH267603   0.526   3.802   0.971 -0.4126 -0.1655  0.2845
15371TIP3    H167604   0.601   3.816   1.029  0.1218 -1.0496 -0.1852
15371TIP3    H267605   0.496   3.713   0.990 -2.4683  0.7824  1.7262
15372TIP3   OH267606   0.506   5.742   2.614  0.1462 -0.0038 -0.0203
15372TIP3    H167607   0.518   5.824   2.566 -1.5575  0.0945 -0.3222
15372TIP3    H267608   0.515   5.674   2.547 -1.1861  0.0809 -0.2908
15373TIP3   OH267609   1.263   2.445   4.843  0.1168  0.2001 -0.2106
15373TIP3    H167610   1.216   2.452   4.926 -0.6673  0.0336 -0.6334
15373TIP3    H267611   1.239   2.359   4.808 -0.6981  0.8497 -1.2868
15374TIP3   OH267612   3.321   5.240   1.889 -0.5622 -0.0303 -0.0828
15374TIP3    H167613   3.272   5.170   1.933  0.0592  0.7389  1.8346
15374TIP3    H267614   3.405   5.242   1.933 -0.3386  1.5321 -0.5632
15375TIP3   OH267615   1.462   3.792   3.393  0.1061  0.0739  0.2082
15375TIP3    H167616   1.413   3.815   3.314  0.6970  0.0015 -0.1857
15375TIP3    H267617   1.399   3.744   3.447 -0.3189  0.1769 -0.1940
15376TIP3   OH267618   2.514   4.536   2.313  0.5747  0.1366  0.1644
15376TIP3    H167619   2.549   4.547   2.225  0.0357 -0.4942 -0.1373
15376TIP3    H267620   2.443   4.472   2.303 -0.4776  1.1605  0.7930
15377TIP3   OH267621   0.759   3.966   3.477 -0.1324  0.1008 -0.2658
15377TIP3    H167622   0.681   4.021   3.480  0.9112  1.6475 -1.1165
15377TIP3    H267623   0.803   3.983   3.561  0.2644  0.6737 -0.5900
15378TIP3   OH267624   6.594   3.764   3.100 -0.8718  0.0314  0.1799
15378TIP3    H167625   6.641   3.680   3.096  1.4700  1.1969  2.5256
15378TIP3    H267626   6.508   3.741   3.136  0.6047 -1.0269  3.1215
15379TIP3   OH267627   6.870   3.561   0.351  0.2263  0.1947  0.3724
15379TIP3    H167628   6.953   3.597   0.318 -0.3717  2.0366  0.8354
15379TIP3    H267629   6.840   3.504   0.280  1.1108  0.7321 -0.4534
15380TIP3   OH267630   1.873   3.218   4.283  0.0928 -0.1430 -0.2019
15380TIP3    H167631   1.900   3.138   4.328 -2.3137 -0.1387  1.3711
15380TIP3    H267632   1.858   3.191   4.193 -0.6637 -1.4663  0.3138
15381TIP3   OH267633   1.434   3.723   5.411  0.0761 -0.1623 -0.2547
15381TIP3    H167634   1.509   3.745   5.355  0.2581 -0.3360 -0.0796
15381TIP3    H267635   1.473   3.699   5.495 -0.2409  0.8302  0.1787
15382TIP3   OH267636   0.940   3.440   5.279 -0.6240 -0.4809 -0.8154
15382TIP3    H167637   0.881   3.435   5.355 -1.8718  0.9240 -1.6470
15382TIP3    H267638   0.981   3.526   5.287  1.0260 -1.2974 -0.4640
15383TIP3   OH267639   0.228   3.542   3.266 -0.3346 -0.0888  0.2806
15383TIP3    H167640   0.202   3.633   3.248 -0.8037 -0.3405 -0.3291
15383TIP3    H267641   0.300   3.550   3.329  0.7817  0.7932 -1.0587
15384TIP3   OH267642   0.189   2.385   4.327 -0.2213  0.2220 -0.5103
15384TIP3    H167643   0.217   2.435   4.251 -0.2217  1.0686  0.0313
15384TIP3    H267644   0.267   2.337   4.355 -0.3588 -0.5050 -1.3454
15385TIP3   OH267645   1.190   4.453   4.389 -0.2894  0.2109  0.2569
15385TIP3    H167646   1.119   4.517   4.376 -0.6321  0.3624  2.7654
15385TIP3    H267647   1.265   4.492   4.344 -1.1494  1.2209 -0.3268
15386TIP3   OH267648   0.591   5.867   3.309 -0.1427  0.9163  0.3217
15386TIP3    H167649   0.541   5.940   3.346  0.4653  0.5673  1.8696
15386TIP3    H267650   0.585   5.880   3.214 -1.9541  1.6785  0.5255
15387TIP3   OH267651   1.087   4.448   1.555  0.6192 -0.4694 -0.3201
15387TIP3    H167652   1.101   4.420   1.465 -1.2472 -0.5720 -0.6048
15387TIP3    H267653   1.143   4.391   1.607  0.7772 -1.2379 -1.3256
15388TIP3   OH267654   1.013   4.536   3.628  0.1474  0.1569 -0.0578
15388TIP3    H167655   0.931   4.585   3.634 -0.6242 -1.1726  0.5398
15388TIP3    H267656   1.026   4.522   3.534 -0.2070  0.5535 -0.1686
15389TIP3   OH267657   1.874   5.042   5.848  0.2279 -0.3876  0.3935
15389TIP3    H167658   1.936   5.111   5.826 -0.6801  0.5726  0.7951
15389TIP3    H267659   1.888   5.026   5.942 -1.1234  0.8690  0.8300
15390TIP3   OH267660   0.333   4.888   1.633  0.1790  0.1325 -0.1918
15390TIP3    H167661   0.317   4.979   1.609  1.5229  0.5000  0.2559
15390TIP3    H267662   0.292   4.837   1.563  0.7710  1.1213 -1.2722
15391TIP3   OH267663   1.062   5.561   4.010 -0.0079 -0.3104  0.3065
15391TIP3    H167664   1.120   5.603   3.945 -0.8299  0.0834 -0.1764
15391TIP3    H267665   1.058   5.470   3.982  2.2514 -0.8794  1.6891
15392TIP3   OH267666   0.680   5.963   1.269 -0.2911  0.7606  0.1569
15392TIP3    H167667   0.600   5.917   1.242 -0.7554  1.2242  0.7356
15392TIP3    H267668   0.734   5.966   1.189 -1.1771  1.1270 -0.4358
15393TIP3   OH267669   1.721   4.811   3.852 -0.1808 -0.7404  0.0550
15393TIP3    H167670   1.799   4.846   3.811  0.0858 -0.2451  0.9837
15393TIP3    H267671   1.753   4.761   3.927 -0.8241  0.4299  1.1172
15394TIP3   OH267672   1.478   4.341   2.926  0.0469  0.0041 -0.4836
15394TIP3    H167673   1.399   4.287   2.925  0.3774 -0.4733 -0.8651
15394TIP3    H267674   1.447   4.429   2.902 -0.0819 -0.5737 -2.5384
15395TIP3   OH267675   7.285   2.634   5.197 -0.2637  0.6921 -0.1267
15395TIP3    H167676   7.246   2.601   5.279  0.0234  0.8186  0.0587
15395TIP3    H267677   7.228   2.598   5.128  0.3544 -0.6499  0.0370
15396TIP3   OH267678   0.944   5.302   2.484  0.1107 -0.1487  0.2111
15396TIP3    H167679   0.913   5.217   2.451 -0.4576 -0.2749  1.0418
15396TIP3    H267680   0.989   5.281   2.566  0.0999  0.3315  0.3441
15397TIP3   OH267681   1.198   5.406   2.269  0.6257  0.4622 -0.3372
15397TIP3    H167682   1.153   5.352   2.334  1.1659  0.2462 -0.1389
15397TIP3    H267683   1.128   5.446   2.218  0.1823 -3.1675 -2.7990
15398TIP3   OH267684   0.087   4.614   3.189 -0.5000  0.3688  0.4264
15398TIP3    H167685   0.003   4.658   3.179  0.2429  2.1974  1.8897
15398TIP3    H267686   0.144   4.652   3.122  0.4195  2.4352  2.2973
15399TIP3   OH267687   7.290   4.846   1.226 -0.1937 -0.3654 -0.1701
15399TIP3    H167688   7.221   4.815   1.285 -0.5060  0.9610  0.1652
15399TIP3    H267689   7.245   4.901   1.163  0.4492 -0.1054 -0.4046
15400TIP3   OH267690   2.204   4.146   1.276  0.5832  0.0958 -0.2636
15400TIP3    H167691   2.231   4.217   1.219 -1.7767 -1.0210 -2.9177
15400TIP3    H267692   2.228   4.066   1.228 -1.2230 -0.8766  0.3915
15401TIP3   OH267693   2.610   4.584   3.637 -0.3882 -0.1570  0.3339
15401TIP3    H167694   2.594   4.499   3.677 -2.5213  0.6295  1.2602
15401TIP3    H267695   2.705   4.593   3.635 -0.1384 -2.5942  0.1234
15402TIP3   OH267696   2.156   3.595   2.736  0.0136  0.1718 -0.4119
15402TIP3    H167697   2.181   3.683   2.765 -0.0913 -0.3630  1.3139
15402TIP3    H267698   2.238   3.545   2.739 -0.2032 -0.1601 -0.0141
15403TIP3   OH267699   0.781   4.004   2.990 -0.2572 -1.3129  0.0715
15403TIP3    H167700   0.780   4.097   3.014  0.5373 -0.9326 -1.2650
15403TIP3    H267701   0.866   3.972   3.022 -0.1657 -1.3609 -0.2173
15404TIP3   OH267702   7.158   3.979   3.182  0.5614 -0.3408  0.8376
15404TIP3    H167703   7.125   4.022   3.103 -0.9830 -2.4744  0.2745
15404TIP3    H267704   7.182   4.051   3.240 -2.0372  1.2772 -0.0236
15405TIP3   OH267705   0.060   4.947   3.379  0.4178 -0.0266  0.4866
15405TIP3    H167706   0.142   4.899   3.393  0.2072 -1.1232 -1.8343
15405TIP3    H267707   0.084   5.039   3.390  2.3343 -0.2188 -1.7232
15406TIP3   OH267708   3.492   4.046   3.497 -0.1166  0.5683 -0.1418
15406TIP3    H167709   3.470   3.971   3.551  1.3161 -0.3230 -0.7694
15406TIP3    H267710   3.464   4.022   3.409  1.4599  0.2483 -0.5727
15407TIP3   OH267711   1.586   2.314   4.769  0.1013 -0.2138 -0.0403
15407TIP3    H167712   1.654   2.364   4.815  0.5556  2.2681 -3.2862
15407TIP3    H267713   1.633   2.241   4.728  0.2589 -0.3860  0.4423
15408TIP3   OH267714   2.024   4.449   1.988  0.4221 -0.0034 -0.5143
15408TIP3    H167715   1.982   4.410   2.065 -0.5569 -0.3468 -1.2138
15408TIP3    H267716   2.092   4.386   1.964  0.3222 -0.1985 -0.2955
15409TIP3   OH267717   1.373   6.157   5.365 -0.0511 -0.2259  0.2814
15409TIP3    H167718   1.292   6.182   5.320  0.3357  0.5002 -0.0175
15409TIP3    H267719   1.443   6.181   5.303  0.3738 -1.1706  0.3875
15410TIP3   OH267720   6.427   3.348   3.119  0.2495 -0.2334  0.8325
15410TIP3    H167721   6.420   3.257   3.148 -0.4793 -0.1463  0.9601
15410TIP3    H267722   6.494   3.347   3.051 -0.0302 -0.9420  0.5569
15411TIP3   OH267723   1.444   4.666   3.490 -0.4194 -0.0506  0.1817
15411TIP3    H167724   1.351   4.664   3.468 -0.4744 -0.2267  0.4272
15411TIP3    H267725   1.476   4.747   3.450  0.0343 -1.6003 -2.6950
15412TIP3   OH267726   1.832   3.969   5.179  0.2000  0.0415  0.0426
15412TIP3    H167727   1.879   3.940   5.100 -0.5414 -2.1726  0.3805
15412TIP3    H267728   1.881   3.932   5.252 -0.8823 -0.5775  0.4770
15413TIP3   OH267729   3.697   6.572   3.891  0.9071  0.0257 -0.2922
15413TIP3    H167730   3.685   6.652   3.839  0.4664  0.1493  0.0026
15413TIP3    H267731   3.611   6.553   3.927  0.9170 -0.8107 -0.6795
15414TIP3   OH267732   2.814   3.052   4.374  0.0869 -0.0846  0.1447
15414TIP3    H167733   2.756   3.000   4.319 -0.1992 -0.4224  0.7485
15414TIP3    H267734   2.756   3.100   4.433  0.3534  0.9568 -0.4342
15415TIP3   OH267735   3.784   3.638   3.055  0.6013  0.2915 -0.3876
15415TIP3    H167736   3.747   3.633   3.143  1.5864 -0.2882 -0.0024
15415TIP3    H267737   3.873   3.604   3.064  0.9309  0.8311 -1.4800
15416TIP3   OH267738   1.792   4.460   2.994 -0.2855  0.3657 -0.3816
15416TIP3    H167739   1.833   4.411   3.065  0.2338 -0.2651 -1.1230
15416TIP3    H267740   1.859   4.521   2.964 -0.9250  1.5690  0.5361
15417TIP3   OH267741   6.946   6.928   3.930 -0.1936 -0.1304  0.0183
15417TIP3    H167742   7.026   6.875   3.928  1.1474  1.7384  1.7935
15417TIP3    H267743   6.945   6.974   3.846 -0.0697 -1.0725 -0.5084
15418TIP3   OH267744   6.978   5.543   1.301 -0.4341 -0.8507  0.6355
15418TIP3    H167745   7.042   5.495   1.249 -1.6248 -0.4340 -1.2738
15418TIP3    H267746   6.894   5.507   1.274 -1.1243  0.0339  1.5894
15419TIP3   OH267747   7.007   5.737  14.622 -0.3631  0.4491 -0.0101
15419TIP3    H167748   6.997   5.819  14.669 -0.7215  0.2440  0.2745
15419TIP3    H267749   7.098   5.712  14.637 -0.7515 -0.1526  1.4712
15420TIP3   OH267750   1.494   4.183   4.021 -0.3612  0.1089  0.4661
15420TIP3    H167751   1.572   4.133   3.995 -1.5794 -2.0129  0.7535
15420TIP3    H267752   1.427   4.157   3.957 -0.9837  1.4981  0.5489
15421TIP3   OH267753   3.227   6.362   2.099  0.3983 -0.4426 -0.3450
15421TIP3    H167754   3.307   6.336   2.052  1.6046  0.2212  1.2681
15421TIP3    H267755   3.177   6.413   2.035  0.1232 -2.8667 -2.1119
15422TIP3   OH267756   0.835   5.643   3.359 -0.1189 -0.4902  0.1767
15422TIP3    H167757   0.791   5.606   3.282 -0.5624 -1.6038  0.9465
15422TIP3    H267758   0.765   5.682   3.411  0.0908 -0.3195  0.3329
15423TIP3   OH267759   2.943   3.999   3.689  0.0708 -0.5074  0.0648
15423TIP3    H167760   2.880   4.067   3.711 -0.1970 -0.4996 -0.7030
15423TIP3    H267761   2.938   3.937   3.761  0.2557  0.2365  0.7352
15424TIP3   OH267762   2.749   5.397   0.676  0.1544 -0.0885 -0.5909
15424TIP3    H167763   2.828   5.349   0.701  1.0959  0.6055 -2.1691
15424TIP3    H267764   2.739   5.463   0.745 -0.5909 -1.8873  1.0609
15425TIP3   OH267765   3.514   4.471   2.957  0.1801 -0.4349  0.6696
15425TIP3    H167766   3.430   4.432   2.933 -0.9806  1.4199  1.6576
15425TIP3    H267767   3.522   4.455   3.051  0.1786  0.7845  0.8820
15426TIP3   OH267768   3.401   0.166   4.702  0.2407 -0.1851 -0.1991
15426TIP3    H167769   3.427   0.122   4.783  1.7279  0.8843 -0.0609
15426TIP3    H267770   3.427   0.106   4.632 -1.1568 -1.1630  0.1267
15427TIP3   OH267771   0.078   3.315   3.668 -0.8614 -0.7682  0.1683
15427TIP3    H167772   0.083   3.265   3.586 -2.6283 -1.1293  0.2496
15427TIP3    H267773   0.007   3.378   3.652  2.6104  3.1847 -0.6898
15428TIP3   OH267774   1.828   5.432   2.494  1.2083  0.2402 -0.0562
15428TIP3    H167775   1.879   5.385   2.560 -0.1037 -0.0199  0.7973
15428TIP3    H267776   1.789   5.363   2.441 -0.1205  0.3461  0.7413
15429TIP3   OH267777   1.370   2.031   1.253 -0.7843 -0.3956  0.3250
15429TIP3    H167778   1.317   1.985   1.319  1.5269 -3.0079  0.4298
15429TIP3    H267779   1.315   2.033   1.175 -1.2812 -2.5619  0.5948
15430TIP3   OH267780   1.612   2.181   3.595  0.7437 -0.6261  0.7068
15430TIP3    H167781   1.683   2.204   3.655  1.1528  0.7614 -0.2899
15430TIP3    H267782   1.534   2.177   3.652  1.0815  0.9177  1.3217
15431TIP3   OH267783   0.396   4.059   4.965  0.0625 -0.3381 -0.2925
15431TIP3    H167784   0.317   4.113   4.954  0.9762  1.3416  1.1331
15431TIP3    H267785   0.468   4.116   4.937  0.6852 -2.4289 -3.2307
15432TIP3   OH267786   2.781   4.257   4.395 -0.0818 -0.0727 -0.1893
15432TIP3    H167787   2.865   4.271   4.351  0.6117 -0.1671  1.0884
15432TIP3    H267788   2.729   4.334   4.372  2.0057  2.3981  2.8123
15433TIP3   OH267789   2.325   1.443   4.485  0.8298  0.0645  0.0124
15433TIP3    H167790   2.360   1.441   4.574 -1.5358  0.3464  1.0053
15433TIP3    H267791   2.331   1.535   4.459 -1.1399  0.5034  1.0307
15434TIP3   OH267792   2.552   3.528   2.319  0.8367  0.0627  0.4678
15434TIP3    H167793   2.564   3.503   2.227  0.9225 -1.3021  0.8336
15434TIP3    H267794   2.479   3.473   2.349 -0.2866  1.6947  0.7714
15435TIP3   OH267795   2.637   3.292   3.363  0.4441  0.2471 -0.5138
15435TIP3    H167796   2.560   3.340   3.332 -0.2350 -0.8998 -0.6338
15435TIP3    H267797   2.603   3.206   3.389  1.4634  0.2080  0.7530
15436TIP3   OH267798   2.735   5.557   4.809 -0.1901  0.6565  0.5429
15436TIP3    H167799   2.814   5.611   4.807  0.5177 -0.3930 -0.6833
15436TIP3    H267800   2.738   5.513   4.893  0.8791  0.1220  0.2313
15437TIP3   OH267801   2.393   5.122   3.486  0.0816  0.3197  0.3988
15437TIP3    H167802   2.382   5.101   3.393  2.3390  1.5902 -0.2067
15437TIP3    H267803   2.336   5.197   3.501 -0.4074  0.0123  0.0789
15438TIP3   OH267804   0.673   4.373   2.666 -0.1243 -0.0049 -0.3544
15438TIP3    H167805   0.666   4.443   2.731 -0.1617 -0.6334  0.3063
15438TIP3    H267806   0.641   4.414   2.585  0.8267  1.0718 -0.2114
15439TIP3   OH267807   2.360   2.374   4.522  0.1315 -0.7397 -0.0652
15439TIP3    H167808   2.353   2.410   4.610 -1.1383  0.1716 -0.5269
15439TIP3    H267809   2.315   2.437   4.466 -2.9224 -3.4144 -0.8052
15440TIP3   OH267810   1.821   3.581   4.114 -0.1507  0.2816 -0.2569
15440TIP3    H167811   1.797   3.673   4.127  0.0268  0.1583  1.0942
15440TIP3    H267812   1.916   3.579   4.125  0.0097  0.1537 -1.6777
15441TIP3   OH267813   6.021   3.916   3.390  0.1003 -0.0102  0.0251
15441TIP3    H167814   5.975   3.982   3.338  0.9614  0.1710 -0.5192
15441TIP3    H267815   6.011   3.835   3.341 -0.5608 -0.1954  0.4587
15442TIP3   OH267816   0.950   2.032   4.171 -0.0488  0.0495  0.1048
15442TIP3    H167817   0.973   2.113   4.215  0.5136  0.0022 -0.0905
15442TIP3    H267818   0.995   2.037   4.086  0.0885 -0.5148  0.1397
15443TIP3   OH267819   2.537   5.167   4.975 -0.0888  0.3468  0.0542
15443TIP3    H167820   2.475   5.147   5.046  0.6994  2.8730  1.4950
15443TIP3    H267821   2.482   5.204   4.906 -0.3483  1.5422  0.8905
15444TIP3   OH267822   1.576   5.269   3.132  0.6241 -0.1378 -0.8561
15444TIP3    H167823   1.552   5.325   3.058 -0.9601 -1.7700 -1.6149
15444TIP3    H267824   1.528   5.306   3.206  0.7059  0.3607 -1.0474
15445TIP3   OH267825   7.096   5.455   2.369  0.0304 -0.0016  0.2967
15445TIP3    H167826   7.149   5.385   2.409  1.2144 -0.6175 -2.2572
15445TIP3    H267827   7.158   5.528   2.357 -0.6081  0.6091  0.6994
15446TIP3   OH267828   2.154   4.986   1.837  0.5644  0.5025  0.4200
15446TIP3    H167829   2.232   4.940   1.807  0.3695  0.8193 -0.6095
15446TIP3    H267830   2.087   4.917   1.841  0.6437  0.4184  0.3119
15447TIP3   OH267831   1.493   2.436   1.925 -0.0523  0.0054 -0.1033
15447TIP3    H167832   1.436   2.445   2.001 -0.1112  0.8533 -0.2445
15447TIP3    H267833   1.482   2.518   1.877  1.8234  0.4802  0.2279
15448TIP3   OH267834   0.865   0.626   3.237  0.7152 -0.0100  0.1598
15448TIP3    H167835   0.787   0.659   3.281  0.3846  0.5006 -0.8042
15448TIP3    H267836   0.920   0.592   3.308 -0.0424  0.3291  0.9124
15449TIP3   OH267837   1.876   4.455   4.375  0.1165 -0.7411  0.5662
15449TIP3    H167838   1.799   4.495   4.415  0.1813  0.4772 -0.4964
15449TIP3    H267839   1.947   4.473   4.438 -0.2378 -0.8860  1.0127
15450TIP3   OH267840   1.128   4.027   2.540  0.0446  0.0086 -0.1721
15450TIP3    H167841   1.174   4.036   2.623 -0.7931 -0.6917  0.3819
15450TIP3    H267842   1.082   4.110   2.528  0.1238  0.0883  0.0940
15451TIP3   OH267843   0.970   6.543   4.406 -0.6881  0.1228 -0.1330
15451TIP3    H167844   1.046   6.558   4.463  0.0483 -0.6513 -0.8943
15451TIP3    H267845   0.936   6.458   4.433 -0.0571 -0.4645 -1.1357
15452TIP3   OH267846   1.373   0.212   2.057  0.2939 -0.2039 -0.6224
15452TIP3    H167847   1.307   0.143   2.046  0.2195 -0.0713 -1.0071
15452TIP3    H267848   1.456   0.169   2.039  0.3790 -0.5273  0.4754
15453TIP3   OH267849   1.069   3.440   2.477  0.1242 -0.3365 -0.4385
15453TIP3    H167850   0.989   3.492   2.473 -0.5270 -1.3138 -0.3030
15453TIP3    H267851   1.044   3.354   2.443  1.6457 -0.0266 -2.4385
15454TIP3   OH267852   0.480   4.598   3.316  0.9090 -0.2620  1.3470
15454TIP3    H167853   0.513   4.512   3.292  0.8471 -0.0660  0.5672
15454TIP3    H267854   0.537   4.660   3.271 -0.7752  0.0736 -0.3695
15455TIP3   OH267855   0.589   4.191   4.154 -0.1209 -0.0301 -0.2397
15455TIP3    H167856   0.504   4.223   4.123 -0.9751  0.6993  2.6476
15455TIP3    H267857   0.571   4.101   4.184  0.1113  0.1310  0.3902
15456TIP3   OH267858   3.284   0.053   4.116  0.0061  0.2826 -0.2990
15456TIP3    H167859   3.356  -0.007   4.137 -1.7098 -1.7085  0.0414
15456TIP3    H267860   3.308   0.091   4.031  2.2587  0.9604  0.5948
15457TIP3   OH267861   0.966   5.408   5.645  0.3729  0.2369  0.2937
15457TIP3    H167862   1.034   5.473   5.630 -0.9111  1.4229 -0.5188
15457TIP3    H267863   1.002   5.351   5.713  1.4480  1.8678  1.1230
15458TIP3   OH267864   0.254   4.884   2.677 -0.3549 -0.3011 -0.0095
15458TIP3    H167865   0.254   4.968   2.724 -0.4285 -1.5114  2.2225
15458TIP3    H267866   0.171   4.883   2.630  0.3917  1.6069 -1.4304
15459TIP3   OH267867   0.975   2.031   3.246 -0.4505 -0.5945  0.0549
15459TIP3    H167868   0.977   1.939   3.273  0.5226 -0.3153  0.9770
15459TIP3    H267869   0.917   2.073   3.310 -0.3093 -0.4425  0.0851
15460TIP3   OH267870   1.467   6.968   4.004 -0.0871 -0.1926  0.3523
15460TIP3    H167871   1.471   7.003   4.093  2.0539  2.4337 -0.7154
15460TIP3    H267872   1.379   6.989   3.973  0.2563  1.8476  0.7133
15461TIP3   OH267873   3.038   3.639   2.870 -0.3575  0.5887  0.5570
15461TIP3    H167874   3.122   3.659   2.829 -0.7539 -0.2509 -0.6812
15461TIP3    H267875   3.027   3.545   2.857 -1.0688  0.5275  1.5269
15462TIP3   OH267876   0.839   3.539  15.716  0.4677 -0.0559  0.2235
15462TIP3    H167877   0.757   3.552  15.668 -0.1027  0.6448  1.3531
15462TIP3    H267878   0.879   3.626  15.718  1.3296 -0.4296 -0.4727
15463TIP3   OH267879   0.723   3.316   3.369 -0.2482 -0.0674  0.1414
15463TIP3    H167880   0.791   3.327   3.435 -0.8175  0.8507  0.5873
15463TIP3    H267881   0.652   3.270   3.414 -0.3258 -0.1203 -0.0354
15464TIP3   OH267882   6.898   4.355   1.865 -0.1905  0.0364 -0.0726
15464TIP3    H167883   6.844   4.404   1.926  0.6028  0.8223 -0.0000
15464TIP3    H267884   6.862   4.266   1.867 -0.3353  0.1266  1.3173
15465TIP3   OH267885   0.859   2.702   3.204 -0.0734 -0.0696 -0.1631
15465TIP3    H167886   0.924   2.635   3.227 -1.1434 -1.1054 -0.1306
15465TIP3    H267887   0.911   2.780   3.184  1.2704 -1.2813 -1.5194
15466TIP3   OH267888   7.120   3.406   2.831 -0.3397  0.5678 -0.0726
15466TIP3    H167889   7.150   3.359   2.753  0.4262  1.4751 -0.3363
15466TIP3    H267890   7.157   3.356   2.904  0.7898  0.9638 -0.3602
15467TIP3   OH267891   3.086   1.715   2.522 -0.3660 -0.0344  0.2031
15467TIP3    H167892   3.096   1.695   2.615 -0.3135 -0.2631  0.1489
15467TIP3    H267893   3.148   1.656   2.478 -1.3830 -0.8896 -0.0772
15468TIP3   OH267894   1.606   4.224  15.365  0.0175 -0.0743  0.6955
15468TIP3    H167895   1.585   4.258  15.278  0.3121  1.5201  1.2315
15468TIP3    H267896   1.699   4.244  15.376  0.2560 -1.2652  0.9467
15469TIP3   OH267897   1.018   5.683  15.561 -0.0551  0.6069  0.1625
15469TIP3    H167898   1.108   5.653  15.546 -0.8030 -1.4266 -0.4024
15469TIP3    H267899   1.000   5.742  15.488  1.0717  1.7067  0.7292
15470TIP3   OH267900   6.064   7.254   3.070 -0.0330  0.0472  0.7297
15470TIP3    H167901   6.089   7.346   3.064 -0.2483  0.0636  0.0372
15470TIP3    H267902   6.143   7.209   3.101  0.4348  0.2955 -0.0969
15471TIP3   OH267903   4.373   2.442   3.882 -0.6212 -0.3267 -0.2549
15471TIP3    H167904   4.349   2.534   3.877  0.6584 -0.0677 -2.3743
15471TIP3    H267905   4.424   2.434   3.963 -0.6927  0.8444 -0.0904
15472TIP3   OH267906   7.036   5.415   1.964 -0.3313  0.2203 -0.2856
15472TIP3    H167907   7.046   5.472   1.887 -0.2880 -0.5449 -0.8448
15472TIP3    H267908   7.033   5.327   1.928 -0.9638 -0.0978  0.5453
15473TIP3   OH267909   1.619   5.618   2.144 -0.0226 -0.0729 -0.3457
15473TIP3    H167910   1.615   5.689   2.079 -1.8839  0.0489 -0.1245
15473TIP3    H267911   1.618   5.538   2.092 -0.2158  0.0321 -0.5028
15474TIP3   OH267912   0.879   2.094   2.762  0.2529 -0.1027  0.3571
15474TIP3    H167913   0.871   2.123   2.853 -0.1949  0.0786  0.2623
15474TIP3    H267914   0.917   2.169   2.717 -1.8278  0.7377 -0.0841
15475TIP3   OH267915   0.795   1.482   3.394  0.2892  0.0343  0.1525
15475TIP3    H167916   0.847   1.404   3.414  0.1893 -0.4642 -1.4632
15475TIP3    H267917   0.705   1.450   3.386  0.3763  0.1392 -1.4274
15476TIP3   OH267918   0.561   2.332  15.779 -0.0738  0.2262  0.0578
15476TIP3    H167919   0.494   2.275  15.816 -0.6194  0.9261  0.1728
15476TIP3    H267920   0.549   2.325  15.684 -0.9538  1.0805  0.0899
15477TIP3   OH267921   0.332   4.080   5.897 -0.3553  0.8006  1.1790
15477TIP3    H167922   0.327   4.013   5.965  0.9708  0.1891  0.6836
15477TIP3    H267923   0.365   4.158   5.942  1.5528  0.0978  1.0413
15478TIP3   OH267924   2.384   4.896   4.761 -0.1144  0.0746 -0.2175
15478TIP3    H167925   2.349   4.823   4.814 -0.9014  0.5060 -0.1265
15478TIP3    H267926   2.439   4.854   4.695 -2.2857 -0.8117 -1.5361
15479TIP3   OH267927   4.029   3.887   0.959 -0.2024  0.2570 -0.1000
15479TIP3    H167928   3.976   3.817   0.920  1.6224 -0.3385 -1.5574
15479TIP3    H267929   4.018   3.962   0.901 -0.7729  0.6539  0.5140
15480TIP3   OH267930   3.721   6.557   2.981 -0.2947  0.0462 -0.1517
15480TIP3    H167931   3.730   6.463   2.970  2.8540  0.4889 -1.9301
15480TIP3    H267932   3.776   6.578   3.057 -2.4929  0.2585  1.4413
15481TIP3   OH267933   6.721   4.704   4.969 -0.0036 -0.1510  0.8963
15481TIP3    H167934   6.782   4.702   5.042  0.9143 -1.6610  0.1105
15481TIP3    H267935   6.647   4.650   4.998  0.9234 -1.7969  0.2424
15482TIP3   OH267936   4.635   6.233   3.429  0.4477  0.2569 -0.1686
15482TIP3    H167937   4.706   6.295   3.411  0.3767  0.0653 -1.1374
15482TIP3    H267938   4.670   6.148   3.402  0.6155 -0.1693  1.3385
15483TIP3   OH267939   1.580   3.131   3.569 -0.3419 -0.3648  0.0462
15483TIP3    H167940   1.636   3.208   3.576 -0.3405 -0.5752  2.7426
15483TIP3    H267941   1.640   3.058   3.558 -0.2051 -0.2900  0.2878
15484TIP3   OH267942   1.516   4.114   3.660  0.1706 -0.0238  0.3546
15484TIP3    H167943   1.492   4.205   3.675  0.6785  0.1941 -0.1118
15484TIP3    H267944   1.446   4.080   3.604 -0.0662  0.0533  0.6030
15485TIP3   OH267945   3.374   5.402   3.601  0.0874 -0.3877 -0.1986
15485TIP3    H167946   3.382   5.396   3.506  2.4592  2.1193 -0.2250
15485TIP3    H267947   3.354   5.495   3.617 -1.9842 -1.1099  1.6863
15486TIP3   OH267948   2.194   4.601   3.833  0.2063  0.1416  0.2116
15486TIP3    H167949   2.288   4.620   3.833  0.2938 -0.2456  1.3265
15486TIP3    H267950   2.154   4.674   3.881  0.2208 -0.8906  1.8664
15487TIP3   OH267951   1.727   4.692   4.118 -0.3006  0.4103  0.0051
15487TIP3    H167952   1.789   4.644   4.172 -1.2717 -1.1307 -0.2385
15487TIP3    H267953   1.667   4.733   4.180 -1.3013 -1.2010  0.1119
15488TIP3   OH267954   2.717   6.234   2.342  0.2477 -0.1002 -0.4499
15488TIP3    H167955   2.808   6.237   2.372  0.2788 -1.0092 -0.4432
15488TIP3    H267956   2.669   6.288   2.405  0.3563 -1.7568  1.0835
15489TIP3   OH267957   0.185   3.714   2.235 -0.7595 -0.0834  0.0658
15489TIP3    H167958   0.090   3.700   2.229 -0.7757  0.5367 -1.1515
15489TIP3    H267959   0.199   3.800   2.195  0.2190  0.2050  1.0178
15490TIP3   OH267960   0.697   4.360   0.852  0.3912  0.0145 -0.1314
15490TIP3    H167961   0.689   4.341   0.945  1.1786  0.7886  0.0945
15490TIP3    H267962   0.710   4.455   0.847  1.4841 -0.1620 -0.9464
15491TIP3   OH267963   3.341   5.734   3.028 -0.0303 -0.1400  0.5784
15491TIP3    H167964   3.313   5.644   3.042  1.8899 -0.5543  2.0095
15491TIP3    H267965   3.360   5.740   2.934 -0.2971 -1.1730  0.4605
15492TIP3   OH267966   2.008   2.302   3.010 -0.5714 -0.5940 -0.2959
15492TIP3    H167967   1.979   2.216   2.979  0.1297 -0.7482 -0.5329
15492TIP3    H267968   1.966   2.312   3.095 -2.9830  0.0744 -1.4974
15493TIP3   OH267969   1.467   6.073   0.487 -0.1678  0.1311  0.1825
15493TIP3    H167970   1.380   6.110   0.503 -0.2195 -0.9397  2.7214
15493TIP3    H267971   1.514   6.090   0.569  1.9617  0.5706 -1.1215
15494TIP3   OH267972   2.548   4.095   3.054  0.1528 -0.4220 -0.3399
15494TIP3    H167973   2.530   4.178   3.099 -0.8487 -0.1115 -1.3050
15494TIP3    H267974   2.524   4.028   3.119 -0.0381  0.0334  0.0661
15495TIP3   OH267975   0.481   4.992  15.505 -0.0612  0.6935  0.3778
15495TIP3    H167976   0.527   4.972  15.587 -1.4008  1.0983  1.2626
15495TIP3    H267977   0.546   5.036  15.450  0.6678  1.0581  1.5120
15496TIP3   OH267978   4.166   3.328   2.515 -0.7498  0.2129  0.4288
15496TIP3    H167979   4.146   3.348   2.607  0.8201  0.9008  0.6508
15496TIP3    H267980   4.262   3.336   2.510 -0.7626 -0.4870 -1.1157
15497TIP3   OH267981   4.829   4.918   4.565 -0.0273  0.3747 -0.8210
15497TIP3    H167982   4.845   4.858   4.638 -0.0062 -1.3588 -2.2091
15497TIP3    H267983   4.781   4.991   4.604 -1.8205 -1.4844  0.5584
15498TIP3   OH267984   1.833   4.645   2.758  0.2516  0.0436  0.3314
15498TIP3    H167985   1.776   4.568   2.758 -0.6871  0.7208  1.0026
15498TIP3    H267986   1.861   4.655   2.667 -0.7724 -0.2551 -0.0197
15499TIP3   OH267987   4.692   4.253   1.065  0.0701 -0.0711  0.0296
15499TIP3    H167988   4.745   4.322   1.104  0.1803  0.6028 -1.2910
15499TIP3    H267989   4.705   4.178   1.122  0.3358  0.8548  1.2117
15500TIP3   OH267990   2.164   3.971   5.263  0.2057  0.2492  0.0143
15500TIP3    H167991   2.251   3.937   5.280 -0.4243 -0.7940  1.1579
15500TIP3    H267992   2.140   3.935   5.177 -0.3311 -1.9471  1.0735
15501TIP3   OH267993   3.642   5.813   0.705  0.6290  0.3775 -0.0893
15501TIP3    H167994   3.548   5.823   0.692  0.4816 -1.8799 -0.8481
15501TIP3    H267995   3.678   5.813   0.617  1.2491  0.2704  0.1641
15502TIP3   OH267996   4.872   5.500   3.517 -0.0058  0.1416 -0.2784
15502TIP3    H167997   4.785   5.524   3.487  0.5559  1.0822 -1.2111
15502TIP3    H267998   4.874   5.404   3.509 -0.4838  0.2262 -1.6011
15503TIP3   OH267999   2.221   3.377   3.166  0.2216 -0.0518  0.1637
15503TIP3    H168000   2.132   3.403   3.189  0.7178  1.4982  0.3426
15503TIP3    H268001   2.209   3.306   3.102 -1.1304 -0.9480  1.3828
15504TIP3   OH268002   3.284   3.142   3.281 -0.8542  0.0529 -0.0150
15504TIP3    H168003   3.308   3.225   3.322  0.6414  0.1748 -1.1241
15504TIP3    H268004   3.235   3.166   3.203 -1.0049 -0.1262  0.0221
15505TIP3   OH268005   3.762   5.429   4.317 -0.0663 -0.6379  0.1193
15505TIP3    H168006   3.779   5.493   4.248  2.8080 -0.2980  1.0722
15505TIP3    H268007   3.848   5.410   4.354 -1.3848 -1.8133  2.7387
15506TIP3   OH268008   3.318   4.649   4.771  0.6426 -0.0058 -0.8009
15506TIP3    H168009   3.228   4.620   4.756  0.7371 -0.5444 -0.3408
15506TIP3    H268010   3.328   4.726   4.714  0.1531 -0.4291 -1.4695
15507TIP3   OH268011   4.397   5.097   3.634  0.1501 -0.0354 -0.3486
15507TIP3    H168012   4.429   5.103   3.724  2.4601 -1.0640 -1.0473
15507TIP3    H268013   4.310   5.136   3.636 -0.4227 -1.3372  2.6260
15508TIP3   OH268014   1.890   4.727   2.509 -0.0157 -0.1322 -0.4822
15508TIP3    H168015   1.907   4.668   2.436  1.0271  0.9351 -1.1102
15508TIP3    H268016   1.954   4.798   2.499 -0.8139  0.7734  0.6348
15509TIP3   OH268017   2.220   3.563   0.853  0.1427 -0.1874 -0.0860
15509TIP3    H168018   2.276   3.638   0.872 -0.0237  0.3475 -1.5925
15509TIP3    H268019   2.188   3.534   0.938  0.3445  1.3468  0.5230
15510TIP3   OH268020   4.090   6.547   2.622 -0.1747 -0.1413  0.5378
15510TIP3    H168021   4.098   6.489   2.546 -1.0472  1.0982 -0.5273
15510TIP3    H268022   4.160   6.520   2.680 -0.4545 -2.1345 -0.0258
15511TIP3   OH268023   3.484   5.716   2.212  0.0378  0.0323 -0.3643
15511TIP3    H168024   3.534   5.752   2.139 -0.8672 -0.1767 -1.0862
15511TIP3    H268025   3.530   5.635   2.235  0.0323 -0.1628 -1.0315
15512TIP3   OH268026   5.340   5.039   2.334 -0.3184 -0.1982  0.0797
15512TIP3    H168027   5.277   5.034   2.406 -1.0138 -0.7754 -0.5493
15512TIP3    H268028   5.363   4.948   2.316 -0.4213 -0.0828 -0.6573
15513TIP3   OH268029   2.494   6.349   4.573 -0.3815  0.4023  0.3237
15513TIP3    H168030   2.441   6.270   4.588  0.2912 -0.3176 -1.0068
15513TIP3    H268031   2.584   6.316   4.569 -0.1555  1.1528 -0.8526
15514TIP3   OH268032   3.330   4.166   1.816  0.2759  0.1819 -0.3995
15514TIP3    H168033   3.373   4.155   1.901  1.6555  2.2884 -0.8013
15514TIP3    H268034   3.323   4.077   1.782 -0.2144 -0.6832  1.8738
15515TIP3   OH268035   3.613   1.705   3.502  0.1168  0.2261  0.1102
15515TIP3    H168036   3.606   1.719   3.408  0.9006  2.0486  0.3132
15515TIP3    H268037   3.588   1.613   3.514  0.2482 -0.0973 -1.8939
15516TIP3   OH268038   1.408   4.153   4.614  0.7438 -0.7230 -0.5829
15516TIP3    H168039   1.452   4.218   4.560  0.5997  1.2409  1.5486
15516TIP3    H268040   1.461   4.149   4.694 -0.8936 -1.0175  0.5140
15517TIP3   OH268041   1.862   0.988   4.182 -0.7169  0.8543  0.2172
15517TIP3    H168042   1.867   1.071   4.229  0.0616  2.5278 -2.7315
15517TIP3    H268043   1.901   0.924   4.242  2.2560  3.2927  1.0098
15518TIP3   OH268044   2.801   5.409   2.616 -0.0499  0.5422  0.3713
15518TIP3    H168045   2.824   5.432   2.526 -0.0529  1.1094  0.5123
15518TIP3    H268046   2.797   5.313   2.616  0.2440  0.5282 -0.1572
15519TIP3   OH268047   3.848   4.782   4.437  0.0045  0.5136 -0.0891
15519TIP3    H168048   3.849   4.714   4.369 -0.2758  0.9310 -0.5192
15519TIP3    H268049   3.755   4.790   4.461  0.4999 -2.6287  3.4215
15520TIP3   OH268050   1.934   5.077   4.952  0.0458 -0.8363 -0.5920
15520TIP3    H168051   1.970   5.006   5.007 -0.9806 -0.3110  0.7853
15520TIP3    H268052   2.011   5.118   4.914  0.8341 -0.8231  0.9582
15521TIP3   OH268053   3.443   5.174   4.012 -0.2567  0.3185 -0.2375
15521TIP3    H168054   3.503   5.199   3.942  0.2036 -0.4056 -0.1132
15521TIP3    H268055   3.480   5.092   4.046 -1.4023 -0.2239 -0.2722
15522TIP3   OH268056   3.232   5.914  15.849 -0.2396 -0.2254  0.4160
15522TIP3    H168057   3.312   5.953  15.885  1.3985 -2.5922 -0.4954
15522TIP3    H268058   3.240   5.926  15.754 -0.7662 -0.8327  0.2904
15523TIP3   OH268059   0.157   2.755   3.649 -1.0175 -0.2049 -0.6101
15523TIP3    H168060   0.220   2.683   3.641  1.8025  1.8856  1.4296
15523TIP3    H268061   0.103   2.732   3.724 -0.1881 -0.2759 -0.0297
15524TIP3   OH268062   4.427   5.441   1.046  0.1027 -0.4474 -0.3150
15524TIP3    H168063   4.494   5.380   1.075 -0.2786 -0.4405  0.6033
15524TIP3    H268064   4.410   5.496   1.123 -0.6821 -0.2082 -0.6554
15525TIP3   OH268065   2.765   6.503   2.433  0.3977  0.4770  0.4301
15525TIP3    H168066   2.827   6.452   2.485  0.2448  0.7536  0.8760
15525TIP3    H268067   2.821   6.555   2.374  0.6065  1.1419  1.2095
15526TIP3   OH268068   1.986   3.638   3.696 -0.4588 -0.4797 -0.5060
15526TIP3    H168069   2.038   3.716   3.713 -1.2974  0.1740 -0.8507
15526TIP3    H268070   1.903   3.672   3.661  0.0768 -1.6157 -3.0503
15527TIP3   OH268071   4.561   6.019   5.397 -0.3121  0.2029 -0.6695
15527TIP3    H168072   4.484   5.999   5.343  0.0077 -0.7375 -0.7828
15527TIP3    H268073   4.550   5.965   5.475 -0.1555  0.6564 -0.3307
15528TIP3   OH268074   1.241   5.842   4.797 -0.1654  0.2064 -0.0134
15528TIP3    H168075   1.225   5.923   4.749  0.4331  0.4618  0.2051
15528TIP3    H268076   1.224   5.864   4.888 -0.5676 -0.0720 -0.0243
15529TIP3   OH268077   4.276   0.322   4.918 -0.0317 -0.4852 -0.1189
15529TIP3    H168078   4.291   0.249   4.858  0.9598  1.0352 -1.7557
15529TIP3    H268079   4.208   0.374   4.877  0.4856  0.4412  0.1748
15530TIP3   OH268080   3.223   5.871   1.834 -0.2866 -0.4256  0.3299
15530TIP3    H168081   3.246   5.841   1.746  0.0270  1.1465 -0.1400
15530TIP3    H268082   3.261   5.959   1.840 -0.8357 -0.2750  1.8162
15531TIP3   OH268083   3.193   6.005   3.400 -0.1978 -0.8322 -0.5102
15531TIP3    H168084   3.240   5.977   3.479  1.2139 -1.7189 -1.6459
15531TIP3    H268085   3.255   6.062   3.355 -1.4723  0.6908 -0.3593
15532TIP3   OH268086   4.302   4.991   1.805 -0.3491  0.2119  0.5179
15532TIP3    H168087   4.394   5.003   1.782 -0.4606  0.0208 -0.0394
15532TIP3    H268088   4.285   4.899   1.789 -0.9348  0.4847 -0.4916
15533TIP3   OH268089   3.882   2.935   3.054 -0.1928 -0.8744  0.1359
15533TIP3    H168090   3.814   2.928   3.122  0.9546 -1.4145  1.2351
15533TIP3    H268091   3.873   2.855   3.003 -0.7212 -0.7023 -0.0460
15534TIP3   OH268092   2.456   6.323   3.353  0.0774 -0.5253 -0.1317
15534TIP3    H168093   2.432   6.251   3.294 -2.5961  0.3128 -0.1525
15534TIP3    H268094   2.487   6.392   3.294 -1.7077 -0.0323 -0.5468
15535TIP3   OH268095   4.123   5.861   2.731 -0.2000 -0.2676  0.0345
15535TIP3    H168096   4.072   5.786   2.763 -1.4754  0.8482  0.6331
15535TIP3    H268097   4.060   5.932   2.724  1.0502  0.8290 -0.3315
15536TIP3   OH268098   3.449   5.391   4.368 -0.3609  0.6997  0.0355
15536TIP3    H168099   3.422   5.302   4.344 -1.4496  0.8292  0.7827
15536TIP3    H268100   3.544   5.389   4.361 -0.5435  0.4149 -3.2938
15537TIP3   OH268101   1.724   5.839   1.777 -0.0536 -0.2329 -0.1298
15537TIP3    H168102   1.682   5.860   1.694 -1.2977 -0.8374  0.3228
15537TIP3    H268103   1.812   5.875   1.770  0.3547 -1.5556 -2.2829
15538TIP3   OH268104   2.239   4.242   3.116  0.3360 -0.0997  0.5938
15538TIP3    H168105   2.284   4.309   3.065 -1.6518  0.4790 -0.4731
15538TIP3    H268106   2.281   4.244   3.202  0.3242  2.5114  0.5779
15539TIP3   OH268107   3.221   4.048  15.850  0.3134  0.3216 -0.3082
15539TIP3    H168108   3.304   4.043  15.802 -0.3290 -0.8695 -1.3187
15539TIP3    H268109   3.167   4.108  15.798  0.2362  0.4251 -0.1092
15540TIP3   OH268110   2.647   5.935   1.867  0.1471 -0.3429  0.4984
15540TIP3    H168111   2.626   5.854   1.913  0.2923 -0.5831  0.1534
15540TIP3    H268112   2.566   5.959   1.822  0.2617 -0.6165  0.1356
15541TIP3   OH268113   3.763   4.766   3.930 -0.5925  0.0092 -0.5752
15541TIP3    H168114   3.792   4.823   3.859 -1.4505 -1.3420 -2.0519
15541TIP3    H268115   3.843   4.737   3.973 -0.1366  2.0673  0.0149
15542TIP3   OH268116   1.648   4.031   2.350 -0.1686  0.2728 -0.0686
15542TIP3    H168117   1.681   3.941   2.356  0.8786  0.5852 -0.9351
15542TIP3    H268118   1.679   4.074   2.429  1.0302  0.4042 -0.6039
15543TIP3   OH268119   2.479   4.260   4.772  0.1910  0.2380 -0.0256
15543TIP3    H168120   2.406   4.285   4.716 -0.6627 -1.0660  0.4700
15543TIP3    H268121   2.448   4.277   4.861 -0.3670 -2.3739  0.3152
15544TIP3   OH268122   4.116   5.564   2.236 -0.5997 -0.0735 -1.0251
15544TIP3    H168123   4.193   5.520   2.271 -1.9532 -0.2395  1.8708
15544TIP3    H268124   4.054   5.567   2.309 -2.1265  2.9116 -2.3392
15545TIP3   OH268125   1.931   2.680   2.268 -0.0204  0.0296  0.0386
15545TIP3    H168126   1.854   2.625   2.286 -0.8164  1.0337 -0.2402
15545TIP3    H268127   1.980   2.632   2.203 -0.0887 -0.9263  0.6859
15546TIP3   OH268128   1.325   4.703   0.114 -0.4028  0.2361  1.0259
15546TIP3    H168129   1.340   4.608   0.107  1.1998  0.5905 -0.6989
15546TIP3    H268130   1.337   4.722   0.207 -0.7200 -1.2464  1.3904
15547TIP3   OH268131   1.602   2.990   3.115  0.0316 -0.5309  0.7977
15547TIP3    H168132   1.512   3.003   3.086  0.4184  0.2446 -0.0448
15547TIP3    H268133   1.645   3.074   3.100  1.2741 -1.3293 -0.1404
15548TIP3   OH268134   1.504   4.039   2.093  0.1359 -0.2239  0.2360
15548TIP3    H168135   1.423   3.988   2.095 -0.6629  0.9711 -0.6382
15548TIP3    H268136   1.570   3.983   2.133 -0.8046 -1.7832 -0.3779
15549TIP3   OH268137   5.073   5.390   1.709 -0.1023  0.2846  0.4240
15549TIP3    H168138   5.094   5.420   1.798 -1.0347  1.8017  0.1475
15549TIP3    H268139   5.006   5.451   1.678 -0.4414 -0.7766 -0.9939
15550TIP3   OH268140   4.090   6.538   1.525 -0.0186 -0.1826  0.6310
15550TIP3    H168141   4.136   6.598   1.467 -0.1154 -1.3071 -0.6236
15550TIP3    H268142   4.117   6.564   1.613  1.5003  0.4180 -0.0046
15551TIP3   OH268143   2.112   1.896   4.959  0.0793  0.4085 -0.1150
15551TIP3    H168144   2.152   1.957   4.898  1.2548  0.5351  0.7641
15551TIP3    H268145   2.035   1.942   4.993 -0.7466  0.2267 -1.6819
15552TIP3   OH268146   2.010   4.151  15.836 -0.6092 -0.3062  0.2466
15552TIP3    H168147   1.937   4.211  15.851 -1.6787 -1.5151 -0.1076
15552TIP3    H268148   2.027   4.156  15.742  0.8352  1.1861  0.5602
15553TIP3   OH268149   3.004   4.659   2.726 -0.0992 -0.0943 -0.9191
15553TIP3    H168150   2.990   4.699   2.640  0.9697  0.4536 -0.8369
15553TIP3    H268151   3.011   4.565   2.708 -0.1615 -0.0097 -1.3954
15554TIP3   OH268152   3.879   4.589   3.247 -0.2311 -0.4599 -0.6358
15554TIP3    H168153   3.949   4.543   3.202 -0.2364 -1.8792  0.7508
15554TIP3    H268154   3.822   4.519   3.280 -0.9242  0.5790  0.4006
15555TIP3   OH268155   3.239   1.286   4.178 -0.2230 -0.0757  0.1225
15555TIP3    H168156   3.163   1.229   4.190 -0.8956  1.0197  1.1950
15555TIP3    H268157   3.315   1.229   4.190 -0.8804 -1.0523 -0.3738
15556TIP3   OH268158   2.895   3.862   5.059  0.5828  0.2352  0.2802
15556TIP3    H168159   2.940   3.821   4.986 -0.6332  0.9540 -0.8948
15556TIP3    H268160   2.942   3.831   5.137  0.6342 -2.1419 -0.6593
15557TIP3   OH268161   3.902   4.863   4.713  0.0940  0.1187 -0.2650
15557TIP3    H168162   3.870   4.847   4.625 -0.1969  1.1178 -0.3481
15557TIP3    H268163   3.928   4.955   4.713 -1.7941  0.6847  1.2722
15558TIP3   OH268164   2.618   1.644   4.303  0.2747 -0.3528  0.0912
15558TIP3    H168165   2.584   1.646   4.213  0.5805 -0.5136 -0.0281
15558TIP3    H268166   2.643   1.553   4.317 -1.7081 -0.7717  1.0627
15559TIP3   OH268167   1.966   3.975   0.215 -1.0614 -0.6896 -0.6608
15559TIP3    H168168   2.053   4.008   0.236 -1.0422 -0.9113 -0.3932
15559TIP3    H268169   1.911   4.004   0.288 -0.9299 -1.7324 -0.1396
15560TIP3   OH268170   2.668   3.906   2.681 -0.0101 -0.3754  0.4286
15560TIP3    H168171   2.688   3.881   2.591  0.9045  0.0018  0.5258
15560TIP3    H268172   2.751   3.900   2.728 -0.6698 -1.5483  1.4914
15561TIP3   OH268173   2.471   3.557   2.709  0.0310  0.3661 -1.1352
15561TIP3    H168174   2.474   3.475   2.759 -0.4588  0.7676 -0.4490
15561TIP3    H268175   2.539   3.546   2.643 -2.0310 -1.8353 -2.9790
15562TIP3   OH268176   1.732   5.833   3.054 -0.1188 -0.0864  0.0427
15562TIP3    H168177   1.724   5.800   2.965  1.1329  3.0550 -1.3282
15562TIP3    H268178   1.725   5.756   3.110 -0.2862 -2.1927 -2.8044
15563TIP3   OH268179   4.127   5.892   4.001 -0.5336  0.6261  0.4850
15563TIP3    H168180   4.220   5.889   3.980 -0.6540  4.5896 -1.0310
15563TIP3    H268181   4.124   5.905   4.096  0.3633 -2.1566  0.9214
15564TIP3   OH268182   4.272   4.476   0.405  0.2869 -0.0892  0.0679
15564TIP3    H168183   4.320   4.471   0.323 -0.8417  2.3204 -0.8023
15564TIP3    H268184   4.324   4.536   0.459 -0.5790  0.8139 -0.0788
15565TIP3   OH268185   2.820   4.280  15.914  0.2583  0.3973 -0.1118
15565TIP3    H168186   2.828   4.242  15.827 -1.1526 -1.1823  0.4089
15565TIP3    H268187   2.834   4.206  15.974  0.8784  1.3868  0.9921
15566TIP3   OH268188   2.110   4.095   4.099  0.1571 -0.1365  0.5406
15566TIP3    H168189   2.018   4.071   4.107  0.0928  0.0013  0.2127
15566TIP3    H268190   2.112   4.189   4.118  0.4330 -0.4288  2.0006
15567TIP3   OH268191   0.943   4.026   4.134 -0.0204  0.3085 -0.0156
15567TIP3    H168192   0.923   4.049   4.043 -1.3711  0.1226  0.2282
15567TIP3    H268193   1.007   4.091   4.162  1.4039 -0.4244 -1.5097
15568TIP3   OH268194   2.816   2.198   3.798  0.2183  0.1041 -0.2647
15568TIP3    H168195   2.810   2.289   3.769  0.9223 -0.0639 -0.9514
15568TIP3    H268196   2.901   2.167   3.765  1.6532  0.2700  3.0659
15569TIP3   OH268197   3.333   6.691   3.815 -1.1249 -0.0809 -0.5249
15569TIP3    H168198   3.414   6.645   3.790 -0.7717  0.5901 -0.6377
15569TIP3    H268199   3.303   6.646   3.894 -0.0539  0.3416  0.1326
15570TIP3   OH268200   4.338   4.313   2.440  0.2153  0.4073 -0.1193
15570TIP3    H168201   4.358   4.353   2.525  1.8681 -1.9159  0.6253
15570TIP3    H268202   4.261   4.259   2.456  0.0215  0.6240 -0.3114
15571TIP3   OH268203   3.134   6.310   2.905 -0.3256  0.5041  0.4515
15571TIP3    H168204   3.069   6.331   2.972  0.1014 -0.7804  1.2915
15571TIP3    H268205   3.219   6.327   2.947 -0.0299 -1.1977  0.5570
15572TIP3   OH268206   3.536   5.172   2.891 -0.3528 -0.0074  0.3589
15572TIP3    H168207   3.619   5.124   2.892 -1.0048 -1.1693 -0.1335
15572TIP3    H268208   3.516   5.187   2.984  0.3106  0.1030  0.4857
15573TIP3   OH268209   3.506   4.535   2.572 -0.1700  0.4729 -0.2350
15573TIP3    H168210   3.568   4.601   2.542  0.4824 -0.4721 -1.0273
15573TIP3    H268211   3.448   4.581   2.633  1.8510  1.1911  1.2049
15574TIP3   OH268212   2.241   4.576   3.064  0.4619  0.3694 -0.2514
15574TIP3    H168213   2.174   4.642   3.081  0.3014  0.4814 -1.3008
15574TIP3    H268214   2.248   4.527   3.146 -2.3469 -0.9310 -0.7288
15575TIP3   OH268215   1.528   4.325   1.472  0.3439  0.1343  0.0940
15575TIP3    H168216   1.523   4.255   1.538  0.4246  0.0689  0.0323
15575TIP3    H268217   1.542   4.278   1.389  1.0467  0.2522  0.1405
15576TIP3   OH268218   4.295   6.139   2.502  0.2525 -1.0632 -0.1806
15576TIP3    H168219   4.230   6.185   2.448 -0.0446 -1.6741 -0.3425
15576TIP3    H268220   4.379   6.166   2.466  0.1475  0.9715  1.0238
15577TIP3   OH268221   2.358   4.717   1.170 -0.6247  0.2049 -0.0975
15577TIP3    H168222   2.315   4.652   1.226 -1.0957 -0.1747 -0.8991
15577TIP3    H268223   2.431   4.669   1.131 -0.9648  0.1608 -0.6790
15578TIP3   OH268224   3.501   4.202   2.382 -0.1171  0.0708  0.3364
15578TIP3    H168225   3.566   4.181   2.314  0.1569 -0.8754  0.8929
15578TIP3    H268226   3.451   4.275   2.344 -0.0903 -0.5597 -0.9683
15579TIP3   OH268227   2.438   4.040   4.638 -0.1527 -0.0978  0.4973
15579TIP3    H168228   2.448   4.092   4.717 -1.5137  1.9333 -0.6064
15579TIP3    H268229   2.358   4.074   4.597 -0.4703 -2.3205 -0.8426
15580TIP3   OH268230   4.081   3.250   2.242  0.5585  0.0568  0.1378
15580TIP3    H168231   4.169   3.220   2.262  0.0957 -1.3277  0.2003
15580TIP3    H268232   4.062   3.318   2.307  1.4535  0.1323  0.3185
15581TIP3   OH268233   4.905   2.601   2.117 -0.1614 -0.7219  0.2523
15581TIP3    H168234   4.883   2.541   2.187 -1.8005 -1.5826 -0.9668
15581TIP3    H268235   4.846   2.578   2.045  1.6286 -0.0299 -1.5081
15582TIP3   OH268236   4.661   5.276   5.113  0.1283 -0.0618  0.3370
15582TIP3    H168237   4.607   5.342   5.070  0.7542  0.5011  0.4102
15582TIP3    H268238   4.723   5.326   5.166 -0.0234 -0.7293  1.1622
15583TIP3   OH268239   0.838   3.584   3.005  0.0818  0.4174 -0.7930
15583TIP3    H168240   0.918   3.611   3.051  0.5205 -1.4757 -0.4145
15583TIP3    H268241   0.770   3.589   3.072 -0.1867  2.3127 -1.1889
15584TIP3   OH268242   3.230   6.041   2.818  0.1391  0.3355 -0.4971
15584TIP3    H168243   3.260   6.067   2.731 -0.2736  1.7441 -0.2277
15584TIP3    H268244   3.208   6.123   2.862 -1.7927 -0.4831  0.1527
15585TIP3   OH268245   1.984   5.190   1.514  0.3474 -0.8037 -0.3174
15585TIP3    H168246   2.061   5.228   1.471 -2.0340  1.5391 -2.6214
15585TIP3    H268247   1.969   5.246   1.590 -1.3178  1.0419 -1.9858
15586TIP3   OH268248   0.921   4.935   0.445 -0.0069  0.2029  0.3538
15586TIP3    H168249   0.898   4.890   0.364 -1.0664 -0.3018  0.9172
15586TIP3    H268250   0.914   5.028   0.424  0.4300  0.0874 -0.3238
15587TIP3   OH268251   3.152   4.617   0.964 -0.0111 -0.2161 -0.0768
15587TIP3    H168252   3.206   4.628   0.886 -0.6408  1.7950 -0.2506
15587TIP3    H268253   3.169   4.695   1.016 -0.9611 -0.6952  0.9693
15588TIP3   OH268254   1.351   6.167   1.136  0.5837 -0.1977  0.2082
15588TIP3    H168255   1.261   6.185   1.163  0.5677  0.8102 -0.4859
15588TIP3    H268256   1.357   6.071   1.135  0.2784 -0.2955  2.7275
15589TIP3   OH268257   1.203   5.880   1.768  0.0239  0.0287 -0.0029
15589TIP3    H168258   1.260   5.808   1.740  0.2412  0.8083 -1.6377
15589TIP3    H268259   1.262   5.941   1.812  0.4146  0.6803 -1.4045
15590TIP3   OH268260   1.732   3.661   1.309  0.0635  0.2038 -0.1837
15590TIP3    H168261   1.648   3.694   1.339  0.8098 -0.2764  2.5797
15590TIP3    H268262   1.788   3.738   1.303  0.0826  0.2252  0.2741
15591TIP3   OH268263   1.708   4.795   2.937  0.0130 -0.7153  0.0252
15591TIP3    H168264   1.758   4.760   2.863  0.2073  0.3642 -0.3656
15591TIP3    H268265   1.726   4.889   2.936 -0.8683 -0.5285  0.7738
15592TIP3   OH268266   2.162   5.585   1.636  0.0294  0.8943  0.6650
15592TIP3    H168267   2.241   5.580   1.581  0.5584  1.4732  1.3626
15592TIP3    H268268   2.175   5.517   1.702 -1.1514 -0.6026 -0.6048
15593TIP3   OH268269   4.849   4.575   3.331 -0.2600 -0.0278  0.3855
15593TIP3    H168270   4.813   4.566   3.242 -0.0209  0.1469  0.2737
15593TIP3    H268271   4.925   4.517   3.332 -0.2658 -0.0342  0.4818
15594TIP3   OH268272   2.373   4.433   0.546  0.2170  0.1476 -0.0680
15594TIP3    H168273   2.469   4.426   0.546  0.1775 -0.7127 -2.2687
15594TIP3    H268274   2.345   4.381   0.471 -1.9320  1.1514  0.0031
15595TIP3   OH268275   3.426   6.225   2.511  0.3435 -0.4820  0.4931
15595TIP3    H168276   3.426   6.130   2.506  0.6748 -0.4288 -0.7372
15595TIP3    H268277   3.343   6.252   2.472  0.5581 -0.2454  0.1933
15596TIP3   OH268278   3.546   3.079  15.947 -0.1149  0.1563 -0.4542
15596TIP3    H168279   3.631   3.055  15.984  0.6896  4.0942  0.5171
15596TIP3    H268280   3.482   3.036  16.003  1.1970 -0.9697  0.2161
15597TIP3   OH268281   4.410   5.678   4.100 -0.7363  0.1082 -0.0294
15597TIP3    H168282   4.351   5.635   4.038 -0.7415 -1.4157  1.0169
15597TIP3    H268283   4.352   5.729   4.156 -1.0064 -0.8242  0.5484
15598TIP3   OH268284   3.236   5.461   2.983 -0.8289 -0.0192  0.1555
15598TIP3    H168285   3.290   5.416   2.917 -1.0611 -0.8405  0.5176
15598TIP3    H268286   3.150   5.421   2.974 -1.0315  0.3442  0.4987
15599TIP3   OH268287   4.453   4.714   0.834  0.4393 -0.2610  0.4486
15599TIP3    H168288   4.405   4.668   0.765 -0.5630 -0.6216  1.3645
15599TIP3    H268289   4.523   4.760   0.788 -1.1431  0.7701 -1.0062
15600TIP3   OH268290   6.953   5.121  15.711 -0.3166  0.0456 -0.0879
15600TIP3    H168291   6.895   5.109  15.636 -0.9991  0.2129  0.4104
15600TIP3    H268292   7.038   5.141  15.673 -0.8113  0.7977 -0.8147
15601TIP3   OH268293   2.664   4.967   4.868  0.1543  0.2295 -0.3805
15601TIP3    H168294   2.585   4.926   4.833  1.1337 -0.8005 -1.4190
15601TIP3    H268295   2.633   5.051   4.904 -0.9853  1.1829 -3.3812
15602TIP3   OH268296   3.620   2.765   3.000  0.5055 -0.1104 -1.2821
15602TIP3    H168297   3.691   2.714   2.961  0.6996 -0.0912 -0.9614
15602TIP3    H268298   3.610   2.727   3.088  0.7891  0.5425 -0.9680
15603TIP3   OH268299   2.121   5.249   1.774  0.0837 -0.4829 -0.2900
15603TIP3    H168300   2.125   5.155   1.792 -0.1180 -0.5794 -0.7479
15603TIP3    H268301   2.086   5.287   1.855  0.2208 -0.7951 -0.0816
15604TIP3   OH268302   2.398   5.373   4.814  0.6089 -0.2944  0.3388
15604TIP3    H168303   2.448   5.428   4.752 -1.5427  1.1674 -0.1613
15604TIP3    H268304   2.415   5.412   4.899  2.9078 -1.7969  0.5976
15605TIP3   OH268305   4.310   5.321   2.839 -0.4882 -0.1235 -0.6130
15605TIP3    H168306   4.244   5.375   2.796 -1.6980  0.1046  1.4420
15605TIP3    H268307   4.325   5.365   2.923  0.5730 -1.4731 -0.0818
15606TIP3   OH268308   1.598   3.394   1.366 -0.0567  0.4812 -0.1403
15606TIP3    H168309   1.678   3.444   1.350  0.4945 -0.8912 -1.8768
15606TIP3    H268310   1.613   3.350   1.450  1.9379 -1.4878 -1.4841
15607TIP3   OH268311   4.543   5.814   5.606  0.5858  0.4543  0.2155
15607TIP3    H168312   4.478   5.745   5.602 -1.3979  2.2510  0.2192
15607TIP3    H268313   4.534   5.850   5.695  0.2850  1.8710 -0.3654
15608TIP3   OH268314   1.245   5.728   2.263  0.7498 -0.0371  0.0445
15608TIP3    H168315   1.258   5.633   2.265  1.4347  0.0111 -1.4774
15608TIP3    H268316   1.247   5.754   2.355  1.3280 -1.4004  0.4337
15609TIP3   OH268317   0.715   2.723   4.738 -0.2147 -0.4108  0.6853
15609TIP3    H168318   0.653   2.701   4.668  0.0426 -2.0867  0.9546
15609TIP3    H268319   0.661   2.763   4.806 -0.6752  0.0520  0.0494
15610TIP3   OH268320   2.662   2.020   2.489 -0.6890  0.5748  0.0473
15610TIP3    H168321   2.618   2.099   2.521 -2.8021 -0.4058 -0.3469
15610TIP3    H268322   2.595   1.973   2.440  0.8543 -0.9204 -0.7061
15611TIP3   OH268323   1.963   4.426   3.650 -0.0831 -0.3007 -0.1418
15611TIP3    H168324   1.941   4.446   3.741 -1.6272 -1.5364 -0.2349
15611TIP3    H268325   1.901   4.359   3.624  0.4499 -0.0757 -2.0778
15612TIP3   OH268326   3.104   4.836   0.579 -0.2444 -0.9636 -0.4403
15612TIP3    H168327   3.148   4.909   0.623 -0.0094 -1.3345 -0.0514
15612TIP3    H268328   3.019   4.828   0.624  0.6524 -2.3894  1.0673
15613TIP3   OH268329   4.673   5.596   4.105 -0.0972  0.1299  0.1481
15613TIP3    H168330   4.715   5.621   4.023 -0.0744 -1.8956 -0.4976
15613TIP3    H268331   4.583   5.629   4.098 -0.6726 -1.6990 -1.5620
15614TIP3   OH268332   1.849   5.111   3.977 -0.1440  0.3120  0.9253
15614TIP3    H168333   1.937   5.098   4.014 -0.6513 -2.4581  1.2284
15614TIP3    H268334   1.790   5.101   4.052 -1.0386 -3.2435 -0.1721
15615TIP3   OH268335   1.192   3.977   0.769 -0.0065 -0.1003  0.0080
15615TIP3    H168336   1.149   3.951   0.851 -0.9828  1.9327  0.1636
15615TIP3    H268337   1.268   4.028   0.796 -1.0730  1.7193 -0.3294
15616TIP3   OH268338   3.227   4.748   3.948  0.3220 -0.2109 -0.2223
15616TIP3    H168339   3.318   4.745   3.919  0.8154 -0.8071  1.3792
15616TIP3    H268340   3.213   4.839   3.975  1.2638 -0.7266  2.1024
15617TIP3   OH268341   2.363   3.809   0.204 -0.2390 -0.9673 -0.3436
15617TIP3    H168342   2.382   3.896   0.169  2.1436 -1.1329  0.4818
15617TIP3    H268343   2.308   3.826   0.281 -0.8315 -0.2864 -0.9069
15618TIP3   OH268344   2.836   5.682   5.228  0.0726 -0.5169  0.0553
15618TIP3    H168345   2.872   5.628   5.298  0.0829 -0.8050 -0.1677
15618TIP3    H268346   2.849   5.772   5.257  0.2387 -0.6321  0.3398
15619TIP3   OH268347   3.209   6.261   2.360 -0.3071 -0.3855 -0.4941
15619TIP3    H168348   3.191   6.179   2.313  2.9159 -1.2693 -0.3203
15619TIP3    H268349   3.201   6.329   2.293 -0.3415 -1.1428 -1.2729
15620TIP3   OH268350   1.547   4.132   0.041  0.5015 -0.0825  0.1354
15620TIP3    H168351   1.613   4.092  -0.015  1.9648  0.8869  1.1448
15620TIP3    H268352   1.491   4.182  -0.019  2.5782  1.6780 -0.3879
15621TIP3   OH268353   3.175   5.040   4.938 -0.2530  0.1285  0.3510
15621TIP3    H168354   3.130   5.011   4.859 -0.0887 -0.0606  0.3277
15621TIP3    H268355   3.112   5.098   4.981  0.2714  1.5859 -0.7679
15622TIP3   OH268356   5.458   3.979   3.915 -0.3860  0.0790 -0.4669
15622TIP3    H168357   5.426   3.892   3.938 -1.1815  0.9873  1.9160
15622TIP3    H268358   5.540   3.989   3.964  0.2810  0.2480 -1.5954
15623TIP3   OH268359   2.116   4.355   4.169  0.7012  0.0527  0.1568
15623TIP3    H168360   2.190   4.409   4.140  0.9974 -0.2181  0.4181
15623TIP3    H268361   2.079   4.403   4.244 -0.4296  1.0665 -1.0059
15624TIP3   OH268362   5.727   5.144   5.559 -0.0393 -0.2100  0.3024
15624TIP3    H168363   5.672   5.221   5.545 -2.7934 -1.8448  1.6868
15624TIP3    H268364   5.763   5.125   5.472  1.1208  2.8875  0.0307
15625TIP3   OH268365   3.081   6.293   4.688 -0.2746  0.2737 -0.6022
15625TIP3    H168366   3.126   6.238   4.623  0.5436  0.8691 -0.5544
15625TIP3    H268367   3.035   6.359   4.636 -1.7938 -0.8423 -0.6878
15626TIP3   OH268368   2.199   4.231   1.971 -0.0051  0.0222  0.3780
15626TIP3    H168369   2.191   4.136   1.977  0.1883 -0.1460 -1.5479
15626TIP3    H268370   2.279   4.244   1.919 -1.0862  1.1918 -1.0171
15627TIP3   OH268371   3.613   5.625   3.739 -0.3275  0.1261  0.1643
15627TIP3    H168372   3.561   5.545   3.741 -0.3116  0.0727 -1.1355
15627TIP3    H268373   3.558   5.691   3.782 -0.7950 -0.3077  0.2300
15628TIP3   OH268374   5.269   5.262   2.193  0.2013 -0.1334  0.1524
15628TIP3    H168375   5.291   5.201   2.263 -0.2404  0.9509  1.2358
15628TIP3    H268376   5.205   5.214   2.139  1.8303 -1.6199 -0.5254
15629TIP3   OH268377   1.227   5.085   2.450  0.2285 -0.0748 -0.3635
15629TIP3    H168378   1.262   5.017   2.393 -0.2806  0.8489 -1.7967
15629TIP3    H268379   1.295   5.098   2.517  0.0325 -2.4334  0.3144
15630TIP3   OH268380   3.679   4.383   3.339 -0.4148 -0.0978  0.1047
15630TIP3    H168381   3.591   4.383   3.375 -0.6166  0.7443 -0.3818
15630TIP3    H268382   3.722   4.309   3.381 -1.3585 -0.5262  0.3249
15631TIP3   OH268383   0.203   2.522   5.176 -0.2211  0.1180  1.1706
15631TIP3    H168384   0.124   2.575   5.187 -0.0233  0.8158 -0.6155
15631TIP3    H268385   0.268   2.583   5.141  0.2599 -1.0894 -0.0788
15632TIP3   OH268386   3.026   4.063   2.934 -0.0972  0.0411 -0.2414
15632TIP3    H168387   2.950   4.121   2.944  0.5290  0.7241  0.7273
15632TIP3    H268388   3.044   4.032   3.023 -0.2537 -1.4393 -0.7135
15633TIP3   OH268389   3.562   6.314   2.267  0.0697  0.6182 -0.0879
15633TIP3    H168390   3.592   6.235   2.312  0.7527  0.7459 -0.3221
15633TIP3    H268391   3.481   6.338   2.313 -0.8878 -1.0021 -0.9001
15634TIP3   OH268392   0.882   5.497   0.397 -0.8116  1.2545 -0.4056
15634TIP3    H168393   0.801   5.529   0.437 -0.5401 -0.4045  1.5392
15634TIP3    H268394   0.952   5.545   0.441 -0.5349 -0.2533  0.8271
15635TIP3   OH268395   1.877   3.402   3.267  0.0700 -0.4325  0.2910
15635TIP3    H168396   1.809   3.336   3.264 -0.1503 -0.2707  1.4550
15635TIP3    H268397   1.841   3.477   3.220 -0.3728 -0.5225  0.4885
15636TIP3   OH268398   3.927   4.525   2.173 -0.4067 -0.0310  0.2805
15636TIP3    H168399   3.932   4.485   2.087  0.4198  2.1147 -0.7030
15636TIP3    H268400   3.909   4.618   2.155 -0.8692  0.3206  2.4282
15637TIP3   OH268401   5.122   6.869   2.221 -0.1548  0.2356 -0.3906
15637TIP3    H168402   5.051   6.855   2.284  1.3192  0.4378  1.3382
15637TIP3    H268403   5.092   6.825   2.141 -2.4035  0.6938  0.1810
15638TIP3   OH268404   5.224   5.479   2.886  0.0016  0.1179 -0.1134
15638TIP3    H168405   5.158   5.535   2.846  0.2655 -1.2970 -2.6681
15638TIP3    H268406   5.184   5.449   2.967 -0.9318  2.3737  0.2856
15639TIP3   OH268407   5.675   0.774   3.292 -0.1392 -0.2726  0.1896
15639TIP3    H168408   5.583   0.787   3.312 -0.0936 -0.5300  0.5778
15639TIP3    H268409   5.675   0.723   3.210 -0.3452 -0.4617  0.3072
15640TIP3   OH268410   4.742   4.253   0.161 -0.0808 -0.4396 -0.1018
15640TIP3    H168411   4.743   4.317   0.090 -1.3634 -0.5195 -0.1991
15640TIP3    H268412   4.824   4.205   0.151  1.0926  1.4146  0.1869
15641TIP3   OH268413   2.959   4.160   0.875 -0.8019 -0.1220  0.5157
15641TIP3    H168414   2.998   4.221   0.812  0.4059 -0.0085  1.3529
15641TIP3    H268415   2.918   4.093   0.821  1.1987 -0.6361 -0.4133
15642TIP3   OH268416   4.996   5.626   2.840 -0.0247 -0.1041 -0.2553
15642TIP3    H168417   4.965   5.604   2.752 -0.0133 -0.6592 -0.1285
15642TIP3    H268418   4.919   5.660   2.885 -0.6687 -2.1455  0.2828
15643TIP3   OH268419   1.950   5.428   4.732 -0.8072 -0.4043  0.4059
15643TIP3    H168420   1.983   5.494   4.670 -0.8559  0.6104  1.4409
15643TIP3    H268421   1.867   5.465   4.763 -0.3927 -0.5204  1.6734
15644TIP3   OH268422   4.215   5.321   1.311 -0.3058 -0.0154  0.5786
15644TIP3    H168423   4.175   5.253   1.364 -0.8044  1.3671  2.0087
15644TIP3    H268424   4.167   5.319   1.228 -0.9263 -0.7846  0.9577
15645TIP3   OH268425   6.171   5.306   1.152  0.6101  0.5106  0.6514
15645TIP3    H168426   6.195   5.215   1.171 -0.9067 -0.4202 -1.6585
15645TIP3    H268427   6.089   5.299   1.103  0.0879  3.1791  1.0697
15646TIP3   OH268428   2.685   4.357   1.047 -0.3441  0.1028  0.7958
15646TIP3    H168429   2.771   4.361   1.088 -0.5986  2.4463  1.2283
15646TIP3    H268430   2.688   4.282   0.989  1.6564 -0.4197  1.5569
15647TIP3   OH268431   0.446   3.608   4.302  0.0019 -0.2864 -0.3097
15647TIP3    H168432   0.476   3.518   4.301  1.2626  0.1206 -0.5888
15647TIP3    H268433   0.405   3.619   4.388 -0.3942 -1.1859 -0.3786
15648TIP3   OH268434   3.386   3.133   4.562 -0.5070 -0.1491  0.0477
15648TIP3    H168435   3.480   3.147   4.571 -0.6668  0.1067  1.4589
15648TIP3    H268436   3.368   3.150   4.470  0.6093  1.1367  0.0517
15649TIP3   OH268437   2.664   5.901   5.113  0.4340  0.5338 -0.1890
15649TIP3    H168438   2.688   5.825   5.061  0.1232 -0.1078  0.5907
15649TIP3    H268439   2.724   5.899   5.188  2.2490  2.6038 -1.5261
15650TIP3   OH268440   2.756   4.107   4.707 -0.0980 -0.5341  0.6046
15650TIP3    H168441   2.769   4.194   4.745  0.0599 -0.9224  1.4581
15650TIP3    H268442   2.746   4.123   4.613 -0.0821  0.4053  0.7568
15651TIP3   OH268443   5.833   5.126   1.283 -0.1270  0.1658  0.4294
15651TIP3    H168444   5.868   5.065   1.348 -3.9656 -1.8470  0.7463
15651TIP3    H268445   5.870   5.097   1.200  1.4653  0.1125  1.1425
15652TIP3   OH268446   2.242   5.521   2.159  0.7291  0.3187  0.1374
15652TIP3    H168447   2.270   5.600   2.112  0.4611  0.3603  0.0480
15652TIP3    H268448   2.242   5.546   2.251  0.8817  0.3514  0.1287
15653TIP3   OH268449   6.784   6.801   4.437  0.0484  0.5458 -0.0294
15653TIP3    H168450   6.842   6.840   4.372 -0.5570 -0.4803 -1.2071
15653TIP3    H268451   6.795   6.855   4.515  0.8712  1.7227 -0.9490
15654TIP3   OH268452   3.621   3.582   2.452 -0.5344  0.1041 -0.1488
15654TIP3    H168453   3.597   3.531   2.529  0.5506  1.0924  0.8529
15654TIP3    H268454   3.542   3.631   2.430 -0.4308  0.9029  1.2020
15655TIP3   OH268455   2.194   2.553   4.388 -0.0362  0.1408  0.4036
15655TIP3    H168456   2.132   2.513   4.327  0.5260 -2.3097  1.3904
15655TIP3    H268457   2.141   2.614   4.440 -0.7682  1.2387 -1.5786
15656TIP3   OH268458   2.451   4.097   1.946 -0.1214  0.5206  0.4303
15656TIP3    H168459   2.507   4.066   2.017 -1.0652  1.6231  1.7045
15656TIP3    H268460   2.500   4.078   1.866  2.1243  1.5936  1.5046
15657TIP3   OH268461   3.339   2.512   2.353 -0.4558 -0.2944  0.2601
15657TIP3    H168462   3.408   2.572   2.382 -0.6100 -0.2114  0.4633
15657TIP3    H268463   3.291   2.562   2.286  1.2172 -1.2794 -1.7051
15658TIP3   OH268464   4.597   6.085   2.906 -0.8964 -0.3363  0.4504
15658TIP3    H168465   4.595   6.111   2.998 -0.1780  0.2280  0.3123
15658TIP3    H268466   4.566   5.994   2.907  0.7819 -0.9344  1.4759
15659TIP3   OH268467   2.406   4.176   2.698  0.1670  0.4851  0.3881
15659TIP3    H168468   2.379   4.267   2.687  1.7772  1.2033  2.0505
15659TIP3    H268469   2.357   4.145   2.774  1.2658  0.6780  1.1923
15660TIP3   OH268470   3.636   4.089   2.624 -0.2497  0.9397 -0.1801
15660TIP3    H168471   3.727   4.095   2.596 -0.5023 -1.0947 -1.5331
15660TIP3    H268472   3.597   4.023   2.566 -1.4348 -1.5766  3.3179
15661TIP3   OH268473   2.239   3.419  15.506  0.2518 -0.9694  0.3061
15661TIP3    H168474   2.237   3.515  15.512 -1.7459 -0.9018 -1.1037
15661TIP3    H268475   2.300   3.392  15.575 -0.6228  1.2025  1.9970
15662TIP3   OH268476   5.281   1.098   4.127  0.4629 -0.4443  0.3951
15662TIP3    H168477   5.341   1.023   4.127  2.8169  1.4069  1.0134
15662TIP3    H268478   5.295   1.140   4.043  0.1238  0.1000  0.6086
15663TIP3   OH268479   2.951   3.668   5.703  0.5011  0.3656  0.2091
15663TIP3    H168480   2.901   3.746   5.678 -0.5993 -0.5521 -0.4814
15663TIP3    H268481   2.970   3.681   5.796 -0.2803  1.1300  0.2720
15664TIP3   OH268482   1.000   3.483   0.349 -0.6170 -0.4466 -0.1283
15664TIP3    H168483   1.063   3.555   0.351 -1.4497  0.2950 -0.6230
15664TIP3    H268484   1.007   3.443   0.436  0.6760 -0.4959 -0.2481
15665TIP3   OH268485   4.420   3.377   4.598  0.0716 -0.2481  0.0159
15665TIP3    H168486   4.328   3.379   4.624 -0.4524 -0.1229 -1.7803
15665TIP3    H268487   4.447   3.469   4.601 -0.3253 -0.0880 -0.9988
15666TIP3   OH268488   1.665   6.124   2.993  0.2313  0.3990 -0.4157
15666TIP3    H168489   1.602   6.141   2.923  1.5316  2.1817 -1.1932
15666TIP3    H268490   1.677   6.029   2.993  0.4688  0.4035 -2.8666
15667TIP3   OH268491   1.609   5.856   3.925 -0.1867 -0.4338 -0.1761
15667TIP3    H168492   1.673   5.860   3.997 -0.8514  0.9630  0.3582
15667TIP3    H268493   1.524   5.861   3.968 -0.5771  2.7867 -1.1474
15668TIP3   OH268494   0.550   3.816   2.617  0.1376 -0.3514 -0.0168
15668TIP3    H168495   0.630   3.869   2.619 -0.2786  0.4124 -2.5385
15668TIP3    H268496   0.564   3.750   2.686  2.1580  0.8468  0.7842
15669TIP3   OH268497   1.807   4.143   3.930 -0.8864  0.3278  0.1739
15669TIP3    H168498   1.807   4.048   3.923  0.9609  0.0493  2.9009
15669TIP3    H268499   1.836   4.174   3.844 -0.6092 -1.6109 -0.4551
15670TIP3   OH268500   4.352   5.231   2.212 -0.6990 -0.5497  0.7191
15670TIP3    H168501   4.320   5.306   2.261  1.0077  1.5108 -1.1598
15670TIP3    H268502   4.446   5.230   2.230 -0.4793 -1.3002 -0.4325
15671TIP3   OH268503   3.829   0.224   5.666  0.3586 -0.4255  0.3158
15671TIP3    H168504   3.764   0.255   5.603 -1.1284 -2.0062  1.0539
15671TIP3    H268505   3.873   0.152   5.622  0.3946 -0.5113  0.4909
15672TIP3   OH268506   2.133   6.112   2.736  0.0514  0.6410  0.3411
15672TIP3    H168507   2.043   6.084   2.718  0.2830  0.3526 -0.3929
15672TIP3    H268508   2.170   6.129   2.649  1.7364 -2.4123  0.4070
15673TIP3   OH268509   4.337   5.960   4.835 -0.0769  0.1748  0.3602
15673TIP3    H168510   4.294   6.035   4.876 -0.3597 -0.2300  0.8012
15673TIP3    H268511   4.402   5.932   4.899  1.1433  1.0372 -0.4630
15674TIP3   OH268512   3.368   0.977   4.475  0.1545  0.4553  0.1860
15674TIP3    H168513   3.333   1.018   4.396 -0.7437 -0.0295  0.3182
15674TIP3    H268514   3.344   0.884   4.466  3.9202 -0.4818 -1.0942
15675TIP3   OH268515   3.135   4.407   2.763  0.1262  0.0348 -0.2602
15675TIP3    H168516   3.164   4.360   2.841 -1.7530  1.5602  1.3810
15675TIP3    H268517   3.044   4.380   2.750 -0.0039  0.8672 -1.1384
15676TIP3   OH268518   2.760   5.987  15.652 -0.5101 -0.2120  0.7239
15676TIP3    H168519   2.707   5.943  15.585 -0.2864 -0.3667  0.6499
15676TIP3    H268520   2.816   5.918  15.688  1.8757  0.5683 -1.3633
15677TIP3   OH268521   2.901   4.723   2.275 -0.0191  0.2847 -0.0128
15677TIP3    H168522   2.925   4.653   2.215  0.8018  0.2949  0.3012
15677TIP3    H268523   2.812   4.747   2.249 -0.1984 -0.6771 -0.3015
15678TIP3   OH268524   2.575   5.305   3.961 -0.1014 -0.4028  0.0569
15678TIP3    H168525   2.491   5.343   3.986  0.0798  2.6412 -3.5959
15678TIP3    H268526   2.632   5.318   4.038 -2.0891  0.2223  1.4519
15679TIP3   OH268527   4.735   3.053   3.351 -0.2107  0.1638 -0.4278
15679TIP3    H168528   4.790   3.085   3.422 -2.8911  1.3795  1.1655
15679TIP3    H268529   4.698   2.970   3.383 -1.2826  0.6246 -0.4362
15680TIP3   OH268530   2.301   4.660   1.712 -0.0150 -0.5731  0.3462
15680TIP3    H168531   2.220   4.621   1.679 -1.5751  0.0132  3.2882
15680TIP3    H268532   2.329   4.602   1.782  0.8690  0.4486  0.8456
15681TIP3   OH268533   2.294   3.065   0.960 -0.3301  0.0021  0.1248
15681TIP3    H168534   2.260   3.118   0.888 -0.8446  0.3515  0.6296
15681TIP3    H268535   2.302   3.125   1.034 -0.7008 -0.5586  0.6317
15682TIP3   OH268536   3.704   5.771   0.438 -0.5526  0.6897 -0.1837
15682TIP3    H168537   3.640   5.792   0.370  1.8335  2.3855 -1.9941
15682TIP3    H268538   3.787   5.761   0.391  1.1951  2.0470  2.4667
15683TIP3   OH268539   3.036   3.071   4.001 -0.7195 -0.5167  0.4292
15683TIP3    H168540   3.011   2.997   3.945 -0.1821 -0.2185 -0.2130
15683TIP3    H268541   2.984   3.145   3.967  0.4113 -0.0807 -0.3930
15684TIP3   OH268542   1.990   4.089   2.302  0.0670  0.6583  0.3788
15684TIP3    H168543   1.921   4.146   2.267  0.1471 -0.5312 -1.8120
15684TIP3    H268544   1.986   4.011   2.247  1.1571 -0.7050  2.2008
15685TIP3   OH268545   1.870   6.581   3.204  0.1884  0.0076  0.6331
15685TIP3    H168546   1.845   6.526   3.130  1.0698  0.2180  0.1719
15685TIP3    H268547   1.841   6.532   3.281  0.9959 -1.1174  0.2310
15686TIP3   OH268548   2.301   2.199   1.245 -0.1259 -0.0175  0.6405
15686TIP3    H168549   2.218   2.194   1.292  0.0010 -0.1160  0.8559
15686TIP3    H268550   2.310   2.113   1.203  0.5324 -0.5030  1.7513
15687TIP3   OH268551   1.274   5.279  14.951 -0.2168  0.4795  0.0326
15687TIP3    H168552   1.271   5.374  14.938 -1.9438  0.3953 -0.2973
15687TIP3    H268553   1.312   5.268  15.038  0.2201  1.4625 -0.0318
15688TIP3   OH268554   2.561   4.791   0.899 -0.7043  0.2314 -0.5377
15688TIP3    H168555   2.521   4.868   0.858  1.9878  0.8823 -2.0693
15688TIP3    H268556   2.559   4.725   0.830  0.5204  0.1710 -0.5221
15689TIP3   OH268557   6.901   5.061  14.107  0.4228 -0.1073 -0.2309
15689TIP3    H168558   6.959   5.021  14.044  0.7618  0.1796 -0.1014
15689TIP3    H268559   6.885   4.993  14.173 -0.2879 -0.5533 -0.8547
15690TIP3   OH268560   1.556   5.074   1.156  0.3219 -0.3757  0.0991
15690TIP3    H168561   1.600   5.079   1.072  2.5396  0.6512  1.2849
15690TIP3    H268562   1.625   5.054   1.219 -1.0915  0.0282  1.8418
15691TIP3   OH268563   5.877   1.943   3.819 -0.1871  0.2300 -0.0347
15691TIP3    H168564   5.801   1.970   3.871 -1.2729 -1.1552 -0.8484
15691TIP3    H268565   5.930   1.892   3.880 -0.8212 -0.3098  0.0781
15692TIP3   OH268566   1.512   3.926   1.216 -0.8169 -0.1779  0.5198
15692TIP3    H168567   1.541   3.885   1.134  0.6515 -0.1129  0.9969
15692TIP3    H268568   1.492   3.853   1.274  0.6359 -0.2288  0.9647
15693TIP3   OH268569   2.133   5.146   2.423 -0.1499  0.4934 -0.1074
15693TIP3    H168570   2.208   5.200   2.399 -0.1572  0.2759 -0.6280
15693TIP3    H268571   2.085   5.199   2.487  0.1044  0.8989 -0.2494
15694TIP3   OH268572   3.703   5.971   3.284 -0.0506 -0.0050 -0.2527
15694TIP3    H168573   3.672   5.991   3.196  0.4753  0.3040 -0.3692
15694TIP3    H268574   3.785   6.021   3.293 -0.6227  0.7772  0.7740
15695TIP3   OH268575   5.330   6.088   4.164 -0.2784 -0.1820  0.5956
15695TIP3    H168576   5.304   6.076   4.255  0.9755 -1.6113  0.7708
15695TIP3    H268577   5.422   6.115   4.168  0.0924 -1.2705 -0.2760
15696TIP3   OH268578   5.916   3.756   2.099 -0.1454 -0.0137  0.2280
15696TIP3    H168579   5.879   3.842   2.078 -0.0045  0.2162  0.9206
15696TIP3    H268580   5.992   3.748   2.042  0.5563  0.8449  1.0338
15697TIP3   OH268581   5.360   5.954   3.897 -0.2496 -0.5739 -0.0362
15697TIP3    H168582   5.364   6.031   3.954 -0.8072 -0.5363 -0.0460
15697TIP3    H268583   5.283   5.969   3.842  0.7149 -0.2507 -1.3272
15698TIP3   OH268584   4.723   5.969   3.378  0.2116 -0.2053 -0.1781
15698TIP3    H168585   4.646   5.918   3.402  0.2250 -0.7452 -1.2648
15698TIP3    H268586   4.793   5.904   3.369  0.8413  0.2967  0.9659
15699TIP3   OH268587   4.783   6.547   2.474  0.0155  0.1826  0.3333
15699TIP3    H168588   4.793   6.551   2.569  0.3663  1.5510  0.2513
15699TIP3    H268589   4.850   6.486   2.445  0.0322 -0.0946  0.9489
15700TIP3   OH268590   2.341   7.141   2.545 -0.1131 -0.8703  0.0961
15700TIP3    H168591   2.340   7.096   2.630 -0.8297  2.3208  1.8522
15700TIP3    H268592   2.251   7.172   2.534 -0.0991 -1.4888 -2.0189
15701TIP3   OH268593   4.528   4.404   4.783 -0.7119  0.1696  0.0070
15701TIP3    H168594   4.555   4.481   4.732  0.4725 -0.1842  0.0933
15701TIP3    H268595   4.448   4.374   4.740 -0.1059  0.2976 -1.2235
15702TIP3   OH268596   0.611   6.116   4.463 -0.0504  0.3643 -0.0291
15702TIP3    H168597   0.695   6.156   4.488  0.9081 -0.9758 -1.0499
15702TIP3    H268598   0.545   6.178   4.495  1.3440  1.7814  0.1858
15703TIP3   OH268599   3.832   3.909   2.439  0.1450  0.3217  0.1223
15703TIP3    H168600   3.841   3.986   2.495  0.0301  0.9795 -0.7662
15703TIP3    H268601   3.869   3.837   2.492  1.3896  1.1970  0.4680
15704TIP3   OH268602   4.020   2.356   4.272  0.1025  0.0226 -0.3580
15704TIP3    H168603   4.072   2.387   4.198  1.4370 -0.1676  0.4764
15704TIP3    H268604   3.968   2.285   4.237 -0.4897  1.0121 -1.4986
15705TIP3   OH268605   4.297   6.477   2.784 -0.4116 -0.0546 -0.2100
15705TIP3    H168606   4.290   6.383   2.798 -1.3704  0.3278  2.2093
15705TIP3    H268607   4.386   6.499   2.812 -0.8998  0.0527  1.3125
15706TIP3   OH268608   4.941   4.192   3.466  0.0366 -0.1668  0.0069
15706TIP3    H168609   4.915   4.229   3.550  0.8362 -0.2184  0.2849
15706TIP3    H268610   5.010   4.250   3.434  0.0965 -0.4423 -0.3716
15707TIP3   OH268611   4.251   4.564   3.724 -0.0468 -0.3217  0.1149
15707TIP3    H168612   4.337   4.533   3.697 -0.1259 -0.8910  0.5177
15707TIP3    H268613   4.249   4.550   3.819  0.0025  1.1096  0.3506
15708TIP3   OH268614   4.143   5.479   2.703 -0.4715  0.3489  0.4285
15708TIP3    H168615   4.100   5.479   2.788 -0.4514  0.4775  0.4383
15708TIP3    H268616   4.076   5.510   2.642 -1.0106 -1.3259  0.1318
15709TIP3   OH268617   3.107   6.339   3.787  0.3289 -0.2196 -0.0708
15709TIP3    H168618   3.089   6.423   3.745  1.8168  0.3509  0.4077
15709TIP3    H268619   3.042   6.333   3.857 -0.2742  0.1750 -0.5921
15710TIP3   OH268620   0.773   4.666   2.499 -0.6188  0.1636  0.3636
15710TIP3    H168621   0.800   4.694   2.587 -0.2282 -1.2809  0.7048
15710TIP3    H268622   0.700   4.606   2.514 -0.7236  0.1151 -0.3158
15711TIP3   OH268623   3.744   2.972   2.737 -0.0933  0.1462  0.4238
15711TIP3    H168624   3.832   2.950   2.767 -0.4893 -1.2668  0.5959
15711TIP3    H268625   3.687   2.950   2.810 -0.5123  1.8006  0.5990
15712TIP3   OH268626   2.965   4.999   4.208  0.1919  0.1709 -0.1134
15712TIP3    H168627   2.976   5.055   4.285 -1.4385  2.6231 -1.5889
15712TIP3    H268628   2.873   5.008   4.185  0.8712  0.2818 -2.9464
15713TIP3   OH268629   5.093   6.254   3.869 -0.5728 -0.0538  0.4629
15713TIP3    H168630   5.150   6.251   3.792 -0.3252  1.3234  0.5755
15713TIP3    H268631   5.056   6.166   3.875  0.9937 -0.7757 -0.0298
15714TIP3   OH268632   5.155   4.708   1.479  0.1089  0.2166 -0.4439
15714TIP3    H168633   5.111   4.674   1.557 -1.3966  2.8984 -0.0420
15714TIP3    H268634   5.200   4.633   1.441 -2.6895 -2.0492  0.6102
15715TIP3   OH268635   2.853   5.499   2.353  0.1326 -0.1778  0.2175
15715TIP3    H168636   2.884   5.422   2.306 -1.0825 -0.0584 -0.8290
15715TIP3    H268637   2.890   5.573   2.305 -1.9727 -0.0240 -1.2610
15716TIP3   OH268638   3.559   5.916   1.593 -0.1918 -0.4989  0.0674
15716TIP3    H168639   3.524   6.004   1.581  0.2515 -0.4222 -0.7484
15716TIP3    H268640   3.647   5.920   1.555 -0.2964 -1.3854 -0.2931
15717TIP3   OH268641   3.557   0.351   1.995 -0.1537 -0.1797 -0.0984
15717TIP3    H168642   3.582   0.299   1.919  0.0143  0.2755 -0.3547
15717TIP3    H268643   3.473   0.313   2.023  0.4339 -1.2222  0.3155
15718TIP3   OH268644   4.135   6.071   2.117 -0.0267 -0.5081  0.0162
15718TIP3    H168645   4.165   5.984   2.144  0.4819 -0.1924  0.4986
15718TIP3    H268646   4.040   6.065   2.114 -0.1543 -0.3018  2.7889
15719TIP3   OH268647   5.150   4.139   4.050  0.1078  0.1194 -0.3937
15719TIP3    H168648   5.210   4.209   4.075 -2.7205  1.7123  2.2117
15719TIP3    H268649   5.171   4.067   4.110  0.4666  0.1006 -0.5404
15720TIP3   OH268650   3.041   4.687   4.582  0.2102 -0.2974 -0.1376
15720TIP3    H168651   2.957   4.686   4.536  0.5731 -0.8661 -0.8032
15720TIP3    H268652   3.067   4.595   4.587  0.7865 -0.1289  0.0746
15721TIP3   OH268653   0.194   3.492   2.935 -0.0693  0.3344  0.4518
15721TIP3    H168654   0.182   3.405   2.973  0.2813 -0.0893 -0.3934
15721TIP3    H268655   0.120   3.504   2.876 -0.5813  0.9676  1.2153
15722TIP3   OH268656   4.728   0.127   3.208  0.1876  0.7536 -0.0029
15722TIP3    H168657   4.689   0.182   3.276 -1.2695 -2.0492  1.5189
15722TIP3    H268658   4.779   0.062   3.256  1.6047  0.5494 -1.7479
15723TIP3   OH268659   5.063   4.814   2.278 -0.1700 -0.0178  0.5655
15723TIP3    H168660   5.014   4.843   2.202  0.1624  1.7714  1.0014
15723TIP3    H268661   5.015   4.849   2.353 -0.2135 -1.3288  1.1699
15724TIP3   OH268662   4.009   6.909   3.112 -0.7013  0.3635  0.6705
15724TIP3    H168663   4.037   6.926   3.202 -1.5696 -0.6955  1.1446
15724TIP3    H268664   3.976   6.993   3.081  1.1411  1.1538  0.7604
15725TIP3   OH268665   4.115   6.576   1.797  0.2786 -0.3957  0.3244
15725TIP3    H168666   4.059   6.575   1.875 -2.3533  1.4957 -1.4346
15725TIP3    H268667   4.165   6.657   1.804 -0.1784 -0.0750 -0.0780
15726TIP3   OH268668   4.433   2.911   5.472 -0.0063 -0.3787 -0.0446
15726TIP3    H168669   4.528   2.925   5.475 -0.0438 -0.1288 -0.0351
15726TIP3    H268670   4.421   2.842   5.406  0.0639  0.6275 -1.1249
15727TIP3   OH268671   0.082   6.857   4.163  0.6355  0.5391  0.5773
15727TIP3    H168672   0.140   6.782   4.146  0.4245  0.9049 -1.8599
15727TIP3    H268673   0.009   6.820   4.212  1.2087 -0.5822  0.6073
15728TIP3   OH268674   4.474   2.720   5.279  0.0879 -0.0264 -0.6641
15728TIP3    H168675   4.531   2.683   5.347 -1.4754 -0.2470  0.5528
15728TIP3    H268676   4.470   2.653   5.211 -1.1081 -1.2552  0.6058
15729TIP3   OH268677   4.075   4.931   2.925  0.0484  0.1576  0.3805
15729TIP3    H168678   4.125   4.934   2.843 -0.7643 -0.6964 -0.1594
15729TIP3    H268679   4.038   4.843   2.927  0.7729 -0.1395  2.1130
15730TIP3   OH268680   6.715   6.207   3.099 -0.4696 -0.0527  0.4718
15730TIP3    H168681   6.734   6.197   3.005 -2.0635 -0.1183  0.1465
15730TIP3    H268682   6.689   6.120   3.127 -1.9930  0.4008  0.5031
15731TIP3   OH268683   0.465   4.384  15.811 -0.3216  0.1941  0.4503
15731TIP3    H168684   0.453   4.463  15.864 -0.0478  1.2808 -1.0531
15731TIP3    H268685   0.506   4.321  15.870  2.5285  2.2754  0.8374
15732TIP3   OH268686   0.416   6.603   1.214 -0.2889 -0.5398 -0.3179
15732TIP3    H168687   0.506   6.576   1.234 -0.0242  1.2253  1.0547
15732TIP3    H268688   0.362   6.562   1.281 -0.2469 -0.0128  0.0433
15733TIP3   OH268689   2.673   4.484   2.535 -0.1676  0.5751  0.2038
15733TIP3    H168690   2.603   4.511   2.476 -0.8172 -0.3403  0.5473
15733TIP3    H268691   2.711   4.566   2.566 -1.3303  1.0860  0.3060
15734TIP3   OH268692   4.828   4.590   3.633 -0.4178 -0.5440  0.2971
15734TIP3    H168693   4.837   4.585   3.538  2.1079 -1.1956  0.5239
15734TIP3    H268694   4.905   4.640   3.661 -2.0183  1.1095  1.8776
15735TIP3   OH268695   4.165   4.830   3.218 -0.5048  0.0519 -0.3324
15735TIP3    H168696   4.196   4.816   3.308 -0.1990  1.3264 -0.2194
15735TIP3    H268697   4.075   4.860   3.229 -0.0419  1.5126 -0.3565
15736TIP3   OH268698   0.541   4.736   1.684 -0.0150  0.0377  0.1138
15736TIP3    H168699   0.459   4.784   1.669  0.4924  0.3372 -1.9301
15736TIP3    H268700   0.606   4.805   1.701  0.1073 -0.1099  0.2428
15737TIP3   OH268701   5.254   0.056   4.913 -0.9273 -0.0232  0.4473
15737TIP3    H168702   5.281   0.079   5.002  0.6526  2.6961 -0.6866
15737TIP3    H268703   5.309  -0.019   4.890  0.9217  1.2514  0.6297
15738TIP3   OH268704   4.038   3.443   3.182  0.1197  0.7302  0.4069
15738TIP3    H168705   4.055   3.355   3.149  1.0272  0.6915  0.9592
15738TIP3    H268706   4.110   3.496   3.147  1.1317  0.6809  2.2987
15739TIP3   OH268707   3.498   5.183   2.290 -0.2564 -0.5268 -0.3562
15739TIP3    H168708   3.565   5.223   2.346 -0.1350 -1.5761  0.2745
15739TIP3    H268709   3.494   5.240   2.213 -1.3293  1.6693  1.2717
15740TIP3   OH268710   6.484   5.442   1.497  0.3392 -0.3341 -0.2152
15740TIP3    H168711   6.489   5.503   1.570  0.7206  1.8295 -2.0171
15740TIP3    H268712   6.470   5.357   1.539 -1.4455  1.1153  2.2842
15741TIP3   OH268713   6.294   6.065   3.432 -0.1935 -0.0139  0.2751
15741TIP3    H168714   6.377   6.053   3.479  0.7094 -0.4122 -1.3754
15741TIP3    H268715   6.245   5.985   3.451  1.3877 -1.5604 -1.8229
15742TIP3   OH268716   3.295   5.087   3.406  0.1632  0.0956  0.0554
15742TIP3    H168717   3.245   5.120   3.480  0.3133 -0.3071  0.3417
15742TIP3    H268718   3.239   5.101   3.330 -0.1142  0.2389  0.2889
15743TIP3   OH268719   0.514   3.883  15.664 -0.2820 -0.4469 -0.0566
15743TIP3    H168720   0.463   3.959  15.690 -1.6524 -1.0471 -0.9505
15743TIP3    H268721   0.449   3.820  15.633  0.8469 -1.9152  0.5043
15744TIP3   OH268722   7.120   0.079   3.972  1.0076  0.1415  0.6269
15744TIP3    H168723   7.149   0.005   4.025 -1.4654 -0.0218  1.7817
15744TIP3    H268724   7.061   0.128   4.029 -1.7433 -0.0519 -1.9692
15745TIP3   OH268725   5.929   3.934   1.697  0.1655  0.2461  0.2467
15745TIP3    H168726   5.998   3.869   1.689 -0.1750 -0.0810 -0.0512
15745TIP3    H268727   5.860   3.891   1.746 -0.5489 -0.0280 -0.9654
15746TIP3   OH268728   5.342   5.590   0.158 -0.0725 -0.2060 -0.4852
15746TIP3    H168729   5.261   5.550   0.130  1.1174 -1.4875 -2.1921
15746TIP3    H268730   5.335   5.681   0.131 -1.0986 -0.2124 -0.2449
15747TIP3   OH268731   5.028   1.189   2.852 -0.7898 -0.8113  0.3513
15747TIP3    H168732   5.098   1.248   2.878 -1.0294 -0.1593 -0.4793
15747TIP3    H268733   5.071   1.105   2.839 -0.3448 -0.6712  0.9036
15748TIP3   OH268734   0.520   4.147   3.460  0.1933  0.1631 -0.4349
15748TIP3    H168735   0.458   4.182   3.523  1.2921  1.5180 -0.0714
15748TIP3    H268736   0.475   4.152   3.376 -1.2421 -1.5492  0.1991
15749TIP3   OH268737   0.574   6.120   1.459 -0.2110  0.1846  0.5947
15749TIP3    H168738   0.632   6.197   1.462 -0.4202  0.3631  0.1704
15749TIP3    H268739   0.606   6.070   1.384 -0.0381 -0.1729  0.9079
15750TIP3   OH268740   3.576   6.253   3.476 -0.3950  0.3127  0.1080
15750TIP3    H168741   3.627   6.186   3.521 -1.4753 -0.0308  0.8342
15750TIP3    H268742   3.496   6.261   3.527 -0.6257  1.5936 -0.4228
15751TIP3   OH268743   4.037   2.841   3.605 -0.3757 -0.2665  0.5810
15751TIP3    H168744   4.052   2.767   3.663 -0.2699  0.3565  1.3540
15751TIP3    H268745   3.996   2.803   3.528  0.7384 -1.2954  0.4792
15752TIP3   OH268746   5.303   0.260   2.933  0.4609 -0.0863 -0.1005
15752TIP3    H168747   5.225   0.280   2.881  0.6980 -1.4366 -1.0105
15752TIP3    H268748   5.302   0.165   2.942  2.6155 -0.2480 -1.1535
15753TIP3   OH268749   6.129   5.725   2.334 -0.1492 -0.2013 -0.1433
15753TIP3    H168750   6.048   5.729   2.284 -0.3616 -0.6744  0.1525
15753TIP3    H268751   6.114   5.782   2.410 -0.2632 -0.4103 -0.0083
15754TIP3   OH268752   0.274   2.541   3.255  0.1272 -0.1235 -0.1034
15754TIP3    H168753   0.227   2.462   3.280 -0.6515 -0.8075 -3.5367
15754TIP3    H268754   0.358   2.510   3.223  0.7797  0.6749  0.7731
15755TIP3   OH268755   4.658   4.117   3.732  0.0086 -0.7516  0.4835
15755TIP3    H168756   4.575   4.079   3.704  0.3235 -3.2006  2.6862
15755TIP3    H268757   4.712   4.119   3.653 -0.8034 -2.8132 -0.1573
15756TIP3   OH268758   5.942   3.970   5.347 -0.0416  0.3146 -0.0601
15756TIP3    H168759   5.922   3.978   5.440 -0.6191 -1.6140  0.0154
15756TIP3    H268760   6.038   3.968   5.344  0.0019  1.5043  0.3732
15757TIP3   OH268761   5.026   6.242   2.141  0.6867  0.1227  1.0418
15757TIP3    H168762   4.956   6.200   2.191  0.7641 -1.6296 -0.2686
15757TIP3    H268763   5.028   6.195   2.058  0.2306  3.3132 -0.8513
15758TIP3   OH268764   3.750   4.997   5.071  0.2076 -0.5666 -0.1146
15758TIP3    H168765   3.729   4.911   5.032 -1.6051  1.6945 -4.4999
15758TIP3    H268766   3.683   5.010   5.138 -0.3031 -2.0149 -0.3281
15759TIP3   OH268767   6.443   5.237   3.002 -0.5731  0.3659 -0.4029
15759TIP3    H168768   6.518   5.292   3.023 -1.6038  1.7662 -0.2758
15759TIP3    H268769   6.480   5.154   2.974  0.9554  0.0960  2.3398
15760TIP3   OH268770   5.991   5.088   3.677  0.3743 -0.1220  0.4451
15760TIP3    H168771   5.984   4.994   3.666 -0.0261 -0.4846  3.5049
15760TIP3    H268772   6.082   5.104   3.702 -0.0219  0.0999  1.7587
15761TIP3   OH268773   3.943   6.157   1.359 -0.5803  0.2556  0.2913
15761TIP3    H168774   3.940   6.069   1.396  0.8334 -0.0031 -0.1856
15761TIP3    H268775   4.011   6.202   1.409 -0.5559  0.7468 -0.1762
15762TIP3   OH268776   3.729   5.111   0.436 -0.0291 -0.3291 -0.2427
15762TIP3    H168777   3.818   5.136   0.412 -0.3417  1.1343  0.0657
15762TIP3    H268778   3.677   5.125   0.357 -0.3260  0.6149  0.1192
15763TIP3   OH268779   0.898   4.200   2.329 -0.8608  0.6128 -0.1035
15763TIP3    H168780   0.925   4.228   2.416  1.8388 -1.4880 -0.2228
15763TIP3    H268781   0.803   4.211   2.329 -0.6703  2.5948  2.3762
15764TIP3   OH268782   1.450   4.279   2.213  0.8046  0.3140 -0.0945
15764TIP3    H168783   1.462   4.242   2.125  0.7164 -1.3606  0.5748
15764TIP3    H268784   1.455   4.203   2.271 -0.5573  1.2338  1.2347
15765TIP3   OH268785   3.236   4.268   5.306  0.4684 -0.4507 -0.3514
15765TIP3    H168786   3.167   4.209   5.278 -1.3681 -0.5897  3.9783
15765TIP3    H268787   3.305   4.211   5.339  0.7668 -0.2695 -0.6676
15766TIP3   OH268788   5.294   5.455   3.567  0.2079  0.1745 -0.5411
15766TIP3    H168789   5.288   5.501   3.651  0.0814 -1.4140  0.3194
15766TIP3    H268790   5.343   5.515   3.510  1.9304  0.4563  1.2012
15767TIP3   OH268791   2.911   6.060   3.312 -0.1970  0.2866  0.6154
15767TIP3    H168792   3.005   6.069   3.298 -0.3767 -1.1288 -1.5941
15767TIP3    H268793   2.874   6.141   3.277  0.0639  0.2525  0.2642
15768TIP3   OH268794   2.044   7.309   1.349 -0.1470 -0.6452 -0.0072
15768TIP3    H168795   1.957   7.269   1.349 -0.6980  0.5508  1.1887
15768TIP3    H268796   2.030   7.399   1.375  1.5127 -0.5532  0.6403
15769TIP3   OH268797   3.931   6.637   4.052 -0.6234  0.1391  0.1088
15769TIP3    H168798   3.878   6.610   3.977 -2.2605  1.9232  0.5589
15769TIP3    H268799   3.878   6.613   4.128 -0.1188  0.5981  0.6090
15770TIP3   OH268800   5.029   5.442  15.130 -0.2468  0.1399  0.0694
15770TIP3    H168801   5.062   5.405  15.048 -1.4871  2.2883 -1.4573
15770TIP3    H268802   5.108   5.469  15.177  0.5032 -1.6365 -0.1283
15771TIP3   OH268803   5.069   6.903   3.104 -0.5929  0.0786  0.4377
15771TIP3    H168804   5.005   6.974   3.107 -0.2068  0.5158 -1.2901
15771TIP3    H268805   5.148   6.940   3.143 -0.1747  0.8632 -1.0897
15772TIP3   OH268806   0.268   4.299   0.578 -0.0969 -0.2184  0.1017
15772TIP3    H168807   0.287   4.392   0.591 -0.4223 -0.1679  0.2272
15772TIP3    H268808   0.206   4.278   0.648  0.1779 -0.5938  0.2358
15773TIP3   OH268809   4.450   5.166   3.905 -0.3762  0.2654 -0.3505
15773TIP3    H168810   4.422   5.220   3.979 -0.8882 -0.9116  0.3163
15773TIP3    H268811   4.542   5.190   3.892  0.1184 -0.4927  1.5275
15774TIP3   OH268812   6.248   4.284   4.138 -0.0690 -0.3870 -0.5790
15774TIP3    H168813   6.198   4.236   4.204  0.6506 -0.1447  0.1452
15774TIP3    H268814   6.247   4.375   4.167  2.2140 -0.6387  0.3530
15775TIP3   OH268815   5.321   5.921   3.105 -0.3501 -0.0426 -0.2951
15775TIP3    H168816   5.339   5.916   3.011  0.1393 -2.2024 -0.1013
15775TIP3    H268817   5.407   5.910   3.147 -0.7141 -0.1576  0.4341
15776TIP3   OH268818   4.963   4.441   2.633  0.7805  0.3034 -0.4717
15776TIP3    H168819   4.986   4.449   2.540  0.1005  0.1065 -0.6615
15776TIP3    H268820   5.026   4.496   2.678  0.0761  1.7172 -1.1929
15777TIP3   OH268821   1.046   6.768   3.453  0.0739  0.4326 -0.2444
15777TIP3    H168822   1.003   6.793   3.535 -0.5367  1.0043 -0.7349
15777TIP3    H268823   1.070   6.851   3.412  1.6836  0.1339  0.0203
15778TIP3   OH268824   3.805   5.749   3.155  0.0766  0.2537 -0.5773
15778TIP3    H168825   3.898   5.773   3.160  0.6372 -2.0659  1.6306
15778TIP3    H268826   3.760   5.817   3.204  0.7882  0.5605 -0.3402
15779TIP3   OH268827   6.632   5.396   3.162 -0.3361 -0.3516 -0.3642
15779TIP3    H168828   6.641   5.316   3.215  0.7947  0.2075  0.2989
15779TIP3    H268829   6.604   5.463   3.224  1.2587  0.3727 -0.4110
15780TIP3   OH268830   5.610   5.208   2.486 -0.5273  0.8133  0.4187
15780TIP3    H168831   5.650   5.277   2.433 -1.3804  1.4553  0.5938
15780TIP3    H268832   5.675   5.138   2.488  0.1968  1.4666 -0.0694
15781TIP3   OH268833   5.540   6.210   3.325  0.5097 -0.1182 -0.4365
15781TIP3    H168834   5.562   6.241   3.413  1.2828 -2.2301  0.1348
15781TIP3    H268835   5.624   6.182   3.288 -0.1840 -1.6359 -0.8873
15782TIP3   OH268836   6.706   4.909   1.332  0.5932  0.2316  0.0425
15782TIP3    H168837   6.755   4.907   1.250  2.0685  1.1062  0.8808
15782TIP3    H268838   6.628   4.855   1.315  0.7947  0.5513 -1.9611
15783TIP3   OH268839   3.912   4.635   1.340 -0.5595  0.5769  0.1769
15783TIP3    H168840   3.849   4.618   1.270  0.2894 -0.9194 -0.2403
15783TIP3    H268841   3.997   4.613   1.302 -0.1079 -0.4905  1.7621
15784TIP3   OH268842   4.700   4.084   3.429 -0.0769 -0.7880  0.7849
15784TIP3    H168843   4.727   4.002   3.387  0.9531 -1.1177  2.0674
15784TIP3    H268844   4.782   4.131   3.443 -0.6931  0.6302 -0.2571
15785TIP3   OH268845   0.929   4.432   2.847  0.2791  0.1002 -0.0504
15785TIP3    H168846   0.889   4.518   2.863 -1.7824 -0.5636 -1.3978
15785TIP3    H268847   0.859   4.369   2.865  0.6507 -1.0932 -2.5383
15786TIP3   OH268848   0.658   4.074   2.664  0.0330  0.0129  0.0520
15786TIP3    H168849   0.572   4.073   2.708  0.3187  3.1682  0.8130
15786TIP3    H268850   0.657   4.154   2.612  1.2950 -1.6216 -2.5910
15787TIP3   OH268851   6.222   5.570   5.028  0.3622  0.2387  0.5910
15787TIP3    H168852   6.187   5.658   5.012  1.7874  0.8028  0.5530
15787TIP3    H268853   6.306   5.569   4.983  0.1452 -1.3094  0.1955
15788TIP3   OH268854   7.028   6.253  15.403  0.1064  0.0616  0.3215
15788TIP3    H168855   6.975   6.174  15.415  1.7640 -1.4800 -1.8802
15788TIP3    H268856   7.083   6.258  15.481  0.5153 -1.4319  0.1452
15789TIP3   OH268857   5.335   5.009   1.173  0.2798  0.1339  0.1619
15789TIP3    H168858   5.380   4.958   1.240 -1.1680  0.7944  1.6783
15789TIP3    H268859   5.383   4.990   1.092  0.7367 -2.3842  0.9715
15790TIP3   OH268860   4.689   6.085   1.705 -0.0456  0.2524 -0.1101
15790TIP3    H168861   4.659   6.002   1.668 -0.3739  1.1089 -1.8183
15790TIP3    H268862   4.612   6.142   1.704  0.5682  1.0904 -0.4979
15791TIP3   OH268863   1.669   2.894   2.339  0.5650  0.5583 -0.1334
15791TIP3    H168864   1.632   2.808   2.320  2.6880 -0.2125 -0.9631
15791TIP3    H268865   1.737   2.878   2.404  1.0474  1.5792 -0.3620
15792TIP3   OH268866   4.560   7.223   3.137 -0.6384 -0.2084  0.6496
15792TIP3    H168867   4.623   7.288   3.167 -0.9588  1.2643 -1.6434
15792TIP3    H268868   4.488   7.228   3.200 -0.8112  1.9624  0.3223
15793TIP3   OH268869   4.876   5.505   2.599  0.3904 -0.0898 -0.0897
15793TIP3    H168870   4.825   5.537   2.525  1.2124  0.1268 -0.5616
15793TIP3    H268871   4.919   5.426   2.567  0.8616  0.0837  0.1077
15794TIP3   OH268872   5.141   6.411   3.348  1.0465  0.0514 -0.6082
15794TIP3    H168873   5.047   6.426   3.342  1.2000 -0.0396 -5.3949
15794TIP3    H268874   5.155   6.330   3.298  3.4645 -0.8606  1.4587
15795TIP3   OH268875   4.523   4.096   4.616  0.1842  0.5681 -0.4094
15795TIP3    H168876   4.551   4.102   4.707  1.9582 -0.7528 -0.8256
15795TIP3    H268877   4.493   4.184   4.594 -2.7444  0.2868  2.1920
15796TIP3   OH268878   5.244   4.657   4.015 -0.2549 -0.0280 -0.0363
15796TIP3    H168879   5.266   4.630   3.926  0.9707 -0.6644  0.4449
15796TIP3    H268880   5.242   4.752   4.012  1.0122 -0.0084 -0.4646
15797TIP3   OH268881   6.405   0.163   3.327 -0.2431  0.0245 -0.1802
15797TIP3    H168882   6.323   0.115   3.341 -0.2298  0.0762  0.0772
15797TIP3    H268883   6.455   0.150   3.408 -0.6266  1.2417  0.2672
15798TIP3   OH268884   0.123   4.198   1.942  0.0401  0.1999  0.3598
15798TIP3    H168885   0.066   4.153   2.004  0.1139  0.6106  0.7266
15798TIP3    H268886   0.078   4.190   1.858 -0.2827  0.0364  0.5493
15799TIP3   OH268887   3.910   6.135   3.294  0.0638  0.5831  0.1318
15799TIP3    H168888   3.890   6.229   3.286  0.4291  0.7870  1.5324
15799TIP3    H268889   3.984   6.131   3.354 -1.0413 -0.7046  1.4455
15800TIP3   OH268890   4.983   6.058   3.155  0.4283 -0.1877  0.1062
15800TIP3    H168891   4.961   6.059   3.062  2.2933 -1.8488 -0.4060
15800TIP3    H268892   5.061   6.113   3.162 -0.7635  1.4149  1.0084
15801TIP3   OH268893   2.381   6.084   3.679 -0.4568 -0.3318 -0.0093
15801TIP3    H168894   2.423   6.080   3.593  1.6709 -1.4779  1.0308
15801TIP3    H268895   2.290   6.061   3.662 -0.0676 -0.5335 -1.9603
15802TIP3   OH268896   5.548   5.868  15.432 -0.3733  0.4636  0.0575
15802TIP3    H168897   5.602   5.828  15.501 -1.4752 -1.1670  0.0030
15802TIP3    H268898   5.583   5.956  15.423  2.0355 -0.4268  0.2973
15803TIP3   OH268899   4.953   6.648   3.414 -0.1869  0.2623 -0.5570
15803TIP3    H168900   4.858   6.662   3.410 -0.0800  1.1310 -0.2539
15803TIP3    H268901   4.985   6.722   3.464  0.6295 -0.1749 -0.4353
15804TIP3   OH268902   6.343   6.107   1.604 -0.5957 -0.5752  0.2808
15804TIP3    H168903   6.362   6.171   1.674 -2.4020  2.9994 -2.3226
15804TIP3    H268904   6.249   6.092   1.611 -0.9127  0.3463 -1.7379
15805TIP3   OH268905   5.440   4.312   3.872  0.1589 -0.0919  0.3746
15805TIP3    H168906   5.369   4.271   3.920 -0.3757 -0.6044 -0.8165
15805TIP3    H268907   5.519   4.287   3.919 -0.3848 -0.2382  1.2070
15806TIP3   OH268908   5.989   4.823   3.553  0.5679  0.2866 -0.4040
15806TIP3    H168909   6.039   4.745   3.527 -1.3986 -0.6401 -1.5023
15806TIP3    H268910   5.961   4.862   3.470  0.8064  1.6938  0.1628
15807TIP3   OH268911   3.974   4.838   2.049 -0.3534  0.2063 -0.0428
15807TIP3    H168912   4.039   4.794   1.995 -0.0316 -1.3912  1.5801
15807TIP3    H268913   3.936   4.905   1.992  2.0135  0.5216 -1.3049
15808TIP3   OH268914   0.463   2.208   3.755  0.6606 -0.1677  0.1428
15808TIP3    H168915   0.390   2.145   3.752 -0.1805  0.8269 -0.6844
15808TIP3    H268916   0.540   2.155   3.735  0.0397 -1.0538  0.0446
15809TIP3   OH268917   3.947   4.184   4.836  0.1411  0.5899 -0.1340
15809TIP3    H168918   3.915   4.134   4.910  1.4050 -2.2594 -1.4480
15809TIP3    H268919   3.875   4.183   4.773 -0.0542  0.9650  0.0809
15810TIP3   OH268920   6.931   2.105   2.490  0.3753  0.3427  0.2882
15810TIP3    H168921   6.962   2.081   2.577  1.1388  2.0705  0.5084
15810TIP3    H268922   6.861   2.168   2.506  0.6126  0.7736 -0.3545
15811TIP3   OH268923   4.606   0.388   4.047 -0.8582 -0.1957 -0.4373
15811TIP3    H168924   4.615   0.484   4.046 -1.0118 -0.1846 -1.4467
15811TIP3    H268925   4.694   0.355   4.065 -0.9598  0.1447  0.7640
15812TIP3   OH268926   1.670   3.199   0.296 -0.3827 -0.1567  0.3419
15812TIP3    H168927   1.736   3.244   0.349  1.4172 -1.4590 -0.7378
15812TIP3    H268928   1.607   3.268   0.273  2.4450  1.9287 -1.4997
15813TIP3   OH268929   2.452   4.683   4.353 -0.2171 -0.5926  0.0817
15813TIP3    H168930   2.414   4.770   4.367  2.7744  0.8862 -0.5107
15813TIP3    H268931   2.465   4.647   4.440  1.7080  1.0343  0.4956
15814TIP3   OH268932   5.975   3.818   3.784  0.3609 -0.2052 -0.6382
15814TIP3    H168933   6.038   3.772   3.728  0.9039  2.7044 -2.5691
15814TIP3    H268934   6.029   3.878   3.836  0.0003 -3.7495  4.1014
15815TIP3   OH268935   3.484   5.020   0.974 -0.3899  0.0141  0.1661
15815TIP3    H168936   3.465   5.032   0.881  0.2576  1.1696  0.1647
15815TIP3    H268937   3.419   5.073   1.019 -0.3213 -0.0517  0.3437
15816TIP3   OH268938   0.836   4.282   0.129 -0.0604 -0.0203  0.2824
15816TIP3    H168939   0.833   4.354   0.192  0.2561  0.3629 -0.1386
15816TIP3    H268940   0.744   4.266   0.107 -0.0678  0.9979 -0.4604
15817TIP3   OH268941   6.022   6.449   1.689 -0.2617  0.2494 -0.0197
15817TIP3    H168942   6.114   6.436   1.709  0.1593 -0.4311 -2.3260
15817TIP3    H268943   6.007   6.543   1.703  0.5105  0.1768  1.3336
15818TIP3   OH268944   5.475   4.522   4.120  0.1086 -0.0531  0.3461
15818TIP3    H168945   5.418   4.593   4.088  0.8430  0.9009  1.1149
15818TIP3    H268946   5.506   4.480   4.040 -0.2073  0.6015 -0.1339
15819TIP3   OH268947   6.174   4.986   2.905 -0.4916  0.3527  0.0255
15819TIP3    H168948   6.148   4.910   2.852  0.1777 -0.6357  1.0957
15819TIP3    H268949   6.203   4.949   2.988  1.5010  1.6361 -0.0516
15820TIP3   OH268950   5.433   0.595   2.709  0.6523  0.4968 -0.0900
15820TIP3    H168951   5.405   0.634   2.626  1.1652  0.9426 -0.0569
15820TIP3    H268952   5.400   0.654   2.776  1.1412  0.7025 -0.0249
15821TIP3   OH268953   3.955   6.167   3.671 -0.3535 -0.1951 -0.4500
15821TIP3    H168954   4.012   6.236   3.634  1.1344 -1.7966 -1.2170
15821TIP3    H268955   3.867   6.204   3.666  0.4838  1.9284 -0.2307
15822TIP3   OH268956   3.709   6.377   1.824  0.3695 -0.0843 -0.0960
15822TIP3    H168957   3.661   6.434   1.764 -1.2270  0.1564  1.3646
15822TIP3    H268958   3.731   6.433   1.898 -1.4906 -1.3891  1.5048
15823TIP3   OH268959   5.156   5.813   4.037  0.0060 -0.3935 -0.0671
15823TIP3    H168960   5.188   5.739   4.089  1.2816 -0.1348 -0.4567
15823TIP3    H268961   5.234   5.866   4.021 -0.9203  1.1469  0.3677
15824TIP3   OH268962   4.419   0.327   3.301  0.2447 -0.2196 -0.4476
15824TIP3    H168963   4.327   0.300   3.304  0.1430  0.2073  0.4059
15824TIP3    H268964   4.436   0.343   3.208 -0.6710  0.1208 -0.5655
15825TIP3   OH268965   4.867   5.930   2.897  1.0036  0.8876 -0.0224
15825TIP3    H168966   4.939   5.902   2.840 -0.0206  0.4490 -1.1071
15825TIP3    H268967   4.822   5.998   2.847 -1.0593 -0.8365 -0.5818
15826TIP3   OH268968   2.554   4.128   1.273  0.2675 -0.1066 -0.1872
15826TIP3    H168969   2.528   4.040   1.298 -0.2726  0.6049  1.8635
15826TIP3    H268970   2.648   4.121   1.255  0.4679 -0.8592  1.1253
15827TIP3   OH268971   3.989   5.783   1.188  0.1654 -0.4539 -0.3085
15827TIP3    H168972   3.957   5.694   1.205 -0.1038 -0.1119  1.0414
15827TIP3    H268973   3.918   5.840   1.217  1.0634  0.2483  0.5519
15828TIP3   OH268974   4.324   5.875   2.917  0.4542 -0.1604  0.1711
15828TIP3    H168975   4.387   5.807   2.896  0.5604  0.0772 -0.2902
15828TIP3    H268976   4.257   5.868   2.849  1.1696  1.0798 -0.6870
15829TIP3   OH268977   3.487   5.118   3.165 -0.2005  1.1445 -0.3559
15829TIP3    H168978   3.405   5.109   3.214 -1.1637  0.3338 -2.0324
15829TIP3    H268979   3.549   5.062   3.211 -0.7275  1.3988  0.6721
15830TIP3   OH268980   2.232   5.159   4.614 -0.4827 -0.1320  0.7177
15830TIP3    H168981   2.322   5.191   4.603 -0.7560  0.6315  0.6329
15830TIP3    H268982   2.242   5.071   4.650  0.3097 -0.3546 -0.0366
15831TIP3   OH268983   6.403   5.789   2.732 -0.2521  0.4733  0.7557
15831TIP3    H168984   6.441   5.706   2.760 -3.8136 -1.0937  1.2126
15831TIP3    H268985   6.364   5.825   2.811  0.3377  2.1058  0.3220
15832TIP3   OH268986   5.014   5.135   3.340  0.7451  0.0859 -0.6029
15832TIP3    H168987   5.077   5.133   3.412  0.6807  0.4920 -0.5333
15832TIP3    H268988   4.996   5.043   3.321  2.0064 -0.0471 -1.1931
15833TIP3   OH268989   3.252   4.226   2.214  0.0402  0.0954 -0.6005
15833TIP3    H168990   3.191   4.172   2.264 -0.5844 -0.0144 -1.4702
15833TIP3    H268991   3.210   4.312   2.209 -0.5190 -0.2471 -2.0455
15834TIP3   OH268992   2.959   5.317   4.657 -0.3771  0.6141 -0.2217
15834TIP3    H168993   2.931   5.387   4.717  0.8850  0.4608  0.5617
15834TIP3    H268994   3.008   5.363   4.588  2.8188  0.2983  1.7188
15835TIP3   OH268995   6.016   5.505   2.708 -0.2568 -0.3445  0.4238
15835TIP3    H168996   6.067   5.469   2.780 -0.5755 -0.2499  0.7011
15835TIP3    H268997   5.990   5.592   2.738 -0.5603 -0.3825  0.2809
15836TIP3   OH268998   3.685   4.730   2.487 -0.3479  0.2685 -0.2417
15836TIP3    H168999   3.762   4.726   2.544 -0.8392  0.2279  0.4248
15836TIP3    H269000   3.651   4.819   2.498 -0.4336  0.2664 -0.4843
15837TIP3   OH269001   4.375   5.236   4.408 -0.3924 -0.0894 -0.6362
15837TIP3    H169002   4.434   5.297   4.364  1.1141 -0.2823  1.0181
15837TIP3    H269003   4.300   5.289   4.435  0.4660  0.8420 -0.0384
15838TIP3   OH269004   3.353   4.722   2.395  0.2910 -0.4203 -0.2806
15838TIP3    H169005   3.396   4.786   2.452  0.5985 -1.1690  0.3493
15838TIP3    H269006   3.351   4.764   2.309 -0.4156  0.8315  0.3350
15839TIP3   OH269007   5.107   4.495   4.222  0.1262 -0.1770 -0.1465
15839TIP3    H169008   5.170   4.424   4.213 -1.0221 -1.1950 -0.2846
15839TIP3    H269009   5.119   4.549   4.144  0.7225 -0.4531 -0.2454
15840TIP3   OH269010   3.954   3.751   1.453  0.3808 -0.1986  0.4094
15840TIP3    H169011   4.017   3.806   1.499  1.2206 -0.4536 -0.4140
15840TIP3    H269012   3.896   3.812   1.409 -0.3689  0.0440  1.7299
15841TIP3   OH269013   3.321   4.443   3.218  0.7029 -0.3854 -0.6542
15841TIP3    H169014   3.358   4.406   3.298  0.2538 -1.5484 -0.9651
15841TIP3    H269015   3.345   4.535   3.221 -1.3936  0.1470  2.0314
15842TIP3   OH269016   4.036   2.708   1.600 -0.0681 -0.6478 -0.3509
15842TIP3    H169017   3.956   2.668   1.636  0.5136 -0.9333  0.6541
15842TIP3    H269018   4.048   2.788   1.650  0.8575 -1.1436  0.2453
15843TIP3   OH269019   3.532   6.602   4.898  0.0639 -0.4165  0.3031
15843TIP3    H169020   3.497   6.538   4.836  0.9878 -1.9058  1.2809
15843TIP3    H269021   3.609   6.638   4.855 -1.2512  1.1245 -0.8473
15844TIP3   OH269022   4.573   3.077   3.823  0.2395 -0.3365  0.3841
15844TIP3    H169023   4.491   3.121   3.799 -0.9675 -2.3996  0.5817
15844TIP3    H269024   4.628   3.086   3.745  0.8661  3.3563  1.1704
15845TIP3   OH269025   5.150   4.496   4.843 -0.2223 -0.4878  0.2577
15845TIP3    H169026   5.191   4.416   4.807 -1.2322 -1.1056  0.4707
15845TIP3    H269027   5.057   4.477   4.842 -0.3494  0.0136  1.9568
15846TIP3   OH269028   0.403   3.238   5.413 -0.0980 -0.2570 -0.6554
15846TIP3    H169029   0.390   3.177   5.341  0.1156  0.6954 -1.5087
15846TIP3    H269030   0.496   3.231   5.434  0.2797  0.9342 -1.8302
15847TIP3   OH269031   5.383   3.571   3.619  0.1304  0.2802  0.2914
15847TIP3    H169032   5.448   3.623   3.573 -1.0166  0.4866 -1.1479
15847TIP3    H269033   5.339   3.632   3.677  0.0366  0.5253 -0.0359
15848TIP3   OH269034   5.721   3.790   5.072  0.2152  0.4865  0.4871
15848TIP3    H169035   5.708   3.832   4.988  0.3602  0.7082  0.5738
15848TIP3    H269036   5.636   3.754   5.096 -0.6230  3.1915  1.7483
15849TIP3   OH269037   3.484   5.749   1.007 -0.2101 -0.3086 -0.1667
15849TIP3    H169038   3.504   5.659   1.033 -1.1671 -1.4092 -3.0544
15849TIP3    H269039   3.569   5.787   0.987  0.0327 -1.1735 -0.8070
15850TIP3   OH269040   3.293   4.323   2.978  0.6318 -0.0213  0.2084
15850TIP3    H169041   3.293   4.227   2.981  1.0689  0.0178  1.4394
15850TIP3    H269042   3.271   4.350   3.067  0.8218  1.0305 -0.0576
15851TIP3   OH269043   2.399   4.303   3.387 -0.2899 -0.6815  0.2969
15851TIP3    H169044   2.317   4.289   3.433  0.3969 -0.2060  1.6805
15851TIP3    H269045   2.464   4.258   3.440  0.4826 -0.2967 -0.3157
15852TIP3   OH269046   2.272   5.705   1.234 -0.8060 -0.0236 -0.0514
15852TIP3    H169047   2.315   5.622   1.255 -2.1894 -0.4268  1.2616
15852TIP3    H269048   2.338   5.754   1.185  0.4692 -1.3939  0.2487
15853TIP3   OH269049   0.605   5.631   4.233  0.6062  0.5215 -0.3553
15853TIP3    H169050   0.574   5.608   4.321 -1.1616  1.0027 -0.8392
15853TIP3    H269051   0.618   5.726   4.236 -1.0144  0.7850 -1.0666
15854TIP3   OH269052   0.103   5.970   3.169  0.1022  0.3013  0.0609
15854TIP3    H169053   0.087   6.059   3.138 -0.0573  0.8824  1.7567
15854TIP3    H269054   0.016   5.930   3.175  0.2365 -0.2606 -1.4953
15855TIP3   OH269055   5.892   5.869   1.898  0.7485 -0.1088  0.4241
15855TIP3    H169056   5.921   5.778   1.883  0.0126 -0.2201 -0.3954
15855TIP3    H269057   5.866   5.871   1.990  0.1755 -0.9034  0.2860
15856TIP3   OH269058   6.829   4.517   1.475  0.1750  0.3228 -0.2664
15856TIP3    H169059   6.898   4.464   1.516  1.3195  2.1087  0.1611
15856TIP3    H269060   6.790   4.565   1.547  0.3329  1.3900 -0.8824
15857TIP3   OH269061   4.964   4.904   3.156 -0.0684  0.9006 -0.0478
15857TIP3    H169062   4.986   4.883   3.065 -0.4639 -1.5969  0.4162
15857TIP3    H269063   4.869   4.913   3.157 -0.0945  0.5983  0.1897
15858TIP3   OH269064   6.781   4.950   2.219 -0.6629 -0.8181 -0.5042
15858TIP3    H169065   6.840   5.004   2.167 -1.5752  0.8018  0.1190
15858TIP3    H269066   6.783   4.864   2.176  0.7391 -0.2787 -1.5450
15859TIP3   OH269067   4.125   5.302   3.622  0.1360 -0.1701 -0.5580
15859TIP3    H169068   4.169   5.384   3.596  1.7103 -1.0575 -0.7673
15859TIP3    H269069   4.130   5.303   3.718  0.5565 -0.2391 -0.5787
15860TIP3   OH269070   5.068   5.718   2.171 -0.4171  0.0286  0.1984
15860TIP3    H169071   5.051   5.685   2.259  0.0965  1.4846  0.8502
15860TIP3    H269072   5.150   5.676   2.145 -0.2742  0.0389  0.6339
15861TIP3   OH269073   4.718   4.861   1.194  0.0143 -0.1828  0.3768
15861TIP3    H169074   4.708   4.926   1.124  0.9319  0.7597  1.0952
15861TIP3    H269075   4.808   4.874   1.225  0.2741 -1.9404  0.4053
15862TIP3   OH269076   6.928   4.697  15.793  0.0508  0.0650  0.2552
15862TIP3    H169077   7.005   4.707  15.737 -0.7101  0.9348 -0.6626
15862TIP3    H269078   6.897   4.608  15.775  0.6923 -0.1946  0.4330
15863TIP3   OH269079   3.175   5.337   3.778  0.0944  0.0434 -0.1730
15863TIP3    H169080   3.218   5.357   3.861 -1.5464  0.2007  0.6600
15863TIP3    H269081   3.232   5.375   3.711  0.7887  1.0215  0.9606
15864TIP3   OH269082   0.889   5.971   3.753 -0.5410  0.5553  0.5444
15864TIP3    H169083   0.857   5.906   3.815 -0.8416 -0.3878 -0.6008
15864TIP3    H269084   0.974   5.997   3.789  0.0221 -1.1648  0.5127
15865TIP3   OH269085   0.034   6.244   4.027  0.5601  0.1568  0.4205
15865TIP3    H169086  -0.052   6.210   4.000  0.3886  0.8990  0.0072
15865TIP3    H269087   0.049   6.206   4.113 -0.4278  0.4306  0.7253
15866TIP3   OH269088   3.706   3.170   1.833 -0.0138  0.0375  0.2235
15866TIP3    H169089   3.759   3.102   1.791 -0.2322  0.2932 -0.4815
15866TIP3    H269090   3.758   3.198   1.908 -0.0978 -1.1812  0.7524
15867TIP3   OH269091   4.242   4.762   2.280  0.6284  0.4050  0.3343
15867TIP3    H169092   4.154   4.778   2.246 -0.0634 -2.7507  0.4930
15867TIP3    H269093   4.272   4.847   2.312 -2.1423  1.6261 -0.2427
15868TIP3   OH269094   5.647   4.591   3.342 -0.2523  0.1897  0.2156
15868TIP3    H169095   5.554   4.577   3.325 -0.3862  0.2348  0.8911
15868TIP3    H269096   5.655   4.686   3.356  0.0387  0.3031 -0.6856
15869TIP3   OH269097   2.744   6.068   3.705  0.2857 -0.2755  0.1495
15869TIP3    H169098   2.698   6.060   3.789  0.1226 -2.3202 -0.1050
15869TIP3    H269099   2.692   6.132   3.656 -0.8357 -0.6293  0.8323
15870TIP3   OH269100   1.887   5.692   4.131  0.2060  0.4254 -0.8051
15870TIP3    H169101   1.864   5.761   4.069 -2.2094  1.3701  1.0634
15870TIP3    H269102   1.980   5.704   4.149  0.4108  1.5008 -2.5350
15871TIP3   OH269103   5.056   7.101   4.136 -0.3128 -0.0459  0.2045
15871TIP3    H169104   5.112   7.068   4.066  0.2937  1.0070  0.1869
15871TIP3    H269105   5.053   7.030   4.200  0.9096 -0.1757  0.1271
15872TIP3   OH269106   5.119   5.693   3.116 -0.1870 -0.0564  0.2508
15872TIP3    H169107   5.078   5.694   3.029 -0.8313 -0.7798  0.5435
15872TIP3    H269108   5.160   5.780   3.124 -1.5514  0.6405 -0.1038
15873TIP3   OH269109   3.963   3.519   4.421  0.3281 -0.2799 -0.0001
15873TIP3    H169110   4.014   3.548   4.497  0.0577 -0.3799  0.2200
15873TIP3    H269111   3.948   3.599   4.371 -0.5886  0.0023  0.7114
15874TIP3   OH269112   3.044   3.938   3.194  0.3050  0.2931 -0.0089
15874TIP3    H169113   2.954   3.908   3.209  0.3827  0.3555  0.6101
15874TIP3    H269114   3.096   3.858   3.193  0.1740  0.2160 -0.8897
15875TIP3   OH269115   3.909   5.905   1.995  0.2051  0.3690 -0.5775
15875TIP3    H169116   3.866   5.991   2.000 -0.0978  0.2458 -1.0657
15875TIP3    H269117   3.859   5.850   2.055  0.0968  0.4029 -0.6360
15876TIP3   OH269118   7.008   5.852   2.294  0.3601 -0.0787  0.1019
15876TIP3    H169119   6.983   5.782   2.234  0.2048  0.9229 -1.0182
15876TIP3    H269120   6.925   5.888   2.325  0.4146 -2.3043  2.9855
15877TIP3   OH269121   4.631   4.055   0.351 -0.3285  0.0377  0.5193
15877TIP3    H169122   4.646   4.107   0.272  0.2715  0.0325  0.6321
15877TIP3    H269123   4.621   4.119   0.421 -0.9894  0.0474  0.4196
15878TIP3   OH269124   6.800   6.013   1.445  0.3944  0.1911 -0.0457
15878TIP3    H169125   6.720   6.010   1.394  0.3992 -1.1933  0.0170
15878TIP3    H269126   6.870   5.993   1.383  0.5429 -0.0553  0.1980
15879TIP3   OH269127   4.123   4.486   1.654  0.1732  0.2911 -0.1006
15879TIP3    H169128   4.177   4.470   1.577 -1.7136 -0.0620 -1.3914
15879TIP3    H269129   4.039   4.445   1.634 -0.2104 -0.1967  2.3423
15880TIP3   OH269130   2.876   5.947   5.290 -0.3375 -0.8785  0.4253
15880TIP3    H169131   2.966   5.978   5.299 -0.7671  0.6736 -0.4633
15880TIP3    H269132   2.821   6.018   5.323 -1.3503 -0.4957 -1.9552
15881TIP3   OH269133   5.626   4.185   4.949 -0.5286  0.1916 -0.7775
15881TIP3    H169134   5.718   4.201   4.933  0.6071 -2.7200  2.2569
15881TIP3    H269135   5.596   4.262   4.998  1.0638 -0.0898  0.6955
15882TIP3   OH269136   6.007   0.683   1.999  0.6599  0.2108 -0.1605
15882TIP3    H169137   6.089   0.633   2.001  0.7849  0.4516  0.9984
15882TIP3    H269138   5.948   0.629   1.948  0.8171 -1.1065  1.0067
15883TIP3   OH269139   4.220   6.821   3.958 -0.0835 -0.0261 -0.9472
15883TIP3    H169140   4.137   6.869   3.955  0.3164  0.6109 -2.5199
15883TIP3    H269141   4.195   6.729   3.946 -0.6599  0.0334 -0.2175
15884TIP3   OH269142   3.270   4.845   4.581 -0.7474  0.0697 -0.2450
15884TIP3    H169143   3.246   4.926   4.627 -1.4136 -0.3004  0.0747
15884TIP3    H269144   3.189   4.795   4.579 -0.3672 -0.5293 -0.5678
15885TIP3   OH269145   5.019   7.255   2.870 -0.0971 -0.2072  0.1491
15885TIP3    H169146   5.036   7.333   2.923  2.5877  0.1984 -1.2489
15885TIP3    H269147   4.983   7.289   2.788 -0.1487 -0.5302  0.0367
15886TIP3   OH269148   1.393   6.039   2.466  0.3836  0.1975 -0.3872
15886TIP3    H169149   1.434   6.032   2.380  0.8258 -1.0580 -0.0767
15886TIP3    H269150   1.388   5.949   2.498 -2.0106  0.3766 -0.1362
15887TIP3   OH269151   4.340   5.944   4.543 -0.2749  0.1772  0.2202
15887TIP3    H169152   4.358   5.977   4.631 -0.5257 -1.0932  0.7614
15887TIP3    H269153   4.279   6.008   4.506 -0.5948  0.4368  1.1709
15888TIP3   OH269154   5.240   5.977   2.772  0.9207  0.4168  0.1824
15888TIP3    H169155   5.198   6.053   2.810  2.0839  1.1825 -0.0276
15888TIP3    H269156   5.246   5.997   2.678 -1.1048 -1.0579 -0.2893
15889TIP3   OH269157   5.723   6.172   2.329  0.2954  0.1843 -0.3300
15889TIP3    H169158   5.765   6.173   2.243  1.8135 -0.5142  0.3825
15889TIP3    H269159   5.790   6.204   2.389 -0.5636  0.1046  0.6962
15890TIP3   OH269160   4.215   5.903   3.163 -0.3372  0.1260 -0.3326
15890TIP3    H169161   4.195   5.997   3.157  0.0426  0.1227 -1.8219
15890TIP3    H269162   4.257   5.882   3.080  2.4938 -0.6820  1.2478
15891TIP3   OH269163   4.839   5.750   3.943  0.1778  0.1483  0.1724
15891TIP3    H169164   4.782   5.825   3.930  0.2652  0.1300 -0.3292
15891TIP3    H269165   4.928   5.787   3.946  0.2889 -0.0179 -0.8928
15892TIP3   OH269166   3.740   5.252   0.951 -0.0411  0.0015  0.1002
15892TIP3    H169167   3.680   5.179   0.963  0.2284  0.1164  2.4225
15892TIP3    H269168   3.747   5.263   0.856 -1.2902 -1.9678 -0.2349
15893TIP3   OH269169   4.327   4.218   4.313  0.0268  0.0552 -0.1533
15893TIP3    H169170   4.262   4.242   4.246 -0.9959 -1.5736  0.2181
15893TIP3    H269171   4.403   4.189   4.263 -0.1971  0.2508 -0.6091
15894TIP3   OH269172   5.540   4.362   2.983  0.4921  0.0662 -0.2280
15894TIP3    H169173   5.614   4.417   3.008 -0.6304  0.6196  2.0321
15894TIP3    H269174   5.555   4.279   3.028  0.1330 -0.0795 -0.3777
15895TIP3   OH269175   4.252   3.688   0.989 -0.3149  0.2659  1.0281
15895TIP3    H169176   4.203   3.770   0.986 -1.0447 -0.1861 -0.2134
15895TIP3    H269177   4.201   3.631   1.047 -0.8581  0.0558  0.3539
15896TIP3   OH269178   4.282   3.121   1.674  0.3308  0.5221  0.2062
15896TIP3    H169179   4.256   3.031   1.651 -0.6461  0.9844 -0.5350
15896TIP3    H269180   4.276   3.124   1.769  1.5849 -0.5652  0.3310
15897TIP3   OH269181   2.350   3.460   1.372  0.3462 -0.1884 -0.1475
15897TIP3    H169182   2.356   3.533   1.310 -2.4352 -2.7270 -3.5986
15897TIP3    H269183   2.283   3.488   1.434 -0.3950  0.4017 -1.1849
15898TIP3   OH269184   3.550   5.079   3.695 -0.0613  0.8733 -0.3389
15898TIP3    H169185   3.602   4.999   3.701  1.9240  1.7846 -3.5439
15898TIP3    H269186   3.512   5.076   3.607 -0.4522  3.1274 -0.2882
15899TIP3   OH269187   4.963   5.367   5.456  0.5896  0.3117  0.2342
15899TIP3    H169188   4.875   5.330   5.446  0.4562  0.1997  1.8131
15899TIP3    H269189   4.949   5.461   5.465  0.8093  0.5812 -1.9228
15900TIP3   OH269190   4.624   3.227   2.005 -0.3794 -0.5674 -0.6677
15900TIP3    H169191   4.608   3.170   2.080 -1.3591 -1.6932 -1.7156
15900TIP3    H269192   4.714   3.206   1.978 -0.4975 -1.1162 -0.6368
15901TIP3   OH269193   5.771   4.608   1.458 -0.2603  0.0445 -0.2472
15901TIP3    H169194   5.763   4.681   1.396  0.5619 -0.1309 -0.5639
15901TIP3    H269195   5.865   4.600   1.473 -0.4249 -0.2676  0.6116
15902TIP3   OH269196   5.419   4.127   2.109  0.1030  0.3513 -0.1041
15902TIP3    H169197   5.464   4.115   2.026 -0.6423  1.0890 -0.6155
15902TIP3    H269198   5.437   4.218   2.133 -0.5287  0.4410  0.0408
15903TIP3   OH269199   3.927   5.049   4.304  0.3926 -0.4983 -0.1273
15903TIP3    H169200   3.883   5.054   4.220  0.8939  1.5679 -0.2837
15903TIP3    H269201   3.933   4.955   4.323 -1.9880 -0.8702 -1.1711
15904TIP3   OH269202   4.560   6.191   1.078 -0.2406 -0.0703  0.3650
15904TIP3    H169203   4.554   6.097   1.097 -1.8168  0.3561  2.2174
15904TIP3    H269204   4.483   6.210   1.026  0.9472 -0.0841 -1.4418
15905TIP3   OH269205   5.684   6.282   1.834 -0.2036  0.3520  0.7121
15905TIP3    H169206   5.682   6.367   1.878  1.1862  1.0401 -0.4907
15905TIP3    H269207   5.676   6.303   1.741  1.1986 -0.7462  0.3243
15906TIP3   OH269208   6.764   5.885   3.987  0.6621 -0.0297 -0.0543
15906TIP3    H169209   6.714   5.893   4.068 -1.3545 -2.8643 -0.9323
15906TIP3    H269210   6.827   5.815   4.005  1.9472  1.0953 -0.1162
15907TIP3   OH269211   2.148   5.493   5.352 -0.2394  0.4781  0.4059
15907TIP3    H169212   2.172   5.583   5.332  1.0975  0.3864  1.5405
15907TIP3    H269213   2.081   5.500   5.420 -1.0467  0.6437 -0.4021
15908TIP3   OH269214   2.940   0.063   2.591  0.3861 -0.4794 -0.1621
15908TIP3    H169215   2.899  -0.009   2.544 -1.1675 -1.0496  1.9905
15908TIP3    H269216   2.911   0.141   2.545 -0.0572 -1.1007 -0.9454
15909TIP3   OH269217   3.069   5.280   3.362  0.7930 -0.0299 -0.4903
15909TIP3    H169218   2.984   5.283   3.407  0.9914  0.4527 -0.1353
15909TIP3    H269219   3.055   5.224   3.286 -0.1178  0.8881 -1.0042
15910TIP3   OH269220   7.289   5.623   2.292 -0.1816  0.1701 -0.0089
15910TIP3    H169221   7.353   5.657   2.354 -1.1583 -0.7970  1.5730
15910TIP3    H269222   7.269   5.697   2.235 -0.5981  1.6030  1.9545
15911TIP3   OH269223   6.464   3.272   2.172  0.2361  0.0684  0.5563
15911TIP3    H169224   6.489   3.364   2.160  0.2245  0.4046  2.8844
15911TIP3    H269225   6.547   3.227   2.189  0.0099  0.0606  1.7046
15912TIP3   OH269226   1.614   2.078   4.565  0.5473 -0.3237 -0.3947
15912TIP3    H169227   1.700   2.097   4.603  0.6414 -0.6663 -0.4317
15912TIP3    H269228   1.634   2.036   4.481  0.3420  0.1818 -0.6997
15913TIP3   OH269229   6.295   4.521   0.662  0.3483  0.3451 -0.5812
15913TIP3    H169230   6.289   4.462   0.587 -1.3231 -0.0569 -0.1438
15913TIP3    H269231   6.210   4.564   0.666  0.0489 -0.3828  1.6813
15914TIP3   OH269232   1.200   4.989   1.614  0.5227 -0.0185  0.0062
15914TIP3    H169233   1.172   4.907   1.657  1.1622 -0.1774  0.1228
15914TIP3    H269234   1.292   4.974   1.592  0.8702  0.9795  0.7542
15915TIP3   OH269235   6.770   0.180   0.814  0.5529 -0.2528 -0.7115
15915TIP3    H169236   6.750   0.218   0.729 -1.2646 -0.4897 -0.4128
15915TIP3    H269237   6.768   0.085   0.799  1.0214 -0.2899 -0.5674
15916TIP3   OH269238   6.275   5.330   3.496 -0.0515 -0.1247  0.3594
15916TIP3    H169239   6.292   5.319   3.403  1.6350 -0.7859  0.7231
15916TIP3    H269240   6.321   5.256   3.537 -1.7269 -0.5064  1.6239
15917TIP3   OH269241   5.938   4.932   0.529  0.0159  0.7101 -0.1952
15917TIP3    H169242   5.847   4.914   0.505  0.2331 -0.5828 -0.0923
15917TIP3    H269243   5.986   4.924   0.446 -0.0992  2.4436 -0.4488
15918TIP3   OH269244   0.870   3.077   3.163  0.4297 -0.3877 -0.0628
15918TIP3    H169245   0.790   3.045   3.205 -0.4945  2.9200  0.8838
15918TIP3    H269246   0.926   3.103   3.236  1.0936  0.1592 -0.7577
15919TIP3   OH269247   6.283   5.134   3.791  0.3038 -0.8630  0.0298
15919TIP3    H169248   6.309   5.045   3.766  2.1858 -0.7184  1.3495
15919TIP3    H269249   6.240   5.124   3.876 -0.6579 -0.6616 -0.4311
15920TIP3   OH269250   6.609   3.779   3.428 -0.1617  0.4173 -0.1373
15920TIP3    H169251   6.573   3.747   3.511 -0.0531 -1.5392 -0.8127
15920TIP3    H269252   6.538   3.829   3.389  0.0006  1.9126  1.4134
15921TIP3   OH269253   5.588   3.692   2.931 -0.6312  0.0076 -0.2510
15921TIP3    H169254   5.583   3.722   2.841 -1.6741 -1.6830 -0.7935
15921TIP3    H269255   5.673   3.722   2.962 -1.0897  2.3231 -1.1452
15922TIP3   OH269256   1.513   4.487   0.259  0.3215 -0.0578 -0.3550
15922TIP3    H169257   1.428   4.443   0.258  0.2510 -0.0223  1.9063
15922TIP3    H269258   1.491   4.579   0.275  0.8149 -0.2053  1.2708
15923TIP3   OH269259   5.729   4.555   3.886 -0.1342  0.1207 -0.5183
15923TIP3    H169260   5.700   4.468   3.859 -0.6565  0.0399  0.2849
15923TIP3    H269261   5.819   4.562   3.854 -0.8519  0.1695 -2.5914
15924TIP3   OH269262   5.399   6.219   0.049 -0.4678  0.8514 -0.4229
15924TIP3    H169263   5.371   6.232  -0.041 -0.4887  0.7664 -0.4291
15924TIP3    H269264   5.490   6.189   0.042  0.1813  2.7278 -0.3436
15925TIP3   OH269265   5.731   3.881   3.465  0.0217 -0.4795  0.1098
15925TIP3    H169266   5.816   3.920   3.484 -0.6857  1.2280 -0.1039
15925TIP3    H269267   5.679   3.897   3.544 -0.4273 -0.5716 -0.1622
15926TIP3   OH269268   0.765   6.432   2.047 -0.0079  0.1150 -0.9602
15926TIP3    H169269   0.695   6.477   2.095  0.2579 -1.6560  1.1365
15926TIP3    H269270   0.839   6.494   2.051 -1.0780  1.5156 -2.2335
15927TIP3   OH269271   0.610   5.132   3.345 -0.5510  0.2181 -0.3370
15927TIP3    H169272   0.664   5.178   3.281 -0.3612 -0.6840 -0.8196
15927TIP3    H269273   0.595   5.197   3.414  0.0641  0.8765 -0.8169
15928TIP3   OH269274   1.223   3.170   2.214 -0.6256  0.5750 -0.1950
15928TIP3    H169275   1.281   3.243   2.240 -0.5038 -0.0267  1.2992
15928TIP3    H269276   1.140   3.212   2.191 -0.3865  1.2352  0.1298
15929TIP3   OH269277   5.373   7.300   2.182  0.3201  0.3324 -0.2555
15929TIP3    H169278   5.453   7.343   2.153 -0.1124  0.2655 -1.5757
15929TIP3    H269279   5.397   7.208   2.189  0.8471  0.5648  1.1446
15930TIP3   OH269280   7.077   7.170   2.215  0.2989  0.1235 -0.2937
15930TIP3    H169281   7.051   7.191   2.305  0.3596  1.7575 -0.6503
15930TIP3    H269282   7.152   7.227   2.198  0.9676 -0.9573 -1.0204
15931TIP3   OH269283   0.025   6.660   3.715  0.1530 -0.2206  0.1845
15931TIP3    H169284   0.023   6.565   3.709  0.5368 -0.1111 -2.3270
15931TIP3    H269285   0.028   6.690   3.624 -1.6073  2.2384  0.8615
15932TIP3   OH269286   7.124   2.068   2.801 -0.5289  0.4227 -0.2561
15932TIP3    H169287   7.090   1.983   2.774  1.9035 -0.8595  0.6186
15932TIP3    H269288   7.211   2.074   2.761  0.5965  1.1228  2.1802
15933TIP3   OH269289   5.649   3.305   3.883 -0.0086 -0.3967 -0.4555
15933TIP3    H169290   5.570   3.251   3.893  1.5066 -2.5527  0.3609
15933TIP3    H269291   5.644   3.369   3.954  0.1915 -2.1483  1.1950
15934TIP3   OH269292   1.776   1.637   3.484 -0.0131  0.1887  0.0074
15934TIP3    H169293   1.846   1.632   3.419 -0.5159  1.1832 -0.6388
15934TIP3    H269294   1.755   1.731   3.489 -2.4059 -0.2498 -1.0238
15935TIP3   OH269295   7.193   5.562   4.091 -0.1087 -0.3948  0.5256
15935TIP3    H169296   7.144   5.637   4.059  0.5501 -0.1630  0.0482
15935TIP3    H269297   7.257   5.599   4.152 -0.8205 -0.7460  1.4902
15936TIP3   OH269298   0.756   2.861   2.053  0.2233  0.0608 -0.3419
15936TIP3    H169299   0.728   2.950   2.075  0.2992  0.1393 -0.5612
15936TIP3    H269300   0.795   2.828   2.133 -2.2061 -0.7412  0.5747
15937TIP3   OH269301   1.914   6.077   3.388  0.3922  0.4768 -0.4277
15937TIP3    H169302   1.898   6.028   3.308 -2.3894  0.1079  0.2911
15937TIP3    H269303   1.884   6.165   3.369 -0.0070  0.4602  0.1195
15938TIP3   OH269304   1.702   6.696   2.729 -0.4265 -0.8870 -0.1385
15938TIP3    H169305   1.672   6.786   2.719 -1.1795 -0.9898  1.1399
15938TIP3    H269306   1.764   6.699   2.802  0.1761 -1.2690 -0.6200
15939TIP3   OH269307   6.202   4.792   0.988 -0.1587 -0.2009 -0.1701
15939TIP3    H169308   6.206   4.819   0.896 -0.6722 -0.9643 -0.4274
15939TIP3    H269309   6.269   4.723   0.994 -0.2260 -0.2511 -0.0143
15940TIP3   OH269310   5.388   5.268   1.576  0.0113 -0.3598 -0.0142
15940TIP3    H169311   5.460   5.254   1.515 -1.4653  1.3311 -2.1920
15940TIP3    H269312   5.311   5.229   1.533 -1.0015  0.6458  0.8368
15941TIP3   OH269313   0.293   4.036   5.277 -0.4255 -0.6244 -0.4623
15941TIP3    H169314   0.272   3.978   5.350 -1.0698 -1.3785 -1.2432
15941TIP3    H269315   0.340   3.981   5.215  2.2747  0.5918  0.4199
15942TIP3   OH269316   0.981   4.924   2.901  0.7469  0.4200  0.9027
15942TIP3    H169317   1.011   4.932   2.810  1.2467  0.9223  1.1146
15942TIP3    H269318   0.922   4.849   2.899 -0.8024  1.6257 -0.2482
15943TIP3   OH269319   4.799   0.211   1.363 -0.3187  0.1792 -0.3955
15943TIP3    H169320   4.768   0.288   1.410 -0.9794 -1.3687  1.7753
15943TIP3    H269321   4.749   0.210   1.281 -0.7494  1.6836 -0.1610
15944TIP3   OH269322   5.325   1.882   4.487 -0.2450 -0.3511 -0.0650
15944TIP3    H169323   5.322   1.817   4.417 -1.3047 -1.0431  0.6071
15944TIP3    H269324   5.418   1.898   4.501  0.0329 -1.9265 -0.0536
15945TIP3   OH269325   6.268   6.420   2.961  0.7496  0.2971  0.1654
15945TIP3    H169326   6.242   6.347   2.904  0.5802  0.6975 -0.2754
15945TIP3    H269327   6.363   6.422   2.955  0.6507  1.4637 -1.5368
15946TIP3   OH269328   4.271   6.871   3.004 -0.1169 -0.0658 -0.4414
15946TIP3    H169329   4.186   6.879   3.046  1.3847 -0.4985  2.8598
15946TIP3    H269330   4.303   6.785   3.029  1.2994  0.0686 -1.6510
15947TIP3   OH269331   6.790   4.112   0.938 -0.2546 -0.4617 -0.2673
15947TIP3    H169332   6.710   4.141   0.981  0.4864  0.5911  0.4146
15947TIP3    H269333   6.831   4.052   1.000 -1.0723 -1.9250 -1.0934
15948TIP3   OH269334   6.637   5.035   2.899 -0.6816  0.4152 -0.2128
15948TIP3    H169335   6.723   5.000   2.875 -0.8911 -0.2520  0.0227
15948TIP3    H269336   6.617   4.995   2.983 -1.0100  0.9479 -0.0323
15949TIP3   OH269337   7.273   4.102   1.268  0.7034 -0.3913 -0.4710
15949TIP3    H169338   7.177   4.098   1.268  0.7195 -0.8046 -0.6357
15949TIP3    H269339   7.295   4.159   1.342  0.2751  1.0688 -1.4383
15950TIP3   OH269340   6.413   4.238   1.710  1.1427 -0.2094 -0.1657
15950TIP3    H169341   6.495   4.248   1.661  1.7394 -3.7100 -0.0468
15950TIP3    H269342   6.349   4.214   1.643  0.7647  0.1819  0.0592
15951TIP3   OH269343   5.612   3.944   0.998 -0.7227  0.0691  0.2151
15951TIP3    H169344   5.651   3.857   0.989 -1.9422 -0.3402 -1.4756
15951TIP3    H269345   5.555   3.938   1.074  1.3802  0.2463  1.8270
15952TIP3   OH269346   5.415   5.873   0.833  0.5636 -0.5249 -0.2720
15952TIP3    H169347   5.389   5.881   0.925 -0.5060  0.1857 -0.6296
15952TIP3    H269348   5.412   5.778   0.816  1.0094 -0.6789  0.4877
15953TIP3   OH269349   5.958   6.192   1.807 -0.2466 -0.2744  0.3444
15953TIP3    H169350   5.869   6.183   1.841 -0.9159 -0.5648 -1.4227
15953TIP3    H269351   5.962   6.282   1.773 -0.1125 -0.4831 -0.2093
15954TIP3   OH269352   0.279   6.711   3.114  0.6350  0.4354 -0.6320
15954TIP3    H169353   0.317   6.625   3.097  0.9401  0.9096 -2.4664
15954TIP3    H269354   0.189   6.692   3.143  0.7905 -0.5100 -0.7493
15955TIP3   OH269355   6.477   4.516   2.725  0.5798 -0.6246 -0.0282
15955TIP3    H169356   6.491   4.588   2.786  1.0737 -1.3573  0.7341
15955TIP3    H269357   6.564   4.501   2.686  0.0619  0.5043 -1.6713
15956TIP3   OH269358   6.908   6.958   2.585  0.4742  0.0799  0.2041
15956TIP3    H169359   6.818   6.990   2.590  0.9412  1.1554  1.8929
15956TIP3    H269360   6.905   6.870   2.622  0.6571  1.2709  3.1307
15957TIP3   OH269361   4.545   6.634   1.448  0.2585 -0.4505  0.6673
15957TIP3    H169362   4.577   6.589   1.526  0.3948 -1.5245  0.0056
15957TIP3    H269363   4.621   6.683   1.415  0.2406 -0.1153  1.1265
15958TIP3   OH269364   5.152   6.019  15.292 -0.2381 -0.0554 -0.2088
15958TIP3    H169365   5.074   6.058  15.331 -0.5347 -0.2522 -0.6035
15958TIP3    H269366   5.192   6.090  15.243  0.4762  0.3596  0.9585
15959TIP3   OH269367   1.051   3.828   2.941 -0.0878 -0.4591  0.4884
15959TIP3    H169368   1.120   3.780   2.896 -0.8579 -1.1523  0.0246
15959TIP3    H269369   0.977   3.826   2.880 -1.0044 -1.0444  1.5876
15960TIP3   OH269370   2.259   6.114   2.479 -0.2700  0.1525  0.1347
15960TIP3    H169371   2.305   6.032   2.462 -0.3734 -0.1504  1.3190
15960TIP3    H269372   2.183   6.111   2.421 -0.1690 -0.4855  0.0342
15961TIP3   OH269373   5.297   5.211   2.889 -0.1194  0.1629  0.2956
15961TIP3    H169374   5.213   5.166   2.879 -0.5361  1.3658 -1.8862
15961TIP3    H269375   5.361   5.151   2.850 -0.3831  0.5482 -0.7306
15962TIP3   OH269376   0.913   4.188   0.872  0.0434 -0.3734 -0.4767
15962TIP3    H169377   0.866   4.106   0.884 -0.1991 -0.2997 -0.9566
15962TIP3    H269378   0.850   4.247   0.832  0.5221 -0.2644 -1.0835
15963TIP3   OH269379   7.073   5.067   2.856  0.2401  0.0841  0.4408
15963TIP3    H169380   7.004   5.003   2.874  1.2750 -0.7393  1.5641
15963TIP3    H269381   7.035   5.125   2.790 -1.5145 -0.3705  1.0094
15964TIP3   OH269382   4.614   6.147   3.168 -0.2345 -0.3671 -0.4229
15964TIP3    H169383   4.670   6.076   3.198 -0.6484 -1.0983 -1.3561
15964TIP3    H269384   4.582   6.187   3.249 -1.1381 -2.1492  0.1353
15965TIP3   OH269385   0.362   4.436  15.554 -0.1557 -0.3309 -0.0017
15965TIP3    H169386   0.400   4.415  15.639 -1.7883  0.9373  1.0705
15965TIP3    H269387   0.273   4.402  15.558 -0.5122  0.4693 -0.9042
15966TIP3   OH269388   5.773   6.357   3.215 -0.4823 -0.2715 -0.1012
15966TIP3    H169389   5.715   6.384   3.143 -2.9409 -1.3700  1.4048
15966TIP3    H269390   5.809   6.439   3.249 -1.7121  0.4944 -0.5991
15967TIP3   OH269391   7.131   6.341   3.563 -0.2948 -0.0677 -0.2893
15967TIP3    H169392   7.139   6.322   3.469 -2.3612 -0.3208 -0.4411
15967TIP3    H269393   7.208   6.393   3.584  0.9042 -1.2126 -1.8278
15968TIP3   OH269394   0.155   5.345   1.967 -0.0509 -0.4957 -0.1833
15968TIP3    H169395   0.085   5.322   2.028 -0.1671  1.6360  0.5054
15968TIP3    H269396   0.120   5.323   1.880 -0.5335 -1.9349  0.3635
15969TIP3   OH269397   5.726   4.609   3.001 -0.1811 -0.3933 -0.8331
15969TIP3    H169398   5.691   4.692   3.034 -3.4143 -2.3402  0.9472
15969TIP3    H269399   5.773   4.633   2.921 -1.7650  3.0351 -0.8537
15970TIP3   OH269400   0.786   1.419   1.286 -0.3995 -0.1329 -0.2832
15970TIP3    H169401   0.701   1.445   1.324 -0.0115 -0.7875  1.0803
15970TIP3    H269402   0.763   1.357   1.217 -0.9452 -2.7186  2.0964
15971TIP3   OH269403   5.811   2.781   3.522  0.1552  0.5620 -0.4099
15971TIP3    H169404   5.747   2.779   3.451 -0.0273  0.4586 -0.2418
15971TIP3    H269405   5.789   2.860   3.572  0.5533  0.8711 -0.7157
15972TIP3   OH269406   6.897   5.702   3.171  0.3714 -0.5886  0.4705
15972TIP3    H169407   6.848   5.665   3.097  0.2710 -2.0015  1.2255
15972TIP3    H269408   6.833   5.759   3.215  0.5093  0.4707 -0.6634
15973TIP3   OH269409   5.368   3.936   1.826  0.0148  0.2890 -0.0825
15973TIP3    H169410   5.299   3.899   1.882 -0.4509  3.9789  1.9538
15973TIP3    H269411   5.320   3.984   1.758  0.5159  2.1020  0.8103
15974TIP3   OH269412   5.366   4.565   2.012 -0.1785 -0.2969 -0.6048
15974TIP3    H169413   5.409   4.578   2.096 -0.2678 -1.2510 -0.4121
15974TIP3    H269414   5.377   4.649   1.966 -0.3606  0.3139  0.4537
15975TIP3   OH269415   1.204   3.999   2.153 -0.1459 -0.0725 -0.1521
15975TIP3    H169416   1.190   4.090   2.125 -2.1769 -0.0632  0.8474
15975TIP3    H269417   1.123   3.974   2.197  0.3462 -2.4269 -0.5123
15976TIP3   OH269418   0.860   3.960   3.758  0.0678 -0.1490  0.6601
15976TIP3    H169419   0.915   4.032   3.788  0.4581 -0.5477  0.9153
15976TIP3    H269420   0.802   3.942   3.833 -0.5325  0.3885  0.3272
15977TIP3   OH269421   1.016   1.282   4.945  0.7970  0.1366  0.4834
15977TIP3    H169422   1.099   1.275   4.991  2.5788  0.8617 -2.5412
15977TIP3    H269423   1.022   1.363   4.895 -1.0673 -0.6284 -1.0594
15978TIP3   OH269424   5.232   4.271   2.292  0.4080  0.6449 -0.0994
15978TIP3    H169425   5.172   4.345   2.290  1.8721  1.8345 -1.6369
15978TIP3    H269426   5.319   4.311   2.293  1.1973 -1.0504  0.1906
15979TIP3   OH269427   5.770   2.933   2.986  0.6868  0.1515  0.7528
15979TIP3    H169428   5.856   2.952   2.950  1.4051 -1.1056  1.7585
15979TIP3    H269429   5.784   2.856   3.041 -1.3932 -1.0512 -0.3402
15980TIP3   OH269430   6.428   3.084   3.758  0.0008  0.3740  0.7340
15980TIP3    H169431   6.437   3.057   3.850 -0.1501  0.2838  0.7217
15980TIP3    H269432   6.471   3.015   3.708 -0.4510  0.1158  0.6979
15981TIP3   OH269433   6.292   4.570   2.079  0.1863 -0.0586 -0.5369
15981TIP3    H169434   6.349   4.589   2.153 -0.3668 -0.3202 -0.0468
15981TIP3    H269435   6.275   4.476   2.084  0.1027 -0.0674 -0.9589
15982TIP3   OH269436   0.727   4.282   3.033 -0.3051  0.3557 -0.5831
15982TIP3    H169437   0.642   4.305   2.997  0.2475  1.7569 -1.0335
15982TIP3    H269438   0.742   4.346   3.103  0.2594 -0.0583 -0.3181
15983TIP3   OH269439   5.653   0.480   1.609 -0.6332  0.3497  0.5114
15983TIP3    H169440   5.561   0.456   1.607 -0.1834 -1.7360  2.2908
15983TIP3    H269441   5.699   0.396   1.618  1.4418  1.3299 -0.6437
15984TIP3   OH269442   0.054   2.768   1.727 -0.0620  0.1064  0.2451
15984TIP3    H169443   0.103   2.851   1.731  0.0069  0.0651  0.2575
15984TIP3    H269444  -0.017   2.785   1.665 -0.6179  0.4793  0.9623
15985TIP3   OH269445   6.643   4.524   1.974 -0.3502 -0.1237  0.2354
15985TIP3    H169446   6.611   4.448   2.022  0.5754 -0.2778  0.6111
15985TIP3    H269447   6.628   4.598   2.032 -3.3049  0.3326 -0.9928
15986TIP3   OH269448   4.369   5.284   3.301  0.0020  0.5642  0.1150
15986TIP3    H169449   4.284   5.250   3.328  1.3745 -2.8504  0.3105
15986TIP3    H269450   4.407   5.215   3.247  2.6430  2.0514 -0.0175
15987TIP3   OH269451   6.850   3.431  15.764 -0.5302  0.4792 -0.0543
15987TIP3    H169452   6.914   3.361  15.750 -1.3422 -0.5083  1.1199
15987TIP3    H269453   6.803   3.437  15.681 -1.5951 -1.5596  0.3538
15988TIP3   OH269454   1.215   3.934   3.619  0.9707 -0.0581 -0.2433
15988TIP3    H169455   1.214   3.933   3.523 -0.5245 -1.1079 -0.2317
15988TIP3    H269456   1.168   3.854   3.644  2.4285 -0.4295  1.3663
15989TIP3   OH269457   7.289   3.849   0.639  0.2558 -0.1119 -0.6178
15989TIP3    H169458   7.265   3.888   0.555  1.5545 -1.7414 -1.7962
15989TIP3    H269459   7.238   3.768   0.644 -1.4617  1.0301  1.2139
15990TIP3   OH269460   5.215   4.258   3.641 -0.1268 -0.0974 -0.3339
15990TIP3    H169461   5.126   4.260   3.675  0.1579 -2.1752  0.6153
15990TIP3    H269462   5.218   4.328   3.576 -3.0784 -1.4282 -1.9875
15991TIP3   OH269463   0.016   5.311   3.164  0.0012  0.4777 -0.0723
15991TIP3    H169464  -0.042   5.353   3.101 -0.4453 -0.3730 -0.2461
15991TIP3    H269465   0.020   5.219   3.135 -0.1818  0.0870  1.1118
15992TIP3   OH269466   6.046   4.396   1.858  0.2166 -0.0481 -0.2940
15992TIP3    H169467   6.136   4.406   1.890  0.3301 -0.8187 -0.3546
15992TIP3    H269468   6.052   4.414   1.764  0.4371 -0.7627 -0.4217
15993TIP3   OH269469   0.282   5.229   1.634  0.5544  0.5155 -0.0239
15993TIP3    H169470   0.364   5.262   1.597  0.2979 -0.5302 -1.5859
15993TIP3    H269471   0.214   5.266   1.578  0.1658 -1.2810 -0.7714
15994TIP3   OH269472   5.262   6.525   2.375 -0.0348 -0.2716 -0.1050
15994TIP3    H169473   5.331   6.460   2.388  0.9921  1.0203  1.0600
15994TIP3    H269474   5.288   6.571   2.295  0.6639  0.4476  0.5251
15995TIP3   OH269475   6.236   4.700   3.633  0.0398 -0.3922  0.3502
15995TIP3    H169476   6.280   4.765   3.687  0.7225 -0.3611 -0.2377
15995TIP3    H269477   6.306   4.662   3.580 -0.2719 -2.0025  1.0944
15996TIP3   OH269478   6.686   6.495   1.634 -0.4165 -0.3926  0.5512
15996TIP3    H169479   6.652   6.501   1.724 -2.7397 -2.9226 -0.0621
15996TIP3    H269480   6.677   6.402   1.612  2.6889 -0.2970 -1.3601
15997TIP3   OH269481   7.108   5.171   1.401  0.0450  0.4589 -0.3184
15997TIP3    H169482   7.014   5.189   1.399  0.2569  1.7270  0.4979
15997TIP3    H269483   7.121   5.119   1.480  0.0937  0.7246 -0.1490
15998TIP3   OH269484   0.138   4.115   2.667 -0.1330 -0.1030  0.5593
15998TIP3    H169485   0.230   4.140   2.661  0.1216 -0.8910  1.1578
15998TIP3    H269486   0.130   4.038   2.611 -0.9456  1.3330 -1.3684
15999TIP3   OH269487   6.576   5.942   0.661 -0.2187  1.0072 -0.1892
15999TIP3    H169488   6.497   5.888   0.657  0.1516  0.5205 -1.1054
15999TIP3    H269489   6.612   5.926   0.748 -1.0812  1.1559  0.1963
16000TIP3   OH269490   3.226   5.192   2.197  0.0877 -0.7304 -0.3137
16000TIP3    H169491   3.283   5.156   2.265  0.9424 -1.3054 -1.3199
16000TIP3    H269492   3.244   5.286   2.198 -0.0517 -0.7104  0.3955
16001TIP3   OH269493   7.264   5.357   2.134 -0.0559  0.1329 -0.6471
16001TIP3    H169494   7.175   5.362   2.098 -0.3780 -0.7220 -0.0001
16001TIP3    H269495   7.277   5.441   2.179 -0.5767  0.2178 -0.6530
16002TIP3   OH269496   1.965   1.350   3.129 -0.2913  0.0555 -0.1617
16002TIP3    H169497   1.986   1.435   3.168 -0.9538  0.0986  0.1000
16002TIP3    H269498   2.044   1.298   3.143 -0.6027 -0.0137  1.4937
16003TIP3   OH269499   0.688   6.624   4.644  1.2316 -0.3193 -0.4979
16003TIP3    H169500   0.722   6.550   4.694 -1.2524  0.1814  2.0864
16003TIP3    H269501   0.607   6.647   4.689  0.5759  2.2536 -2.8934
16004TIP3   OH269502   6.492   3.554   0.194  0.2615  0.1230  0.4316
16004TIP3    H169503   6.411   3.542   0.243 -0.7547  1.3945 -0.8578
16004TIP3    H269504   6.479   3.637   0.148  2.6733  0.7835  0.9029
16005TIP3   OH269505   7.232   5.400   1.239  0.2937  0.4827  0.1130
16005TIP3    H169506   7.192   5.389   1.153  1.8010  0.5050 -0.6082
16005TIP3    H269507   7.207   5.322   1.288  0.3605 -0.0674 -0.7194
16006TIP3   OH269508   1.167   4.901   4.320 -0.7434 -0.4831  0.0466
16006TIP3    H169509   1.186   4.964   4.390  0.2757 -0.1602 -0.5128
16006TIP3    H269510   1.240   4.839   4.324 -0.9582 -0.7603 -0.3876
16007TIP3   OH269511   5.088   4.443   3.428 -0.1395 -0.0588  0.2382
16007TIP3    H169512   5.170   4.445   3.379  0.9894 -0.9411  2.0246
16007TIP3    H269513   5.096   4.515   3.491 -0.7501 -0.1384  0.4088
16008TIP3   OH269514   0.211   3.044   1.784 -0.4233  0.1922  0.5160
16008TIP3    H169515   0.264   3.009   1.713 -1.7134 -2.6556  0.8943
16008TIP3    H269516   0.267   3.109   1.826  0.9131  0.8302 -2.1208
16009TIP3   OH269517   0.088   5.720   2.515  0.3565  0.3414 -0.1170
16009TIP3    H169518   0.095   5.676   2.599 -1.6825  1.8877  0.8941
16009TIP3    H269519   0.169   5.697   2.469  1.8462  0.0847  2.5384
16010TIP3   OH269520   1.304   5.165   2.975  0.0729 -0.5777  0.0241
16010TIP3    H169521   1.246   5.241   2.972 -1.6063 -1.8855 -1.7725
16010TIP3    H269522   1.252   5.096   3.014  0.3729 -1.7928 -1.6792
16011TIP3   OH269523   4.158   5.345   1.025 -0.5430  0.3240 -0.0009
16011TIP3    H169524   4.244   5.386   1.015 -0.4934  0.4401  0.8770
16011TIP3    H269525   4.118   5.353   0.938  0.3879  0.1301 -0.4525
16012TIP3   OH269526   5.989   3.088   1.667  0.1484 -0.2239 -0.4902
16012TIP3    H169527   6.021   3.178   1.677  0.7241 -0.2911 -1.6694
16012TIP3    H269528   5.899   3.091   1.698 -0.4925  1.2165 -2.3831
16013TIP3   OH269529   0.754   5.360   2.233 -0.1818  0.0406  0.3830
16013TIP3    H169530   0.825   5.298   2.251  2.1291  2.2538 -0.7426
16013TIP3    H269531   0.779   5.440   2.279 -2.5931  0.5019  0.9610
16014TIP3   OH269532   0.508   5.684   1.404  0.5053  0.2285  0.1437
16014TIP3    H169533   0.499   5.704   1.311 -0.0516  0.9400  0.3429
16014TIP3    H269534   0.601   5.698   1.423  0.8219 -0.9199 -0.5284
16015TIP3   OH269535   1.779   5.310   1.800  0.5551  0.3582 -0.1411
16015TIP3    H169536   1.722   5.322   1.876 -0.0678  0.2617 -0.5857
16015TIP3    H269537   1.749   5.228   1.760  1.2567  0.1076 -0.1649
16016TIP3   OH269538   6.997   5.516   1.692  0.0677  0.0367 -0.1527
16016TIP3    H169539   6.944   5.595   1.708 -0.3468  0.0322 -1.4356
16016TIP3    H269540   6.932   5.447   1.678  0.4315 -0.4943  0.7692
16017TIP3   OH269541   0.556   2.583   2.609 -0.0886 -0.1513 -0.0227
16017TIP3    H169542   0.610   2.506   2.595 -2.0858 -1.5730 -0.0736
16017TIP3    H269543   0.499   2.587   2.532 -0.5912  0.8833  0.3885
16018TIP3   OH269544   0.947   3.259   2.184 -0.1274 -0.4892 -0.3274
16018TIP3    H169545   0.957   3.261   2.089 -1.2113 -0.6834 -0.4531
16018TIP3    H269546   0.869   3.312   2.201 -0.3119 -0.9913  0.4018
16019TIP3   OH269547   4.485   6.271   1.763 -0.0324 -0.2388  0.3283
16019TIP3    H169548   4.465   6.356   1.724  1.3713  0.3750  0.9331
16019TIP3    H269549   4.433   6.269   1.843 -1.1670 -0.5629 -0.3936
16020TIP3   OH269550   6.931   4.054   2.273  0.0917 -0.4565 -0.0414
16020TIP3    H169551   6.952   4.147   2.283  1.3963 -0.5860 -1.3732
16020TIP3    H269552   6.845   4.044   2.313 -0.3543  1.4662 -0.4885
16021TIP3   OH269553   0.435   3.679   2.941  0.7045  0.6742  0.1787
16021TIP3    H169554   0.363   3.644   2.994  1.6239 -1.0665  0.3221
16021TIP3    H269555   0.396   3.696   2.855  0.3272 -1.2218 -0.0514
16022TIP3   OH269556   0.416   5.386   1.448  0.1805  1.0588  0.3239
16022TIP3    H169557   0.468   5.465   1.459  0.1786  1.2367 -0.8914
16022TIP3    H269558   0.336   5.416   1.405 -0.2157  0.5436  0.7053
16023TIP3   OH269559   5.244   7.249   3.786 -0.1362  0.2351 -0.0921
16023TIP3    H169560   5.215   7.208   3.704 -0.1477  0.6118 -0.2804
16023TIP3    H269561   5.310   7.189   3.821 -0.4924 -0.1758 -0.1221
16024TIP3   OH269562   5.057   5.462   2.368 -0.4780 -0.0317 -0.0788
16024TIP3    H169563   4.964   5.485   2.364 -0.3413  0.7395  0.9147
16024TIP3    H269564   5.063   5.393   2.433 -0.5430 -1.1580 -1.2398
16025TIP3   OH269565   1.258   5.095   3.354 -0.1964 -0.3164  0.3211
16025TIP3    H169566   1.223   5.105   3.265  0.1201  1.1877  0.3592
16025TIP3    H269567   1.185   5.119   3.411 -0.1217 -0.4092  0.4557
16026TIP3   OH269568   4.046   4.443   3.066 -0.2979  0.0971 -0.3498
16026TIP3    H169569   4.030   4.386   2.990  0.7992  1.9408 -1.9907
16026TIP3    H269570   4.129   4.487   3.047  0.6232 -0.2771  2.4826
16027TIP3   OH269571   4.006   0.014   0.339  0.5111 -0.1106  0.5059
16027TIP3    H169572   3.969   0.067   0.409  0.4285  1.7355 -0.8800
16027TIP3    H269573   4.098   0.039   0.336  0.2718  0.7089 -0.7685
16028TIP3   OH269574   0.116   5.832   0.216 -0.1113 -0.3253 -0.0386
16028TIP3    H169575   0.210   5.839   0.204 -0.2797  0.5801 -0.8757
16028TIP3    H269576   0.083   5.921   0.208 -1.2379 -0.8405 -1.6135
16029TIP3   OH269577   7.187   5.846   3.898  0.3786 -0.2071  0.1990
16029TIP3    H169578   7.163   5.928   3.941 -0.6510 -0.4849  0.1773
16029TIP3    H269579   7.116   5.831   3.835  0.9758 -0.6979 -0.3619
16030TIP3   OH269580   1.819   5.243   1.109 -0.3623 -0.5035 -0.2759
16030TIP3    H169581   1.780   5.202   1.031  2.1354 -0.0307 -1.8491
16030TIP3    H269582   1.888   5.182   1.135 -0.8110 -0.3720  1.2568
16031TIP3   OH269583   1.613   6.264   2.370 -0.2221  1.2077  0.3614
16031TIP3    H169584   1.664   6.207   2.428  1.9838  3.2317  0.4747
16031TIP3    H269585   1.583   6.335   2.426  0.1171  2.0572 -0.5301
16032TIP3   OH269586   0.861   4.991   2.445  0.1263 -0.4301  0.1300
16032TIP3    H169587   0.770   4.964   2.434  0.1250 -0.6861  0.7496
16032TIP3    H269588   0.879   5.048   2.370 -0.2241 -1.2225 -0.5579
16033TIP3   OH269589   4.186   4.567   3.410 -0.6850  0.1073 -0.3307
16033TIP3    H169590   4.152   4.582   3.499 -1.2303  2.8047 -0.9464
16033TIP3    H269591   4.263   4.623   3.404 -2.4766  2.4711 -2.5651
16034TIP3   OH269592   5.042   5.523   1.367  0.2989 -0.8983  0.4613
16034TIP3    H169593   5.076   5.535   1.279  0.1794 -0.4107  0.4811
16034TIP3    H269594   4.993   5.440   1.363  0.0863 -0.7516  0.0103
16035TIP3   OH269595   2.202   6.226   3.483  0.0880  0.2770 -0.2541
16035TIP3    H169596   2.190   6.162   3.413 -0.2197 -0.9409  0.8902
16035TIP3    H269597   2.284   6.269   3.463  0.1426 -0.2668 -1.2155
16036TIP3   OH269598   0.954   4.146   1.542  0.1447  0.2731 -0.9854
16036TIP3    H169599   0.874   4.165   1.494  0.5738  3.1859 -0.6183
16036TIP3    H269600   1.022   4.198   1.499  1.2241  0.2353  0.6129
16037TIP3   OH269601   1.477   1.790   4.370  0.1506 -0.2844  0.0008
16037TIP3    H169602   1.541   1.849   4.330  1.0445 -0.8651  0.5621
16037TIP3    H269603   1.440   1.741   4.296 -0.6262  0.9845 -0.4765
16038TIP3   OH269604   7.334   5.058   1.617 -0.6431 -0.7141  0.0017
16038TIP3    H169605   7.260   5.057   1.678 -2.6511  0.9855 -2.2995
16038TIP3    H269606   7.345   4.967   1.591 -2.6465 -0.8580 -0.4319
16039TIP3   OH269607   0.392   5.862   0.210  0.6341 -0.1957  0.6181
16039TIP3    H169608   0.462   5.810   0.248  1.0343  0.3909  0.6813
16039TIP3    H269609   0.431   5.902   0.132 -0.2354 -1.5707 -0.5597
16040TIP3   OH269610   6.669   5.179   4.693 -0.3568 -0.0836  0.1228
16040TIP3    H169611   6.750   5.216   4.658 -1.1341  0.0628 -1.5951
16040TIP3    H269612   6.691   5.088   4.713  0.9052  0.6263  2.0829
16041TIP3   OH269613   6.895   0.283   1.464 -0.2367 -0.1146 -0.4861
16041TIP3    H169614   6.830   0.219   1.492 -0.6998  0.6335  0.1666
16041TIP3    H269615   6.958   0.286   1.536 -0.4450  0.4826 -0.3315
16042TIP3   OH269616   0.287   5.764   3.245  0.6047 -0.0136  0.2718
16042TIP3    H169617   0.368   5.796   3.205  0.5357 -2.5624 -2.0103
16042TIP3    H269618   0.222   5.830   3.223  1.1888  0.0088 -1.4400
16043TIP3   OH269619   0.393   5.348   2.781 -0.3309 -0.4930 -0.0998
16043TIP3    H169620   0.362   5.319   2.696 -1.4031  0.4880 -0.0561
16043TIP3    H269621   0.484   5.317   2.785 -0.2298 -0.4470 -1.6355
16044TIP3   OH269622   7.270   2.273   1.011 -0.3634  0.2294  0.2289
16044TIP3    H169623   7.333   2.318   1.067  0.5553 -2.3288  1.3514
16044TIP3    H269624   7.325   2.229   0.945 -1.0337 -1.0533  0.5058
16045TIP3   OH269625   4.788   6.776   2.663  0.5433 -0.1499 -0.8712
16045TIP3    H169626   4.739   6.858   2.651  1.3323  0.7262  1.5442
16045TIP3    H269627   4.838   6.790   2.744  1.2646 -2.7543 -0.8289
16046TIP3   OH269628   0.056   5.725   2.878  0.6025  0.3042 -0.3220
16046TIP3    H169629   0.046   5.807   2.829  0.9981  0.9819  0.7116
16046TIP3    H269630   0.142   5.692   2.853  0.4327  0.1991 -0.7601
16047TIP3   OH269631   0.768   5.273   4.013  0.1970  0.3063 -0.0009
16047TIP3    H169632   0.804   5.303   3.929 -0.2994 -1.2381 -0.7895
16047TIP3    H269633   0.796   5.340   4.076  3.6246 -0.3328 -0.7378
16048TIP3   OH269634   6.103   6.683   3.750 -0.2101 -0.2507  0.1223
16048TIP3    H169635   6.170   6.711   3.812  0.1946  0.8625 -0.8118
16048TIP3    H269636   6.105   6.748   3.681 -0.3114 -1.7415 -1.3181
16049TIP3   OH269637   4.031   6.190   2.992  0.6914 -0.0437 -0.5629
16049TIP3    H169638   4.091   6.163   2.923  2.0354 -0.4850  0.7711
16049TIP3    H269639   4.080   6.254   3.043  0.5064 -1.3853  1.3184
16050TIP3   OH269640   6.663   5.658   5.200 -0.8360 -0.2515 -0.3064
16050TIP3    H169641   6.672   5.753   5.211  2.0143 -0.3950 -0.9171
16050TIP3    H269642   6.608   5.631   5.274 -0.4399  1.6884  0.7521
16051TIP3   OH269643   7.324   5.163   2.928 -0.9185  0.1483 -0.6139
16051TIP3    H169644   7.245   5.110   2.928 -0.0295 -1.2046 -0.5768
16051TIP3    H269645   7.350   5.167   2.836  0.2851 -1.4471 -0.3701
16052TIP3   OH269646   1.243   1.899   3.504 -0.1440  0.1281  0.3312
16052TIP3    H169647   1.256   1.964   3.435  0.2647  0.1442  0.4220
16052TIP3    H269648   1.304   1.926   3.573  0.7033 -0.8939 -0.0145
16053TIP3   OH269649   6.797   2.652   3.807 -0.0420  0.1739 -0.3905
16053TIP3    H169650   6.763   2.656   3.718 -0.2468  0.7690 -0.2898
16053TIP3    H269651   6.733   2.601   3.856 -0.5452  0.8736 -0.3136
16054TIP3   OH269652   6.170   4.670   4.491 -0.3093  0.2494 -0.0619
16054TIP3    H169653   6.246   4.637   4.539 -1.5191 -1.8590  0.4642
16054TIP3    H269654   6.153   4.756   4.529  0.6827 -0.0493  1.0866
16055TIP3   OH269655   5.914   3.577   5.608  0.1420 -0.1425  0.8157
16055TIP3    H169656   5.972   3.597   5.681  2.4481 -0.5749 -0.8409
16055TIP3    H269657   5.972   3.541   5.541 -2.3055 -2.2850 -0.2426
16056TIP3   OH269658   0.733   6.183   2.539  0.7322  0.1709 -0.4024
16056TIP3    H169659   0.822   6.209   2.561 -0.3544  2.4384  1.4144
16056TIP3    H269660   0.733   6.177   2.443  2.7243  0.5254 -0.4405
16057TIP3   OH269661   1.636   7.050   2.040 -0.0519 -0.0283 -0.0446
16057TIP3    H169662   1.689   6.981   2.000  0.0043 -0.1287  0.2033
16057TIP3    H269663   1.605   7.102   1.966  1.9350  1.1572 -0.0900
16058TIP3   OH269664   6.301   3.217   1.716  0.1415  0.4885 -0.2071
16058TIP3    H169665   6.391   3.232   1.686  0.0103  2.1642  0.1690
16058TIP3    H269666   6.311   3.192   1.808  0.2833 -0.5345 -0.4908
16059TIP3   OH269667   0.776   4.792   1.356 -0.1024  0.8992 -0.1450
16059TIP3    H169668   0.796   4.865   1.414 -1.2542  1.3893 -0.3414
16059TIP3    H269669   0.720   4.734   1.407  1.8729 -0.5278  0.4498
16060TIP3   OH269670   0.905   6.043   4.352 -0.4636 -0.6723  0.1025
16060TIP3    H169671   0.927   5.979   4.419  0.5898 -1.7901 -1.2895
16060TIP3    H269672   0.921   5.998   4.269 -0.4507  1.1210 -0.9004
16061TIP3   OH269673   0.152   6.056   3.433  0.5318 -0.5965 -0.1821
16061TIP3    H169674   0.129   6.149   3.426  0.4248 -0.6609 -0.6817
16061TIP3    H269675   0.138   6.021   3.346 -2.2316 -1.7378  0.6705
16062TIP3   OH269676   0.807   4.695   2.240  0.2876  0.1639 -0.4213
16062TIP3    H169677   0.768   4.614   2.206 -1.3263  0.5610  0.4270
16062TIP3    H269678   0.786   4.694   2.334  0.9495  1.1803 -0.2559
16063TIP3   OH269679   0.066   3.557   2.696  0.3921  0.3553 -0.1535
16063TIP3    H169680   0.084   3.466   2.673  0.2846  0.0309  1.0328
16063TIP3    H269681   0.150   3.601   2.686  0.3882  0.1933 -0.9954
16064TIP3   OH269682   4.472   6.352   3.010  0.2451 -0.3817  0.8028
16064TIP3    H169683   4.496   6.437   2.973  0.5756 -0.2408  1.3367
16064TIP3    H269684   4.556   6.308   3.027  0.0858 -0.5631  1.1171
16065TIP3   OH269685   1.092   5.758   2.634 -0.1085 -0.5334 -0.0272
16065TIP3    H169686   1.010   5.805   2.618  0.1155 -0.8626 -2.2915
16065TIP3    H269687   1.078   5.716   2.719 -1.7094  0.6206  0.3257
16066TIP3   OH269688   2.246   2.915   1.904  0.5467  0.0352  0.0563
16066TIP3    H169689   2.289   2.949   1.982 -0.5814  0.7855  0.3549
16066TIP3    H269690   2.318   2.877   1.852  1.4379  0.4499  0.9616
16067TIP3   OH269691   1.172   1.959   3.976  0.5039  0.1715  0.5608
16067TIP3    H169692   1.219   1.990   3.898  2.0692 -1.3894  0.8276
16067TIP3    H269693   1.164   1.864   3.961 -3.4157  0.5071  0.1110
16068TIP3   OH269694   6.678   3.960   1.580 -0.1733  0.1237  0.7153
16068TIP3    H169695   6.747   4.025   1.568 -0.8656  0.9016  0.8515
16068TIP3    H269696   6.676   3.945   1.675  0.0109 -0.1249  0.6801
16069TIP3   OH269697   7.226   3.602   2.484  0.1634 -0.1803  0.0079
16069TIP3    H169698   7.290   3.603   2.555 -0.6987 -1.4071  0.8392
16069TIP3    H269699   7.204   3.509   2.474  0.0049  0.0200 -1.6261
16070TIP3   OH269700   4.923   7.124   3.094 -0.5829  0.2124  0.5364
16070TIP3    H169701   4.949   7.180   3.021 -0.2383 -0.0059  0.4921
16070TIP3    H269702   4.873   7.182   3.152  0.9761  0.9260  1.1884
16071TIP3   OH269703   1.346   5.379   2.595  0.0894 -0.7077 -0.0976
16071TIP3    H169704   1.362   5.297   2.548  2.2631 -0.8404  0.8466
16071TIP3    H269705   1.357   5.447   2.529 -1.2263 -1.1308 -0.7715
16072TIP3   OH269706   5.722   6.459   4.197  0.3066  0.0568  0.1461
16072TIP3    H169707   5.697   6.548   4.224  2.3601  0.2227  1.5901
16072TIP3    H269708   5.786   6.473   4.127  1.2857 -0.2909  0.9848
16073TIP3   OH269709   6.370   4.533   3.471  0.5970 -0.1564 -0.1397
16073TIP3    H169710   6.303   4.507   3.407  0.8504 -1.9638  0.3011
16073TIP3    H269711   6.383   4.455   3.524  2.7445  0.3175  0.0515
16074TIP3   OH269712   4.947   6.158   1.718 -0.4684 -0.4532 -0.5280
16074TIP3    H169713   4.914   6.244   1.746  0.5350  0.0062 -0.7225
16074TIP3    H269714   4.869   6.111   1.690 -1.3617 -0.5038  1.9068
16075TIP3   OH269715   0.099   4.019   4.112  0.8003 -0.6055  0.0951
16075TIP3    H169716   0.081   3.927   4.091  0.6279 -0.4594 -0.3991
16075TIP3    H269717   0.160   4.048   4.045  0.8489 -0.3535  0.2474
16076TIP3   OH269718   3.352   5.223   4.635  0.9300  0.1398  0.4552
16076TIP3    H169719   3.441   5.206   4.605  0.8417 -0.3199  0.4500
16076TIP3    H269720   3.362   5.266   4.720  1.1726  0.9546  0.0226
16077TIP3   OH269721   6.946   6.557   4.862  0.1592  0.1279 -0.4397
16077TIP3    H169722   6.967   6.468   4.832  0.3720 -0.1536  0.5450
16077TIP3    H269723   6.882   6.588   4.798  0.5301 -0.5064 -1.1450
16078TIP3   OH269724   5.090   6.639   2.793 -0.0618  0.0229  0.1430
16078TIP3    H169725   5.135   6.710   2.747 -1.5717  0.2134 -1.0948
16078TIP3    H269726   5.015   6.681   2.834  0.0785 -0.5433  0.9842
16079TIP3   OH269727   0.513   5.205   2.264  0.0212 -0.1196  0.0722
16079TIP3    H169728   0.511   5.172   2.174 -0.0890 -0.3291  0.1511
16079TIP3    H269729   0.574   5.279   2.262  1.6097 -1.3998  0.2669
16080TIP3   OH269730   1.998   4.797   5.063  0.1090  0.2553  0.6447
16080TIP3    H169731   2.031   4.725   5.010 -2.0078  0.2818 -0.7604
16080TIP3    H269732   1.923   4.760   5.110  0.4399  0.9117  1.7062
16081TIP3   OH269733   5.230   6.658   3.397 -0.2780 -0.1151 -0.4049
16081TIP3    H169734   5.252   6.566   3.386  0.0490 -0.1935  0.9427
16081TIP3    H269735   5.139   6.664   3.368  0.1234 -0.5868 -1.8260
16082TIP3   OH269736   0.582   5.570   0.646  0.1115  0.3511  0.0140
16082TIP3    H169737   0.616   5.596   0.731  1.4333  3.6279 -1.4564
16082TIP3    H269738   0.599   5.645   0.589 -2.9298 -0.8149 -2.5674
16083TIP3   OH269739   0.038   4.205   1.501 -0.0542 -0.3627  0.4681
16083TIP3    H169740  -0.035   4.187   1.560  0.0482 -0.6081  0.5223
16083TIP3    H269741   0.116   4.181   1.552  0.2106  1.8670  1.1841
16084TIP3   OH269742   6.187   5.155   4.042  0.3771  0.2766 -0.3036
16084TIP3    H169743   6.137   5.097   4.100  3.0268 -0.8436  0.8958
16084TIP3    H269744   6.214   5.228   4.097 -0.9157  1.5092 -1.2522
16085TIP3   OH269745   0.240   4.397   1.043  0.2010  0.1123 -0.4666
16085TIP3    H169746   0.199   4.480   1.067 -0.0936  0.4545 -2.0705
16085TIP3    H269747   0.166   4.340   1.020  0.5559  0.5142 -2.7085
16086TIP3   OH269748   6.834   6.086   4.727 -0.0287  0.2018  0.2163
16086TIP3    H169749   6.749   6.050   4.753 -1.3831  0.4731 -3.6146
16086TIP3    H269750   6.885   6.009   4.701 -0.3575  0.3775 -0.9418
16087TIP3   OH269751   7.102   5.368   2.954  0.0032  0.0093  0.4957
16087TIP3    H169752   7.110   5.274   2.935 -0.3625  0.0577  0.0791
16087TIP3    H269753   7.044   5.401   2.885  1.3679  0.8318 -0.3003
16088TIP3   OH269754   1.474   5.087   2.617  0.0428 -0.1635  0.2478
16088TIP3    H169755   1.567   5.066   2.608 -0.0224 -0.4116  0.1620
16088TIP3    H269756   1.471   5.150   2.690  0.6446  2.4907 -1.9405
16089TIP3   OH269757   6.667   3.065   2.608  0.0092 -0.4980 -0.0108
16089TIP3    H169758   6.714   3.107   2.536 -0.0573  0.0302  0.2519
16089TIP3    H269759   6.576   3.093   2.597  0.5856  2.5410  2.3571
16090TIP3   OH269760   7.091   3.977   1.980  0.4754 -0.2044 -0.0305
16090TIP3    H169761   7.152   4.009   1.913 -0.9450  2.2603 -0.1783
16090TIP3    H269762   7.019   4.040   1.980 -0.0702 -0.7409  3.0780
16091TIP3   OH269763   4.836   3.846   3.695 -0.1460 -0.5852  0.0524
16091TIP3    H169764   4.913   3.878   3.742  0.9752 -1.5770 -1.0868
16091TIP3    H269765   4.762   3.873   3.750  1.0155  0.0966  1.3183
16092TIP3   OH269766   0.345   6.401   3.629 -0.2827  0.4097  0.1864
16092TIP3    H169767   0.422   6.425   3.577 -2.3903  2.9053 -1.9215
16092TIP3    H269768   0.378   6.398   3.719  2.2762  1.4413 -0.6541
16093TIP3   OH269769   3.678   4.358   2.771 -0.0584  0.1752  0.1707
16093TIP3    H169770   3.635   4.417   2.833  1.4569  0.8526  0.5945
16093TIP3    H269771   3.768   4.351   2.803 -0.1111 -2.0764 -0.0865
16094TIP3   OH269772   6.625   2.615   3.577 -0.5514  0.2853 -0.0173
16094TIP3    H169773   6.585   2.603   3.490  2.1195 -2.2647 -0.9812
16094TIP3    H269774   6.616   2.530   3.619  1.7469  0.3554  0.6378
16095TIP3   OH269775   6.569   4.859   3.150 -0.1687 -0.2795 -0.3921
16095TIP3    H169776   6.587   4.766   3.157 -1.2822 -0.3938  1.2164
16095TIP3    H269777   6.475   4.868   3.165 -0.0154  1.1290 -0.1343
16096TIP3   OH269778   5.150   2.317   1.078 -0.2763 -0.0840  0.1305
16096TIP3    H169779   5.064   2.360   1.080 -0.7260 -0.9871  2.0858
16096TIP3    H269780   5.210   2.383   1.113 -0.3043  0.2619 -0.4635
16097TIP3   OH269781   6.378   4.261   3.534 -0.1891  0.2076  0.5574
16097TIP3    H169782   6.452   4.263   3.473 -1.4883  0.0251 -1.0355
16097TIP3    H269783   6.361   4.168   3.548  0.3353  0.2463  1.4948
16098TIP3   OH269784   4.817   4.336   2.847  0.0084 -0.4742  0.1899
16098TIP3    H169785   4.870   4.340   2.926  0.6499 -0.1908 -0.2501
16098TIP3    H269786   4.873   4.371   2.778 -1.0111  0.5725 -0.1410
16099TIP3   OH269787   0.068   4.891  15.665  0.2464 -0.4396 -0.0255
16099TIP3    H169788   0.080   4.839  15.585 -0.4461 -1.2183  0.3707
16099TIP3    H269789   0.109   4.975  15.645 -0.1741 -0.5299 -1.3190
16100TIP3   OH269790   4.409   3.875   1.298  0.8573  0.0661 -0.6975
16100TIP3    H169791   4.467   3.838   1.231  0.1760 -0.1019 -1.2076
16100TIP3    H269792   4.321   3.847   1.271  0.7538 -1.8877  1.4904
16101TIP3   OH269793   5.253   5.783   2.482 -0.1905  0.5768  0.0930
16101TIP3    H169794   5.260   5.878   2.486  0.2899  0.5941 -1.0485
16101TIP3    H269795   5.180   5.762   2.540 -0.8460  1.7040 -0.3244
16102TIP3   OH269796   4.763   7.245   3.661  0.7021 -0.2239 -0.4148
16102TIP3    H169797   4.766   7.339   3.679  0.8235 -0.1991 -0.5617
16102TIP3    H269798   4.808   7.205   3.735 -0.9765 -0.2955  0.5736
16103TIP3   OH269799   1.132   2.971   4.172  0.4120  0.6389 -0.1937
16103TIP3    H169800   1.063   2.925   4.219  1.7814 -0.4349  0.7802
16103TIP3    H269801   1.086   3.040   4.124 -1.3377 -0.0916  0.4043
16104TIP3   OH269802   2.507   5.250   2.831 -0.8910 -0.3489 -0.2111
16104TIP3    H169803   2.443   5.294   2.776 -1.9982  0.7154  1.8436
16104TIP3    H269804   2.456   5.188   2.883 -0.4031  1.0019  1.9509
16105TIP3   OH269805   0.294   3.519   2.067 -0.3129 -0.0790 -0.3417
16105TIP3    H169806   0.390   3.516   2.064 -0.3281  0.4548 -1.9561
16105TIP3    H269807   0.273   3.594   2.123  0.2165  0.4422 -0.8391
16106TIP3   OH269808   1.476   6.414   1.139  0.3232  0.2236  0.3672
16106TIP3    H169809   1.423   6.342   1.171 -0.7497  1.4797  1.4769
16106TIP3    H269810   1.422   6.456   1.072  0.1514  1.1319  1.0620
16107TIP3   OH269811   0.783   6.887   4.743  0.1472  0.2216 -0.1162
16107TIP3    H169812   0.875   6.861   4.736 -0.0975  0.0455 -3.4479
16107TIP3    H269813   0.737   6.829   4.682 -2.1630  0.5047  1.2926
16108TIP3   OH269814   7.310   4.326   4.016 -0.0819  0.5552  0.6757
16108TIP3    H169815   7.233   4.334   3.959  0.0632  0.2597  0.4412
16108TIP3    H269816   7.306   4.237   4.050  1.7560 -0.4499 -1.6238
16109TIP3   OH269817   6.750   0.840   2.471 -0.3511  0.1862 -0.0033
16109TIP3    H169818   6.656   0.826   2.480 -0.1116 -1.5589 -0.0945
16109TIP3    H269819   6.778   0.876   2.555 -1.2813  1.8410 -0.3751
16110TIP3   OH269820   1.597   6.513   1.361 -0.3556  0.0458 -1.3127
16110TIP3    H169821   1.558   6.474   1.282  0.5474 -0.5709 -1.4599
16110TIP3    H269822   1.686   6.537   1.334  0.0435 -0.4226 -0.3952
16111TIP3   OH269823   7.025   0.378   3.080 -1.0004 -0.0028 -0.1649
16111TIP3    H169824   7.084   0.453   3.092 -1.5783  0.7033 -1.5594
16111TIP3    H269825   7.082   0.302   3.091 -0.4343  0.6214  1.4417
16112TIP3   OH269826   2.159   1.857  15.895 -0.2749 -0.0334 -0.2219
16112TIP3    H169827   2.091   1.806  15.940 -0.3227 -0.2152 -0.5014
16112TIP3    H269828   2.125   1.868  15.806  1.1820 -2.2178 -1.0655
16113TIP3   OH269829   1.923   6.493   4.413 -0.0834  0.5231  0.3316
16113TIP3    H169830   1.966   6.557   4.356  0.0613  0.3557  0.2518
16113TIP3    H269831   1.996   6.444   4.452 -0.1714  0.8343  0.8891
16114TIP3   OH269832   0.158   6.286   3.138 -0.0782  0.2037  0.2620
16114TIP3    H169833   0.098   6.344   3.091 -0.1895  0.5241  0.7910
16114TIP3    H269834   0.159   6.321   3.227  0.2861 -0.2763  0.4448
16115TIP3   OH269835   6.811   2.382   3.391 -0.1146 -0.0214 -0.4788
16115TIP3    H169836   6.827   2.436   3.468 -0.7834  0.8100 -0.9104
16115TIP3    H269837   6.894   2.381   3.344  0.5898 -1.3619  0.7533
16116TIP3   OH269838   1.145   5.323  15.550 -0.1049 -0.3817  0.2633
16116TIP3    H169839   1.069   5.268  15.531 -0.5994  0.6525 -0.7898
16116TIP3    H269840   1.150   5.325  15.646 -1.9512  0.2604  0.3715
16117TIP3   OH269841   6.101   0.153   0.769 -0.4276 -0.2322  0.4724
16117TIP3    H169842   6.007   0.141   0.760 -0.7005  1.8956  0.1663
16117TIP3    H269843   6.110   0.234   0.820  1.2211  1.0930 -1.8252
16118TIP3   OH269844   3.682   6.044   4.263 -0.1074  0.5710  0.1810
16118TIP3    H169845   3.752   6.012   4.320  0.0330 -1.1026 -0.8939
16118TIP3    H269846   3.712   6.130   4.234  0.5708  0.7326  1.3216
16119TIP3   OH269847   0.033   5.489   0.962 -0.4817  0.0931 -0.2236
16119TIP3    H169848  -0.017   5.505   0.882 -1.0145  0.5770  0.2010
16119TIP3    H269849   0.072   5.574   0.983 -2.2607  0.5653  1.3268
16120TIP3   OH269850   0.134   4.605   3.675 -0.0865 -0.1533  0.2493
16120TIP3    H169851   0.145   4.700   3.676 -1.3059  0.0040 -0.4834
16120TIP3    H269852   0.157   4.578   3.586 -2.3591 -0.1970 -0.3534
16121TIP3   OH269853   2.140   6.197   4.745 -0.4227  0.2159 -0.1982
16121TIP3    H169854   2.139   6.225   4.836 -0.8397  1.8866 -0.7057
16121TIP3    H269855   2.081   6.121   4.743  1.0155 -0.9762  1.2521
16122TIP3   OH269856   0.695   1.242   1.080  0.4037  0.1630  0.0082
16122TIP3    H169857   0.629   1.223   1.013  0.0929 -0.5717  0.5300
16122TIP3    H269858   0.764   1.177   1.065  0.7919  0.6235 -0.2261
16123TIP3   OH269859   6.874   3.259   2.805 -0.1015 -0.0705 -0.1437
16123TIP3    H169860   6.907   3.199   2.739 -2.3008  0.0254 -1.3797
16123TIP3    H269861   6.938   3.331   2.806  1.8063 -1.7249  0.3748
16124TIP3   OH269862   0.963   0.154   2.843 -0.2274 -0.0731  0.4195
16124TIP3    H169863   0.932   0.200   2.765  0.7130  0.4184  0.3163
16124TIP3    H269864   0.970   0.063   2.816 -1.8022 -0.2237  0.5286
16125TIP3   OH269865   7.328   1.156   2.375 -0.3018 -0.4136  0.0258
16125TIP3    H169866   7.289   1.102   2.443 -2.2915 -1.3012 -1.7732
16125TIP3    H269867   7.420   1.128   2.371 -0.6667 -1.7529  0.9384
16126TIP3   OH269868   5.995   1.056   0.894 -0.2961  0.0299  0.6773
16126TIP3    H169869   5.980   0.976   0.945 -0.0307 -0.0047  0.7006
16126TIP3    H269870   6.031   1.025   0.811 -1.1174  0.0577  0.3106
16127TIP3   OH269871   0.028   7.136   3.030 -0.4417  0.2999  0.4505
16127TIP3    H169872   0.030   7.169   2.941 -1.2114 -0.0989  0.2804
16127TIP3    H269873   0.022   7.041   3.021 -0.7333  0.2661  0.9178
16128TIP3   OH269874   3.188   1.518   1.602  0.3288 -0.4857  0.2204
16128TIP3    H169875   3.149   1.471   1.528  2.0544 -0.4395 -0.7574
16128TIP3    H269876   3.215   1.602   1.564  1.5242 -0.5912  0.8272
16129TIP3   OH269877   2.504   5.166   4.203 -0.5019  0.3640 -0.3202
16129TIP3    H169878   2.577   5.220   4.233  0.3248 -0.7064 -0.3909
16129TIP3    H269879   2.427   5.207   4.242  0.1781  1.2290  0.1421
16130TIP3   OH269880   0.902   6.284   4.503  0.2570 -0.1201  0.5785
16130TIP3    H169881   0.934   6.210   4.452  1.5030  0.5535  0.3475
16130TIP3    H269882   0.934   6.268   4.592  0.4350  0.0661  0.5510
16131TIP3   OH269883   5.602   2.151   1.259  0.0355 -0.1260 -1.1192
16131TIP3    H169884   5.643   2.072   1.294  0.7009  0.1288 -1.3134
16131TIP3    H269885   5.609   2.141   1.164 -0.4461 -0.1268 -1.1558
16132TIP3   OH269886   0.781   5.556   2.750  0.3614  0.0584  0.0746
16132TIP3    H169887   0.739   5.642   2.747 -0.8890 -0.4869  1.2228
16132TIP3    H269888   0.853   5.567   2.812 -0.3227  0.0641  0.8804
16133TIP3   OH269889   0.710   4.982  15.663 -0.4683  0.0221 -0.0967
16133TIP3    H169890   0.797   4.949  15.685 -0.8941 -0.7783  0.3908
16133TIP3    H269891   0.683   5.030  15.741  0.1255  1.4979 -0.7813
16134TIP3   OH269892   0.541   4.266   1.943 -0.2856  0.4483  0.3370
16134TIP3    H169893   0.549   4.361   1.933  0.9052  0.3004 -0.2398
16134TIP3    H269894   0.473   4.254   2.009 -0.3266  1.7125  0.5274
16135TIP3   OH269895   0.891   5.900   2.012 -0.5962 -0.9100 -0.2665
16135TIP3    H169896   0.965   5.956   2.035  1.2943 -3.3863 -0.1044
16135TIP3    H269897   0.847   5.884   2.096 -0.5195 -0.5597 -0.1566
16136TIP3   OH269898   0.308   4.835   3.391  0.0997 -0.4265  0.0722
16136TIP3    H169899   0.339   4.789   3.313 -0.2716 -3.3546  1.5600
16136TIP3    H269900   0.365   4.911   3.400  1.4464 -1.1795 -1.8956
16137TIP3   OH269901   1.471   6.876   2.175  0.3091 -0.7797 -0.0452
16137TIP3    H169902   1.436   6.816   2.109  0.8325  0.2974 -1.3136
16137TIP3    H269903   1.510   6.947   2.125  2.5678 -0.9731  1.3731
16138TIP3   OH269904   2.450   6.644   4.128 -0.1553  0.0885  0.2918
16138TIP3    H169905   2.438   6.637   4.033  1.2337 -0.6372  0.1547
16138TIP3    H269906   2.439   6.554   4.160 -0.0375  0.2342  0.7475
16139TIP3   OH269907   1.385   0.493   1.828 -0.4512 -0.4763 -0.5051
16139TIP3    H169908   1.477   0.472   1.843 -0.5616 -0.2599  0.5118
16139TIP3    H269909   1.383   0.531   1.741  0.1930 -1.8891 -1.1496
16140TIP3   OH269910   0.746   6.596   3.707  0.2067  0.1530 -0.4508
16140TIP3    H169911   0.798   6.613   3.785 -1.1969  0.1077  0.5249
16140TIP3    H269912   0.663   6.641   3.723 -0.5692 -0.9071 -1.3684
16141TIP3   OH269913   0.704   0.918   3.703  0.3904 -0.1545  0.2660
16141TIP3    H169914   0.780   0.960   3.663  0.6065  0.6711  1.5269
16141TIP3    H269915   0.736   0.833   3.733  0.2380 -0.7655 -1.2531
16142TIP3   OH269916   5.042   6.042   1.951 -0.5724 -0.5942  0.6123
16142TIP3    H169917   5.040   5.953   1.914  1.3616 -0.0352 -0.8865
16142TIP3    H269918   4.997   6.095   1.886 -1.6864 -0.4325  1.4914
16143TIP3   OH269919   1.965   6.632   2.427  0.1633 -0.2976  0.0138
16143TIP3    H169920   1.875   6.644   2.397 -0.1826 -2.0060  0.3630
16143TIP3    H269921   1.957   6.586   2.511  1.2953  0.9625  0.8393
16144TIP3   OH269922   6.556   6.040   2.665  0.0426 -0.0993 -0.8080
16144TIP3    H169923   6.648   6.049   2.689 -0.0922  0.4477 -0.5091
16144TIP3    H269924   6.525   5.965   2.716  0.6722 -1.1435 -1.9211
16145TIP3   OH269925   0.992   7.285   2.578  0.2609 -0.5598 -0.0550
16145TIP3    H169926   1.044   7.362   2.554 -1.3266  0.9819  1.3828
16145TIP3    H269927   1.057   7.215   2.585  1.7718  0.6740 -1.1414
16146TIP3   OH269928   5.936   0.837   2.232  0.1907 -0.1789 -0.0685
16146TIP3    H169929   5.905   0.863   2.145  1.1746  0.8017 -0.1480
16146TIP3    H269930   5.973   0.749   2.219 -0.1677 -0.2623 -0.5247
16147TIP3   OH269931   0.303   4.703   1.913 -0.0728 -0.0775  0.1896
16147TIP3    H169932   0.294   4.705   1.818 -1.7152  3.1766  0.3477
16147TIP3    H269933   0.282   4.613   1.938 -3.0692 -0.1138 -2.2385
16148TIP3   OH269934   6.816   5.755   1.666 -0.2594  0.0986 -0.2715
16148TIP3    H169935   6.728   5.738   1.699 -0.0422 -3.1929 -1.1695
16148TIP3    H269936   6.802   5.807   1.587 -1.6056 -2.2819 -1.6643
16149TIP3   OH269937   0.833   0.269   3.064  0.0524  0.5613  0.7810
16149TIP3    H169938   0.866   0.276   2.975 -0.6326  2.5134  0.6369
16149TIP3    H269939   0.869   0.188   3.098 -2.2288 -1.8493 -2.3330
16150TIP3   OH269940   0.528   6.968   5.772 -0.0250  0.6687  0.2541
16150TIP3    H169941   0.562   6.893   5.722  0.2777 -0.5058  2.1514
16150TIP3    H269942   0.436   6.975   5.745 -0.4782 -1.3686  1.1669
16151TIP3   OH269943   0.229   1.056   2.423 -0.4199 -0.7122 -0.4926
16151TIP3    H169944   0.193   1.020   2.504 -0.4578  0.3502 -0.0321
16151TIP3    H269945   0.322   1.071   2.444 -0.7185  0.8145 -0.2010
16152TIP3   OH269946   0.310   6.654   4.336  0.7490  0.1598 -0.0725
16152TIP3    H169947   0.327   6.606   4.417  0.8143 -1.6603 -1.1329
16152TIP3    H269948   0.297   6.744   4.364 -0.8893 -0.7119  2.1512
16153TIP3   OH269949   1.565   0.858   3.792  0.5205  0.2882 -0.2247
16153TIP3    H169950   1.620   0.936   3.789 -0.0632  0.7054 -0.0678
16153TIP3    H269951   1.578   0.816   3.707  2.2753 -0.4372  0.3765
16154TIP3   OH269952   0.599   5.234   4.845  0.4586  0.4009  0.2992
16154TIP3    H169953   0.556   5.207   4.926  1.3141 -0.0635  0.6063
16154TIP3    H269954   0.687   5.199   4.852  0.8737  1.2919 -0.3553
16155TIP3   OH269955   5.981   0.774   1.557 -0.4105  0.2983 -0.2141
16155TIP3    H169956   6.003   0.734   1.473 -0.6156 -0.4422  0.0809
16155TIP3    H269957   5.895   0.738   1.579 -0.5508  0.8240  0.1076
16156TIP3   OH269958   0.182   5.865   2.022  0.2656  0.0973 -0.2504
16156TIP3    H169959   0.273   5.894   2.019  0.4467 -0.4550 -0.2021
16156TIP3    H269960   0.156   5.855   1.930  0.1632  0.5291 -0.2694
16157TIP3   OH269961   6.813   4.843   1.733  0.2674  0.2404 -0.0230
16157TIP3    H169962   6.771   4.757   1.725 -1.3434  1.0746 -0.7843
16157TIP3    H269963   6.870   4.835   1.810 -0.1697 -1.3807  0.1475
16158TIP3   OH269964   1.500   6.634   3.958 -0.4596 -0.4534  0.5594
16158TIP3    H169965   1.452   6.714   3.978  0.8560  0.8085 -1.1622
16158TIP3    H269966   1.461   6.603   3.876 -0.6348 -1.3222  0.9603
16159TIP3   OH269967   6.435   5.365   1.922  0.4696  0.1449  0.2842
16159TIP3    H169968   6.489   5.289   1.941  1.3320  0.5894 -0.3758
16159TIP3    H269969   6.416   5.403   2.008 -0.6737 -1.2846  0.6871
16160TIP3   OH269970   1.042   5.980   0.646  0.4503 -0.2778 -0.1838
16160TIP3    H169971   1.056   5.958   0.554  1.2482  1.6364 -0.5438
16160TIP3    H269972   1.117   5.941   0.691  0.7747 -0.0434 -0.5216
16161TIP3   OH269973   7.299   4.539   1.542  0.4360 -0.2715 -0.3349
16161TIP3    H169974   7.204   4.533   1.551  0.6223 -1.6236  0.9675
16161TIP3    H269975   7.320   4.478   1.471  0.6599 -2.8013  1.8222
16162TIP3   OH269976   0.575   3.629   4.042  0.3309 -0.1774  0.5614
16162TIP3    H169977   0.661   3.597   4.069  1.0442  1.3689  0.1651
16162TIP3    H269978   0.531   3.651   4.124  2.0819  3.4633  0.6445
16163TIP3   OH269979   7.276   5.979   2.134 -0.3623 -0.3716 -0.3862
16163TIP3    H169980   7.366   5.965   2.102 -0.4977 -0.2422 -0.8286
16163TIP3    H269981   7.286   5.991   2.229  0.1852  0.4780 -0.5420
16164TIP3   OH269982   6.437   3.998   0.425 -0.2258 -0.5695  0.2783
16164TIP3    H169983   6.476   3.945   0.495 -0.9193 -0.5181  0.7102
16164TIP3    H269984   6.421   3.936   0.354 -1.2452 -0.9817  0.8681
16165TIP3   OH269985   1.110   6.627   2.488 -0.0134 -0.3272  0.3679
16165TIP3    H169986   1.066   6.652   2.407  0.5501 -0.8794 -0.1145
16165TIP3    H269987   1.161   6.550   2.465 -0.4586 -0.9601  1.4439
16166TIP3   OH269988   3.206   3.658   3.141 -0.3739 -0.2104 -0.1679
16166TIP3    H169989   3.265   3.623   3.074 -0.0719  1.2456 -0.6733
16166TIP3    H269990   3.119   3.653   3.100 -0.5233 -1.6024  0.2754
16167TIP3   OH269991   5.966   4.113   3.174  0.2830 -0.1803 -0.0692
16167TIP3    H169992   6.059   4.124   3.192  0.2419  3.8286 -1.7916
16167TIP3    H269993   5.962   4.066   3.091  0.8091  0.6740 -0.5800
16168TIP3   OH269994   0.333   4.638   0.265  0.1181 -0.0889  0.1619
16168TIP3    H169995   0.382   4.720   0.257 -0.8783  0.3090 -2.6635
16168TIP3    H269996   0.256   4.660   0.316  1.0082  0.1586  1.4203
16169TIP3   OH269997   5.902   5.482   0.994 -0.0663  0.2179  1.3016
16169TIP3    H169998   5.982   5.494   1.045 -0.1194 -2.1388  1.9915
16169TIP3    H269999   5.843   5.551   1.024  1.4498  1.5469  1.2824
16170TIP3   OH270000   6.248   1.940   2.439  0.3946 -0.2938 -0.1845
16170TIP3    H170001   6.289   2.027   2.437  2.4704 -1.2445 -0.4819
16170TIP3    H270002   6.226   1.927   2.531  0.4395  0.3790 -0.0732
16171TIP3   OH270003   7.255   5.861   1.533 -0.0142 -0.4337 -0.4220
16171TIP3    H170004   7.219   5.773   1.544  1.8321 -1.7347 -3.8987
16171TIP3    H270005   7.326   5.866   1.597  0.0828 -1.6116 -0.4211
16172TIP3   OH270006   1.622   0.276   2.708  0.2847  0.0926  0.0991
16172TIP3    H170007   1.560   0.208   2.732  1.0789 -1.1089 -1.1384
16172TIP3    H270008   1.577   0.327   2.641 -0.3501  0.8716  1.1012
16173TIP3   OH270009   1.377   4.587   2.866 -0.1484  0.2001  0.1997
16173TIP3    H170010   1.416   4.667   2.830 -0.1212 -0.7179 -1.8808
16173TIP3    H270011   1.291   4.582   2.826 -0.3148 -0.5892  0.6390
16174TIP3   OH270012   2.822   5.707   4.217 -0.1281 -0.6542  0.8356
16174TIP3    H170013   2.818   5.642   4.287  0.6915 -1.2022  0.3768
16174TIP3    H270014   2.915   5.710   4.192 -0.3205 -0.0253  0.1801
16175TIP3   OH270015   1.148   2.932   2.400  0.2091 -0.0476  0.4562
16175TIP3    H170016   1.202   2.856   2.423 -0.4058 -0.3700  0.8565
16175TIP3    H270017   1.206   2.989   2.350  0.5152 -1.0572 -0.3634
16176TIP3   OH270018   1.492   5.297   2.826 -0.2570  0.4572  0.5185
16176TIP3    H170019   1.433   5.257   2.890 -1.2131  0.4502 -0.3661
16176TIP3    H270020   1.435   5.351   2.771  0.3302 -0.8350 -1.3671
16177TIP3   OH270021   5.562   6.032   1.886 -0.3743  0.3626  0.5363
16177TIP3    H170022   5.612   6.108   1.857 -1.0338  0.3915 -0.5137
16177TIP3    H270023   5.471   6.056   1.875 -0.6287  0.0828  1.9036
16178TIP3   OH270024   0.351   3.435   0.812 -0.5777 -0.8956  0.4146
16178TIP3    H170025   0.397   3.383   0.878 -0.4028  0.5607  1.4595
16178TIP3    H270026   0.419   3.489   0.772 -0.5590 -2.2762 -1.4776
16179TIP3   OH270027   7.060   6.731   0.135 -0.6718  0.0839 -0.5493
16179TIP3    H170028   7.030   6.712   0.224  3.4657 -1.9511  0.5773
16179TIP3    H270029   7.015   6.666   0.081 -3.3967  1.4785 -0.0337
16180TIP3   OH270030   7.236   0.758   2.681 -0.1289  0.1997  0.7040
16180TIP3    H170031   7.215   0.766   2.774 -0.0931 -0.9444  0.8213
16180TIP3    H270032   7.299   0.686   2.677 -0.5288 -0.1049 -0.2730
16181TIP3   OH270033   0.498   6.180   2.103  0.4937  0.3948 -0.0702
16181TIP3    H170034   0.506   6.085   2.099  2.3563  0.4025  2.5533
16181TIP3    H270035   0.435   6.201   2.034  0.7712 -2.6292 -1.3280
16182TIP3   OH270036   6.501   3.602   3.632 -0.1618  0.2107 -0.4030
16182TIP3    H170037   6.596   3.590   3.627 -0.0890  0.7194 -0.3471
16182TIP3    H270038   6.465   3.514   3.637  0.2502 -0.0258 -1.4580
16183TIP3   OH270039   5.533   0.155   3.380 -0.0909  0.8636  0.3018
16183TIP3    H170040   5.446   0.190   3.401 -0.0630  0.4283  1.1609
16183TIP3    H270041   5.545   0.082   3.440 -0.4338 -1.1037 -1.9196
16184TIP3   OH270042   3.232   4.794   3.656 -0.0213  0.2313  0.3456
16184TIP3    H170043   3.200   4.781   3.745 -3.7302 -0.9215 -1.0568
16184TIP3    H270044   3.219   4.888   3.640  0.2815  0.3639  0.8409
16185TIP3   OH270045   5.749   1.412   0.491 -0.0326 -0.0343  0.5153
16185TIP3    H170046   5.654   1.402   0.478 -0.1050  1.2974 -0.1522
16185TIP3    H270047   5.758   1.498   0.532  0.8889 -0.1690  0.6011
16186TIP3   OH270048   0.294   1.256   1.488  0.1738  0.2124 -0.1858
16186TIP3    H170049   0.352   1.331   1.473  0.2389 -0.3127 -2.8172
16186TIP3    H270050   0.352   1.188   1.522  0.3266  0.9875  1.1275
16187TIP3   OH270051   7.029   5.741   3.667 -0.4163 -0.2451  0.2769
16187TIP3    H170052   6.943   5.706   3.643  0.0434 -0.8152 -0.5824
16187TIP3    H270053   7.088   5.667   3.657 -0.2946 -0.7302  4.0338
16188TIP3   OH270054   0.765   0.528   4.053  0.8452  0.3478  0.0256
16188TIP3    H170055   0.742   0.583   4.128 -2.7977 -1.5319  0.4124
16188TIP3    H270056   0.697   0.461   4.052  1.1205  0.0313 -4.7055
16189TIP3   OH270057   0.341   1.693   2.007  0.1153  0.5037 -0.0905
16189TIP3    H170058   0.316   1.659   1.921 -1.3622 -1.1274  0.9598
16189TIP3    H270059   0.323   1.787   2.001 -2.1634  0.0494 -0.8338
16190TIP3   OH270060   1.003   5.580   2.080 -0.5977  0.5317  0.1619
16190TIP3    H170061   0.984   5.640   2.152 -0.1791  0.5256  0.2809
16190TIP3    H270062   0.935   5.597   2.016 -0.5823  1.0107  0.2727
16191TIP3   OH270063   1.125   6.848   3.062  0.3694  0.1773 -0.4158
16191TIP3    H170064   1.177   6.875   3.138  0.1591  1.5718 -0.7523
16191TIP3    H270065   1.186   6.854   2.988 -0.1486  1.3770 -0.7450
16192TIP3   OH270066   1.245   3.906   4.427 -0.0801  0.2127  0.5720
16192TIP3    H170067   1.278   3.953   4.350  0.4657 -0.1301  0.5942
16192TIP3    H270068   1.265   3.964   4.501  1.9939 -0.7178  0.7782
16193TIP3   OH270069   0.441   1.501   4.289  0.6247 -0.2715  0.2020
16193TIP3    H170070   0.400   1.581   4.256  0.8613  0.1082  0.8037
16193TIP3    H270071   0.377   1.463   4.349 -1.7516 -3.4578 -4.1040
16194TIP3   OH270072   6.252   2.036   0.150  0.7774 -0.5434 -0.1259
16194TIP3    H170073   6.311   2.068   0.082  1.4363 -1.6424 -0.0785
16194TIP3    H270074   6.200   1.968   0.107 -2.3359  2.1980 -0.9044
16195TIP3   OH270075   0.406   3.561   1.427  0.3398 -0.1623 -0.1855
16195TIP3    H170076   0.345   3.598   1.363 -1.2210 -0.2313  1.2325
16195TIP3    H270077   0.395   3.616   1.505  1.7713 -0.4522  0.2301
16196TIP3   OH270078   0.084   6.570   2.271 -0.2524  0.4195 -0.0046
16196TIP3    H170079   0.013   6.549   2.332  0.0959  2.7199  1.2780
16196TIP3    H270080   0.121   6.485   2.247 -0.6944 -0.5841  2.6497
16197TIP3   OH270081   6.260   0.651   3.380 -0.4072  0.0255  0.1602
16197TIP3    H170082   6.303   0.581   3.331 -1.0345 -1.1452  1.2123
16197TIP3    H270083   6.329   0.688   3.435  0.2798  1.3000 -1.5239
16198TIP3   OH270084   6.492   1.142   0.997 -0.3193 -0.6546  0.0110
16198TIP3    H170085   6.539   1.064   0.968  0.0241 -0.1803 -0.7419
16198TIP3    H270086   6.415   1.147   0.941 -0.5606 -0.6858  0.3387
16199TIP3   OH270087   2.396   6.034   2.076 -0.5215  0.2492  0.2573
16199TIP3    H170088   2.336   6.094   2.032 -0.7935  0.8419  1.4206
16199TIP3    H270089   2.438   6.087   2.144  2.5152  0.2796 -1.5350
16200TIP3   OH270090   0.533   5.652   2.118  0.3016 -0.3329  0.9771
16200TIP3    H170091   0.592   5.609   2.056  1.0024  1.2534  0.5219
16200TIP3    H270092   0.446   5.632   2.086  0.6697  0.7772 -0.7356
16201TIP3   OH270093   2.365   1.775   5.192 -0.3194  0.0899 -0.3235
16201TIP3    H170094   2.306   1.850   5.183  1.5825  1.7972  0.9885
16201TIP3    H270095   2.384   1.771   5.286  0.9316 -1.0096 -0.6133
16202TIP3   OH270096   0.594   0.562   4.568  0.3023  0.2745  0.3622
16202TIP3    H170097   0.522   0.498   4.572  1.1424 -0.7981 -1.2698
16202TIP3    H270098   0.553   0.645   4.593 -1.7147 -0.1445 -1.3735
16203TIP3   OH270099   7.041   4.673   0.177 -0.1070  0.3155 -0.0402
16203TIP3    H170100   7.130   4.705   0.171 -0.6554  1.9155  0.2119
16203TIP3    H270101   7.048   4.590   0.224  1.3307 -0.0061 -0.8070
16204TIP3   OH270102   0.629   5.017   0.316  0.2827 -0.1237 -0.3299
16204TIP3    H170103   0.557   5.072   0.347  1.3648  1.0921  0.0844
16204TIP3    H270104   0.648   4.958   0.390 -1.3595 -1.5700 -1.0405
16205TIP3   OH270105   0.495   6.283   2.584  0.2091 -0.1127 -0.0919
16205TIP3    H170106   0.577   6.245   2.551  1.7019  2.4862  0.4612
16205TIP3    H270107   0.508   6.287   2.679 -0.7233 -0.0693  0.0318
16206TIP3   OH270108   0.689   5.920   2.346  0.8252 -0.8259  0.6778
16206TIP3    H170109   0.705   6.015   2.342  1.2988 -0.9653 -1.2393
16206TIP3    H270110   0.612   5.907   2.290  1.3105 -1.6880  0.2091
16207TIP3   OH270111   0.597   6.690   1.603  0.5559  0.3693 -0.2072
16207TIP3    H170112   0.621   6.746   1.677  0.5570 -0.2922  0.2998
16207TIP3    H270113   0.678   6.676   1.555  0.8239 -0.2808  0.4176
16208TIP3   OH270114   0.068   6.963   3.804  0.6500 -0.1289 -0.4242
16208TIP3    H170115  -0.020   6.999   3.789  1.5418  2.6850  0.7374
16208TIP3    H270116   0.089   6.990   3.894  2.0034 -2.3154 -0.0541
16209TIP3   OH270117   6.325   0.332   2.184 -0.8354 -0.2303 -0.1378
16209TIP3    H170118   6.351   0.247   2.150 -2.6240 -0.9815  0.3344
16209TIP3    H270119   6.326   0.390   2.107  2.0128 -0.2445 -0.1675
16210TIP3   OH270120   7.328   0.134   2.811 -0.1765 -0.0469  0.7518
16210TIP3    H170121   7.417   0.103   2.825 -0.5980 -0.7910  1.9080
16210TIP3    H270122   7.336   0.200   2.742  0.8974 -1.9587 -1.0315
16211TIP3   OH270123   6.941   1.373   4.877 -0.0104 -0.4221  0.0525
16211TIP3    H170124   6.962   1.376   4.783  1.9348 -0.8487  0.4654
16211TIP3    H270125   6.909   1.461   4.897  1.8801  0.4041 -0.4816
16212TIP3   OH270126   0.739   5.807   2.801 -0.3817 -0.4933 -0.0741
16212TIP3    H170127   0.775   5.853   2.876 -0.2896  1.4731 -1.3041
16212TIP3    H270128   0.650   5.783   2.828 -0.5712  0.7648  0.4225
16213TIP3   OH270129   1.727   4.875   4.501 -0.2875 -0.4375 -0.0645
16213TIP3    H170130   1.774   4.871   4.584  0.6573 -1.3082 -0.6356
16213TIP3    H270131   1.721   4.968   4.480 -0.6085 -0.2129  1.0162
16214TIP3   OH270132   0.293   2.200   2.164 -0.4712  0.6972 -0.0824
16214TIP3    H170133   0.294   2.113   2.203  0.7837  0.5539 -0.4109
16214TIP3    H270134   0.346   2.253   2.224 -2.0019  1.4661  0.6183
16215TIP3   OH270135   2.070   3.803   2.266  0.0255  0.2094 -0.4412
16215TIP3    H170136   2.110   3.736   2.321  0.2306 -0.4207 -1.3337
16215TIP3    H270137   2.137   3.823   2.201  0.1014  1.5720  0.0605
16216TIP3   OH270138   2.935   6.635   2.251 -0.3014  0.3823 -0.0103
16216TIP3    H170139   3.004   6.589   2.300  1.5632  0.0073 -2.8589
16216TIP3    H270140   2.971   6.723   2.235 -0.8694  0.4899 -0.7391
16217TIP3   OH270141   2.408   0.792   3.340 -0.2040 -0.2590  0.2535
16217TIP3    H170142   2.459   0.719   3.305  0.2461  0.3437 -0.3585
16217TIP3    H270143   2.411   0.780   3.435 -0.9238 -1.5590  0.1215
16218TIP3   OH270144   7.117   2.347   2.644 -0.2839 -0.0503 -0.5583
16218TIP3    H170145   7.057   2.377   2.575 -1.7260 -0.4063  0.5234
16218TIP3    H270146   7.060   2.320   2.716  1.2144  0.7730  0.9809
16219TIP3   OH270147   0.888   6.141  15.009  0.7732 -0.0692 -0.4780
16219TIP3    H170148   0.841   6.223  15.023 -0.0044 -0.6833  0.6729
16219TIP3    H270149   0.980   6.165  15.011  0.6006  0.5696  1.4051
16220TIP3   OH270150   0.262   7.028   3.640 -0.5245 -0.0288 -0.1325
16220TIP3    H170151   0.253   7.123   3.630  2.5576  0.5992  2.1854
16220TIP3    H270152   0.188   7.003   3.695 -0.4288  1.3073  0.6375
16221TIP3   OH270153   6.121   0.414   2.351  0.2622  0.9756 -0.1547
16221TIP3    H170154   6.162   0.480   2.407  2.0817  0.1821 -0.5216
16221TIP3    H270155   6.187   0.396   2.284 -1.0292  0.2887 -1.2636
16222TIP3   OH270156   0.530   4.855   4.101 -0.0100  0.0641  0.2009
16222TIP3    H170157   0.531   4.849   4.197  3.4035 -0.2003  0.2203
16222TIP3    H270158   0.505   4.768   4.071 -4.0129  0.9174  0.8112
16223TIP3   OH270159   0.405   1.724   0.600 -0.0334  0.4110 -0.1062
16223TIP3    H170160   0.458   1.694   0.526 -1.1006  1.1316 -1.1754
16223TIP3    H270161   0.333   1.661   0.604  0.5535 -0.2039  0.9541
16224TIP3   OH270162   1.153   5.938   2.076  0.1206 -0.0060  0.3115
16224TIP3    H170163   1.157   5.850   2.112 -2.0310 -0.5326 -0.6425
16224TIP3    H270164   1.201   5.931   1.993 -0.4119 -0.3882  0.0326
16225TIP3   OH270165   4.040   2.036   1.029 -0.1236 -0.2673 -0.0432
16225TIP3    H170166   4.007   2.022   1.118  0.0544  0.5629  0.1602
16225TIP3    H270167   4.119   1.981   1.025 -0.6281 -1.0033  0.0072
16226TIP3   OH270168   6.732   0.050   6.405 -0.1624  0.2282 -0.3013
16226TIP3    H170169   6.778   0.013   6.330 -0.2197 -0.7346  0.1351
16226TIP3    H270170   6.802   0.077   6.465 -0.1135  1.0930 -0.7313
16227TIP3   OH270171   2.588   0.220   1.437  0.1111  0.1919 -0.0962
16227TIP3    H170172   2.672   0.266   1.436  0.1602  0.1582  1.6915
16227TIP3    H270173   2.583   0.177   1.352  1.7857  0.3998 -0.3047
16228TIP3   OH270174   7.192   1.533   4.199 -0.1821 -0.3746 -0.3748
16228TIP3    H170175   7.156   1.494   4.119 -0.6294 -0.2508 -0.2358
16228TIP3    H270176   7.152   1.482   4.270 -0.5514  0.1506 -0.2006
16229TIP3   OH270177   1.061   4.833   3.677  0.5205  0.3787 -0.4342
16229TIP3    H170178   1.089   4.819   3.768  0.0442  1.4171 -0.1241
16229TIP3    H270179   0.972   4.796   3.674 -0.0207  1.6135 -0.0931
16230TIP3   OH270180   2.240   7.068  15.741  0.2458 -0.6735 -0.2019
16230TIP3    H170181   2.291   7.127  15.686  2.1251 -0.8694  1.2730
16230TIP3    H270182   2.236   6.987  15.690  0.0393 -0.1595 -1.0194
16231TIP3   OH270183   7.249   6.517   1.532 -0.4509 -0.1126 -0.4303
16231TIP3    H170184   7.332   6.501   1.487 -1.2996 -0.0950 -2.0311
16231TIP3    H270185   7.254   6.462   1.611  0.2126 -1.6957 -1.5529
16232TIP3   OH270186   7.159   5.048   1.084 -0.0176  0.2437  0.1413
16232TIP3    H170187   7.245   5.091   1.082  0.5552 -0.8085  1.7950
16232TIP3    H270188   7.110   5.096   1.150  0.4418 -1.2943  1.6113
16233TIP3   OH270189   6.941   6.583   4.083  0.1587 -0.1190 -0.0183
16233TIP3    H170190   6.952   6.676   4.102  0.4964  0.0496 -0.9784
16233TIP3    H270191   7.029   6.553   4.058  0.3275 -1.0199  1.6109
16234TIP3   OH270192   0.285   5.156   2.927  0.4448  0.1786 -0.7933
16234TIP3    H170193   0.193   5.171   2.950  0.4586  0.4947 -0.9381
16234TIP3    H270194   0.301   5.216   2.854  1.2443  1.3946  0.3514
16235TIP3   OH270195   1.160   6.041   2.876  0.0634  0.4495 -0.0965
16235TIP3    H170196   1.069   6.058   2.850 -0.6740  1.2446  2.8475
16235TIP3    H270197   1.168   6.080   2.963  3.3999  0.8669 -0.5281
16236TIP3   OH270198   0.126   0.143   3.253 -0.6964 -0.7119 -0.2683
16236TIP3    H170199   0.201   0.186   3.293 -1.0656  0.9496 -1.3224
16236TIP3    H270200   0.062   0.135   3.324 -0.5049  0.1986  0.0078
16237TIP3   OH270201   1.338   5.883   3.303 -0.5519 -0.2796 -0.2068
16237TIP3    H170202   1.365   5.887   3.211  0.4983 -2.4031 -0.0066
16237TIP3    H270203   1.317   5.974   3.325  2.1474  0.7801 -1.6878
16238TIP3   OH270204   1.022   6.186   2.177  0.0858  0.2905 -0.6975
16238TIP3    H170205   1.068   6.239   2.112 -1.3502  0.0478 -1.9432
16238TIP3    H270206   1.052   6.097   2.161  0.2579  0.3211 -0.5514
16239TIP3   OH270207   0.626   4.775   3.175  0.1247  0.0928 -0.6125
16239TIP3    H170208   0.719   4.761   3.156  0.1206  0.2904 -0.7768
16239TIP3    H270209   0.611   4.868   3.158 -0.8775 -0.5818 -3.9064
16240TIP3   OH270210   6.510   4.606   3.877  0.1860 -0.5706  0.3333
16240TIP3    H170211   6.508   4.512   3.859  0.4017 -0.4908 -0.1331
16240TIP3    H270212   6.420   4.635   3.863  0.1157 -0.7124  0.4961
16241TIP3   OH270213   3.661   5.602   2.535  0.1338 -0.4477 -0.2431
16241TIP3    H170214   3.643   5.537   2.603  1.6355 -0.9534 -0.3176
16241TIP3    H270215   3.753   5.590   2.513 -0.3447 -0.3524 -2.4570
16242TIP3   OH270216   0.527   5.930   2.045 -0.2401  0.1250 -0.6000
16242TIP3    H170217   0.583   5.925   1.967 -0.2005 -0.0547 -0.5593
16242TIP3    H270218   0.524   5.841   2.078 -0.0872  0.2380 -0.2729
16243TIP3   OH270219   2.321   3.736   3.328  0.1598  0.9334 -0.1101
16243TIP3    H170220   2.231   3.721   3.298  0.7033 -0.4584 -1.0750
16243TIP3    H270221   2.370   3.659   3.299  1.5486  1.3899  0.9431
16244TIP3   OH270222   7.182   6.515   3.970  0.1553 -0.1459  0.5317
16244TIP3    H170223   7.230   6.515   4.053  0.1098  0.3576  0.5621
16244TIP3    H270224   7.251   6.516   3.903  0.1948  0.4321  0.5742
16245TIP3   OH270225   0.542   5.572   2.387  0.3458  0.3395  0.3319
16245TIP3    H170226   0.628   5.540   2.413  1.0654  0.9086 -1.2883
16245TIP3    H270227   0.551   5.594   2.295 -1.2074  1.5515  0.4371
16246TIP3   OH270228   1.410   5.257   3.928  0.0072 -0.1082  0.4099
16246TIP3    H170229   1.486   5.228   3.980  0.9338  1.2240 -0.1761
16246TIP3    H270230   1.438   5.248   3.837 -1.5939 -2.3656  0.1142
16247TIP3   OH270231   0.468   5.069   4.640 -0.2213 -0.4725 -0.3136
16247TIP3    H170232   0.483   4.982   4.678 -0.9575 -0.3455  0.2777
16247TIP3    H270233   0.495   5.130   4.708 -1.7391 -0.2417  0.0982
16248TIP3   OH270234   1.527   6.191   2.777  0.4914  0.1667  0.3065
16248TIP3    H170235   1.444   6.220   2.737 -0.2348 -0.2974  1.4594
16248TIP3    H270236   1.585   6.267   2.770 -0.2741  0.7434  0.1625
16249TIP3   OH270237   2.057   3.449   4.267 -0.2841 -0.1951  0.2110
16249TIP3    H170238   2.109   3.402   4.332 -2.1735  2.0719  3.5367
16249TIP3    H270239   1.973   3.401   4.265 -0.4966  0.1876 -0.0111
16250TIP3   OH270240   0.336   4.213   2.447  0.4968  0.5054 -0.0321
16250TIP3    H170241   0.390   4.240   2.522  1.3587 -1.0413 -0.0628
16250TIP3    H270242   0.327   4.291   2.394  1.3931  1.1786  0.7897
16251TIP3   OH270243   0.859   5.869   2.567  0.0426  0.3261 -0.1429
16251TIP3    H170244   0.797   5.913   2.509 -0.6040  0.3097  0.5372
16251TIP3    H270245   0.805   5.833   2.637  0.6860 -0.6396 -0.1286
16252TIP3   OH270246   0.209   7.044   4.911  0.0710  0.1815  0.4996
16252TIP3    H170247   0.253   6.960   4.913 -0.7226 -0.2602 -0.2693
16252TIP3    H270248   0.258   7.096   4.848 -0.6748 -0.4144 -0.5927
16253TIP3   OH270249   1.910   4.943   3.342  0.1985  0.1517  0.0884
16253TIP3    H170250   1.992   4.925   3.388 -0.8759 -1.3026  1.5142
16253TIP3    H270251   1.902   4.874   3.277  0.2130  0.4132 -0.1917
16254TIP3   OH270252   1.282   6.942   0.717  0.4932 -0.2439 -0.1025
16254TIP3    H170253   1.228   6.872   0.681  0.4368 -1.3782  2.1376
16254TIP3    H270254   1.222   6.992   0.773  1.5608 -1.0218  1.7497
16255TIP3   OH270255   5.761   6.679   2.829 -0.4892  0.2055  0.8726
16255TIP3    H170256   5.827   6.619   2.864 -1.6911 -2.6283 -1.5672
16255TIP3    H270257   5.696   6.623   2.787 -3.3237  3.0416  1.2104
16256TIP3   OH270258   1.861   1.264   4.012  0.1684 -0.6551 -0.0731
16256TIP3    H170259   1.885   1.178   3.976 -0.0379 -0.6481 -0.2256
16256TIP3    H270260   1.841   1.248   4.104 -0.9063 -0.9465 -0.3565
16257TIP3   OH270261   2.077   5.882  15.963 -0.4973  0.7397  0.3457
16257TIP3    H170262   2.001   5.854  16.014  0.5590  0.8655  2.0142
16257TIP3    H270263   2.153   5.852  16.013  0.6016  3.1039  0.1667
16258TIP3   OH270264   6.952   6.909   4.261 -0.5398 -0.1588 -0.0626
16258TIP3    H170265   7.028   6.927   4.317 -1.3606 -2.5779  1.8993
16258TIP3    H270266   6.974   6.952   4.178  1.1944  2.5712  1.6960
16259TIP3   OH270267   7.178   0.995   2.529 -0.2413 -0.1314  0.8481
16259TIP3    H170268   7.111   0.968   2.466  1.0593 -0.0708 -0.5942
16259TIP3    H270269   7.216   0.912   2.560  2.5136 -0.0852 -2.2193
16260TIP3   OH270270   5.309   0.350   0.142 -0.3530 -0.1222 -0.3512
16260TIP3    H170271   5.331   0.298   0.065  0.1593  1.3923 -1.2261
16260TIP3    H270272   5.373   0.322   0.208 -0.5036 -1.0852 -0.5950
16261TIP3   OH270273   5.581   6.402   3.006 -0.4065  0.1406  0.3470
16261TIP3    H170274   5.487   6.412   2.991 -0.7501  0.6712  2.6668
16261TIP3    H270275   5.612   6.353   2.930 -2.1520  1.8999 -1.5664
16262TIP3   OH270276   1.469   6.439   4.433 -0.1427  0.0857 -0.0204
16262TIP3    H170277   1.383   6.398   4.433 -0.0226 -0.1684 -0.8239
16262TIP3    H270278   1.496   6.439   4.341  1.0983 -0.6439  0.3281
16263TIP3   OH270279   1.190   2.293   2.714 -0.3852  0.4751 -0.0249
16263TIP3    H170280   1.259   2.358   2.727 -1.4069  1.5346  0.2017
16263TIP3    H270281   1.208   2.257   2.627  0.3613  0.8564 -0.0354
16264TIP3   OH270282   1.775   6.827   3.073  0.5411 -0.0587  0.0726
16264TIP3    H170283   1.760   6.748   3.124 -0.4543 -0.1679 -0.3692
16264TIP3    H270284   1.852   6.808   3.020  0.1412 -0.8400 -0.2330
16265TIP3   OH270285   0.121   5.123   2.661 -0.2721  0.0973  0.1400
16265TIP3    H170286   0.200   5.124   2.608 -0.3816  0.7639 -0.0177
16265TIP3    H270287   0.067   5.193   2.624 -0.8614 -0.2430  0.3533
16266TIP3   OH270288   1.732   6.044   2.553  0.6407 -0.2668  0.2675
16266TIP3    H170289   1.761   5.953   2.563  1.6699  0.0038 -0.2125
16266TIP3    H270290   1.655   6.051   2.610  0.9430 -1.2636  0.8109
16267TIP3   OH270291   7.206   5.555   3.537 -0.4965 -0.4442 -0.0414
16267TIP3    H170292   7.256   5.591   3.464  0.2649  0.1195  0.7457
16267TIP3    H270293   7.267   5.496   3.581 -1.1098 -1.1645 -0.1587
16268TIP3   OH270294   1.474   6.046   5.669 -0.1782  0.1821 -0.1996
16268TIP3    H170295   1.451   6.105   5.741 -0.8646  1.7271 -1.6442
16268TIP3    H270296   1.396   6.044   5.614  0.8521  0.1829 -1.6846
16269TIP3   OH270297   0.765   5.257   3.145  0.2948 -0.7912 -0.2336
16269TIP3    H170298   0.817   5.251   3.065  0.3031 -1.0294 -0.2085
16269TIP3    H270299   0.709   5.334   3.131 -1.2737 -2.1108 -1.3842
16270TIP3   OH270300   6.647   7.153   3.312 -0.3369  0.0259 -0.0502
16270TIP3    H170301   6.593   7.198   3.248 -0.3186  1.5281  0.9747
16270TIP3    H270302   6.592   7.145   3.390  1.0170  1.9795  1.1657
16271TIP3   OH270303   4.850   0.419   2.670 -0.6728 -0.1031 -0.0688
16271TIP3    H170304   4.934   0.452   2.638  0.2158  0.8186  3.0871
16271TIP3    H270305   4.819   0.361   2.600  2.9688 -1.1610 -0.9101
16272TIP3   OH270306   3.640   5.190   4.295 -0.3660  0.2022  0.1381
16272TIP3    H170307   3.699   5.265   4.288  0.2667 -0.0505  2.3095
16272TIP3    H270308   3.667   5.131   4.225  2.9561 -0.5417  1.9359
16273TIP3   OH270309   0.921   5.168   2.206 -0.5474 -0.6587 -0.4277
16273TIP3    H170310   1.005   5.130   2.183 -0.0811  1.1407 -1.8550
16273TIP3    H270311   0.872   5.170   2.123 -1.5705 -0.6784  0.1630
16274TIP3   OH270312   0.710   4.941   0.946 -0.2992 -0.3365 -1.2919
16274TIP3    H170313   0.783   4.964   1.002 -0.4560 -0.7044 -0.9367
16274TIP3    H270314   0.727   4.987   0.864  0.6794 -0.9565 -1.4393
16275TIP3   OH270315   0.355   4.269   4.064  0.1086  0.2298  0.0190
16275TIP3    H170316   0.342   4.356   4.025 -1.0316  0.3042  0.5452
16275TIP3    H270317   0.343   4.208   3.991 -0.3654  0.4432 -0.0789
16276TIP3   OH270318   0.959   0.168   1.499  0.1998  0.1220  0.1645
16276TIP3    H170319   0.997   0.243   1.544 -1.4582  0.1024  1.6603
16276TIP3    H270320   0.966   0.096   1.562 -1.5129 -0.0701  0.1589
16277TIP3   OH270321   0.341   6.741   3.603  0.2605  0.1968 -0.0750
16277TIP3    H170322   0.288   6.735   3.683 -0.6721  0.3122 -0.6859
16277TIP3    H270323   0.349   6.836   3.588 -2.5643  0.1731 -2.0930
16278TIP3   OH270324   7.207   5.006   2.292  0.1271  0.3658 -0.4447
16278TIP3    H170325   7.184   4.965   2.375  0.4073  2.1365  0.5303
16278TIP3    H270326   7.293   5.046   2.307  0.0345  0.9931 -1.4882
16279TIP3   OH270327   0.692   6.612   2.755  0.2557  0.2064 -0.0141
16279TIP3    H170328   0.608   6.586   2.717 -1.7961  2.0850  3.0625
16279TIP3    H270329   0.742   6.531   2.760 -2.1376 -1.3219 -0.0158
16280TIP3   OH270330   5.669   6.550   1.899  0.1203 -0.7125 -0.9029
16280TIP3    H170331   5.621   6.595   1.830  1.3589  0.4978 -1.0115
16280TIP3    H270332   5.641   6.593   1.980  2.3819  1.3094 -1.1357
16281TIP3   OH270333   1.116   4.280   2.948  0.4253 -0.2513 -0.0358
16281TIP3    H170334   1.049   4.339   2.914  1.0970  0.1201 -0.7109
16281TIP3    H270335   1.073   4.235   3.021 -0.5449  0.0146 -0.4375
16282TIP3   OH270336   0.461   6.545   2.588  0.2664 -0.1888 -0.1899
16282TIP3    H170337   0.472   6.452   2.566  2.3575  0.1113 -0.5261
16282TIP3    H270338   0.371   6.551   2.621 -0.4562 -2.0204 -1.6910
16283TIP3   OH270339   0.532   4.719   3.553  0.2843 -0.1613 -0.1838
16283TIP3    H170340   0.483   4.796   3.583  2.2441  1.5352 -1.2759
16283TIP3    H270341   0.487   4.692   3.473 -0.9958 -0.7683  0.7191
16284TIP3   OH270342   1.915   7.080   3.620 -0.5183 -0.8129 -0.3801
16284TIP3    H170343   1.865   7.051   3.696  0.4051 -1.0561  0.1428
16284TIP3    H270344   1.991   7.021   3.617 -0.3828 -0.6014 -1.2989
16285TIP3   OH270345   0.714   6.306   3.330 -0.4870 -0.1689 -0.3113
16285TIP3    H170346   0.751   6.268   3.250 -0.0180 -0.3520 -0.0105
16285TIP3    H270347   0.622   6.283   3.328 -0.3771 -0.5827 -0.5634
16286TIP3   OH270348   6.892   3.413   3.558  0.5923 -0.2493 -0.1791
16286TIP3    H170349   6.901   3.392   3.651 -0.8819 -0.4435 -0.0614
16286TIP3    H270350   6.822   3.354   3.527 -0.4091  1.2887 -0.9023
16287TIP3   OH270351   1.722   6.706   4.902  0.3503  0.3001 -0.1611
16287TIP3    H170352   1.695   6.727   4.813  0.0591  0.4419 -0.0430
16287TIP3    H270353   1.759   6.618   4.896 -0.1958  0.0749 -0.3245
16288TIP3   OH270354   1.747   4.561   0.528 -0.3587  0.5307 -0.3207
16288TIP3    H170355   1.737   4.580   0.621  2.0747  2.0240 -0.3044
16288TIP3    H270356   1.764   4.467   0.524  0.3661  0.5904  0.8556
16289TIP3   OH270357   7.241   6.878   1.373  0.1700 -0.5449 -0.1984
16289TIP3    H170358   7.237   6.796   1.422  1.7373  0.6980  2.1081
16289TIP3    H270359   7.326   6.876   1.329  0.5998  0.1703  0.5611
16290TIP3   OH270360   0.265   5.510   2.380 -0.0488 -0.6453  0.1249
16290TIP3    H170361   0.354   5.545   2.380 -0.1328 -0.4119  0.8672
16290TIP3    H270362   0.244   5.495   2.288  0.2143  0.6862 -0.1479
16291TIP3   OH270363   1.746   5.096   2.884  0.7290 -0.2890 -0.0925
16291TIP3    H170364   1.685   5.161   2.851  1.2929  0.8513  1.0489
16291TIP3    H270365   1.828   5.114   2.839  0.7315 -0.6075 -0.2214
16292TIP3   OH270366   1.021   5.865   5.128 -0.0892 -0.1002  0.2868
16292TIP3    H170367   0.986   5.952   5.110  1.3209  0.3347 -0.4249
16292TIP3    H270368   1.110   5.880   5.158 -0.1255 -1.2571  1.0142
16293TIP3   OH270369   1.070   6.807   4.776 -0.6009  0.1111 -0.9121
16293TIP3    H170370   1.161   6.780   4.785 -0.5462  0.7126  0.3789
16293TIP3    H270371   1.038   6.818   4.865 -1.6470  0.8861 -1.3621
16294TIP3   OH270372   0.640   6.656   5.172  0.0756  0.4510  0.0885
16294TIP3    H170373   0.724   6.661   5.219  0.4173  0.5691 -0.5309
16294TIP3    H270374   0.649   6.717   5.100 -0.4403  0.2457 -0.1515
16295TIP3   OH270375   0.280   6.415   5.184  0.2517 -0.2741 -0.1176
16295TIP3    H170376   0.366   6.398   5.222 -0.1771 -1.1425  0.4858
16295TIP3    H270377   0.287   6.382   5.094  0.2513 -1.2404  0.2323
16296TIP3   OH270378   1.546   7.161   1.756  0.1390 -0.2996  0.5344
16296TIP3    H170379   1.463   7.200   1.729 -0.5626  0.2702  3.3797
16296TIP3    H270380   1.608   7.234   1.755  0.5526 -0.6550 -1.2554
16297TIP3   OH270381   3.278   5.665   3.721  0.4641 -0.3555 -0.0261
16297TIP3    H170382   3.231   5.635   3.799  0.4430 -0.3657 -0.0430
16297TIP3    H270383   3.211   5.672   3.653  0.7762 -2.1731 -0.5530
16298TIP3   OH270384   0.984   5.168   1.541  0.5908  0.3866 -0.1166
16298TIP3    H170385   1.035   5.088   1.551  1.2817  0.7670 -0.5996
16298TIP3    H270386   1.034   5.222   1.479  0.4260  1.4294  0.6324
16299TIP3   OH270387   2.966   1.986   0.773 -0.4932  0.4922  0.2452
16299TIP3    H170388   2.974   1.934   0.853  1.2365 -0.6546 -0.6323
16299TIP3    H270389   2.921   1.928   0.711 -0.5010  0.8233 -0.0622
16300TIP3   OH270390   1.885   5.286   3.141 -0.2223 -0.0823  0.4627
16300TIP3    H170391   1.898   5.218   3.208 -0.0227 -1.4829 -0.9726
16300TIP3    H270392   1.796   5.271   3.110 -0.2678  0.4878  0.3225
16301TIP3   OH270393   2.539   7.308   5.188 -0.0258 -0.2401 -0.3384
16301TIP3    H170394   2.541   7.338   5.097 -1.3895 -3.1740 -1.4032
16301TIP3    H270395   2.450   7.275   5.200  0.9219 -2.3471  1.2246
16302TIP3   OH270396   2.813   5.313   3.445 -0.3472  0.4344  0.0517
16302TIP3    H170397   2.758   5.293   3.369 -0.5242  0.2244  0.2314
16302TIP3    H270398   2.755   5.362   3.504 -0.0576  1.0632 -0.1758
16303TIP3   OH270399   2.526   5.811   3.342 -0.3196  0.0841 -0.3864
16303TIP3    H170400   2.595   5.851   3.395  1.1525  3.5046 -4.5678
16303TIP3    H270401   2.518   5.722   3.376  3.1645  0.9242  2.9925
16304TIP3   OH270402   1.181   4.762   3.433  0.8582  0.0419 -0.1984
16304TIP3    H170403   1.146   4.784   3.519 -0.9819  0.5264 -1.0548
16304TIP3    H270404   1.232   4.839   3.407  0.1421  0.5121 -0.2045
16305TIP3   OH270405   4.465   1.245   2.913 -0.8331  0.4612  0.4443
16305TIP3    H170406   4.559   1.228   2.909 -0.8461  0.2581  0.9154
16305TIP3    H270407   4.450   1.316   2.852 -0.6779 -0.8541 -1.1617
16306TIP3   OH270408   4.499   4.908   3.858 -0.0897 -0.1997  0.3269
16306TIP3    H170409   4.469   4.998   3.870 -0.3212  0.0358 -1.7450
16306TIP3    H270410   4.419   4.855   3.865 -0.1619 -0.1036  0.2390
16307TIP3   OH270411   1.819   5.670   2.350 -0.2529 -0.0919 -0.2084
16307TIP3    H170412   1.826   5.593   2.406  0.7768 -0.2342 -0.5270
16307TIP3    H270413   1.733   5.661   2.308 -0.1626 -1.0459 -0.2108
16308TIP3   OH270414   1.167   7.056   4.436  0.0487  0.3434 -0.5229
16308TIP3    H170415   1.073   7.044   4.448  0.0585 -1.0579 -1.7189
16308TIP3    H270416   1.180   7.050   4.341  1.5910 -1.3011 -0.2265
16309TIP3   OH270417   3.532   7.057   3.081 -0.3776  0.3904 -0.0916
16309TIP3    H170418   3.492   7.018   3.003 -0.1008  0.5665 -0.3198
16309TIP3    H270419   3.564   6.982   3.131 -1.6031  0.2033  0.4237
16310TIP3   OH270420   5.059   5.382   3.101  0.3161  0.0920 -0.4810
16310TIP3    H170421   4.974   5.340   3.083 -0.4750  0.9350  1.1689
16310TIP3    H270422   5.092   5.336   3.178  0.2329  1.3583  0.3238
16311TIP3   OH270423   2.673   7.073   0.369  0.0457 -0.1706 -0.1951
16311TIP3    H170424   2.725   7.022   0.307 -0.1910  0.8871 -1.2803
16311TIP3    H270425   2.632   7.007   0.426  0.6740 -1.1212 -0.8273
16312TIP3   OH270426   2.626   0.883   2.670 -0.3372  0.5764 -0.3289
16312TIP3    H170427   2.652   0.800   2.709 -0.1321  0.8982  0.2194
16312TIP3    H270428   2.635   0.947   2.741  2.0420  1.5268 -1.4433
16313TIP3   OH270429   2.230   5.603   2.415  0.1239 -0.5256 -0.3582
16313TIP3    H170430   2.311   5.622   2.462 -0.7142  1.2670  0.4121
16313TIP3    H270431   2.171   5.568   2.482 -0.6874  0.9379 -0.2876
16314TIP3   OH270432   3.796   5.998   2.992  0.4155 -0.7540  0.1741
16314TIP3    H170433   3.823   5.924   2.937  0.2826 -0.5641 -0.1534
16314TIP3    H270434   3.875   6.024   3.039  0.3440 -1.4163  0.6526
16315TIP3   OH270435   1.544   6.505   2.488 -0.3223  0.5060 -0.4356
16315TIP3    H170436   1.533   6.592   2.451  0.5602  0.0212 -1.9228
16315TIP3    H270437   1.583   6.520   2.574  1.9827  1.5305 -1.5957
16316TIP3   OH270438   7.075   6.716   4.555 -0.6091 -0.2484 -0.3289
16316TIP3    H170439   7.021   6.661   4.612 -1.6132 -0.8975 -1.8938
16316TIP3    H270440   7.082   6.666   4.473 -0.0149  1.1378 -1.1323
16317TIP3   OH270441   1.739   4.397   2.722  0.2647  0.2355 -0.1827
16317TIP3    H170442   1.715   4.307   2.699  0.3173  0.2754 -0.3995
16317TIP3    H270443   1.751   4.395   2.817 -1.6710  0.4555  0.0888
16318TIP3   OH270444   5.279   1.384   5.081 -0.0149 -0.0538  0.0798
16318TIP3    H170445   5.369   1.406   5.055 -0.2840  0.7007 -0.2377
16318TIP3    H270446   5.285   1.364   5.174  0.3674  0.7338  0.2364
16319TIP3   OH270447   3.099   0.684   3.705  0.1460 -0.6727  0.3656
16319TIP3    H170448   3.172   0.697   3.766 -0.6110 -0.0261  1.1470
16319TIP3    H270449   3.097   0.589   3.691  1.1675 -0.6981  0.2892
16320TIP3   OH270450   0.983   4.533   1.897 -1.0291 -0.6336  0.0507
16320TIP3    H170451   0.998   4.532   1.991  3.9135 -0.2645 -0.5924
16320TIP3    H270452   1.018   4.618   1.868 -0.6662 -1.5667 -2.3382
16321TIP3   OH270453   4.238   5.549   3.557  0.2930 -0.2143 -0.5291
16321TIP3    H170454   4.265   5.637   3.583 -0.9959  0.1716 -0.4442
16321TIP3    H270455   4.170   5.563   3.491  0.7583 -1.1584 -1.2251
16322TIP3   OH270456   2.100   6.710   1.257  0.0651  0.3781  0.1503
16322TIP3    H170457   2.084   6.798   1.221  0.4305 -0.3261 -1.8218
16322TIP3    H270458   2.142   6.663   1.185  0.7937 -1.1200  1.5386
16323TIP3   OH270459   1.695   5.666   4.327  0.7224 -0.0217 -0.1886
16323TIP3    H170460   1.757   5.678   4.256  1.0991 -0.6796  0.0214
16323TIP3    H270461   1.639   5.594   4.299 -0.5063  1.1425 -0.7545
16324TIP3   OH270462   4.749   6.312   4.130  0.4324  0.3568 -0.0108
16324TIP3    H170463   4.733   6.260   4.051 -0.3873 -0.6495  0.7957
16324TIP3    H270464   4.724   6.401   4.106  1.4360  0.3217 -1.2830
16325TIP3   OH270465   4.017   5.300   4.245  0.5709 -0.0221  0.1001
16325TIP3    H170466   3.997   5.211   4.272  1.9888 -0.6600 -0.9120
16325TIP3    H270467   4.032   5.295   4.150 -2.1399  1.7968 -0.5038
16326TIP3   OH270468   4.853   6.614   4.722  0.1061 -0.1860  0.0794
16326TIP3    H170469   4.865   6.560   4.800  1.0002 -1.2978 -0.8057
16326TIP3    H270470   4.907   6.572   4.655 -1.9927 -0.2480 -1.6331
16327TIP3   OH270471   4.589   7.286   2.522 -0.1275  0.2268 -0.1055
16327TIP3    H170472   4.504   7.309   2.484  0.0455  0.5200 -0.3187
16327TIP3    H270473   4.585   7.191   2.534  0.0369  0.0483 -1.4064
16328TIP3   OH270474   3.021   5.715   2.699  0.1819  0.1783  0.6570
16328TIP3    H170475   3.049   5.759   2.619 -2.0506 -0.4619 -0.5118
16328TIP3    H270476   3.019   5.784   2.766  1.2763  0.8738 -0.0178
16329TIP3   OH270477   2.527   5.778   4.259  0.3391  0.4684  0.3703
16329TIP3    H170478   2.502   5.769   4.168  1.2355  0.7767  0.0830
16329TIP3    H270479   2.623   5.787   4.257  0.1762  2.7791  1.1531
16330TIP3   OH270480   1.762   6.406   4.196 -0.3021  0.5329 -0.6289
16330TIP3    H170481   1.667   6.413   4.181 -0.9107 -2.3482  1.3342
16330TIP3    H270482   1.777   6.459   4.274 -0.8717 -1.3240  0.7891
16331TIP3   OH270483   2.141   5.806   3.043 -0.5605  0.5326  0.0116
16331TIP3    H170484   2.084   5.848   3.107  0.0595 -0.2175  1.0602
16331TIP3    H270485   2.149   5.715   3.073 -0.9604 -0.0568 -1.6003
16332TIP3   OH270486   3.078   0.394   5.407 -0.4563 -0.5103 -0.0089
16332TIP3    H170487   3.050   0.415   5.319 -0.5836  0.6461  0.2969
16332TIP3    H270488   3.094   0.479   5.448  4.1856 -1.0719 -0.3962
16333TIP3   OH270489   0.206   6.664   3.949 -0.4596 -0.1608 -0.4169
16333TIP3    H170490   0.203   6.570   3.928 -2.0807  0.1678 -1.7225
16333TIP3    H270491   0.151   6.705   3.882 -0.0872  1.6859  0.3939
16334TIP3   OH270492   4.154   5.631   3.206  0.1838 -0.3754  0.1137
16334TIP3    H170493   4.102   5.622   3.286 -0.1229 -1.4753 -0.1914
16334TIP3    H270494   4.177   5.723   3.202 -0.9890 -0.0421  0.7347
16335TIP3   OH270495   2.553   0.208   3.921  0.1592 -0.2389 -0.2967
16335TIP3    H170496   2.519   0.223   4.010  0.4365 -1.4896  0.0345
16335TIP3    H270497   2.550   0.294   3.879  1.0738  0.5945  1.2884
16336TIP3   OH270498   4.124   0.506   1.942  0.0868  0.0958  0.4530
16336TIP3    H170499   4.113   0.415   1.913 -1.8276  0.9245 -1.6260
16336TIP3    H270500   4.067   0.515   2.018  0.7407 -0.5854  1.0306
16337TIP3   OH270501   6.577   6.520   4.186  0.4767 -0.0681 -0.0406
16337TIP3    H170502   6.570   6.546   4.094 -0.6209 -0.7272 -0.1561
16337TIP3    H270503   6.497   6.554   4.226  1.0249  0.3525  0.7088
16338TIP3   OH270504   1.926   6.854   2.227  0.8439  0.6288 -0.1945
16338TIP3    H170505   1.902   6.841   2.318 -0.5682  0.0829 -0.6300
16338TIP3    H270506   1.869   6.794   2.178  2.5507 -0.1192 -1.3341
16339TIP3   OH270507   1.584   4.971   2.349 -0.0532 -0.1048 -0.0789
16339TIP3    H170508   1.492   4.947   2.363 -0.4164  1.6758  0.6987
16339TIP3    H270509   1.612   4.915   2.276 -2.1749  0.3408 -1.2761
16340TIP3   OH270510   2.196   0.253   2.835 -0.0383 -0.1376  0.0009
16340TIP3    H170511   2.122   0.193   2.844 -0.4940  0.3822 -0.2284
16340TIP3    H270512   2.270   0.197   2.812  0.0561 -0.8918  2.0189
16341TIP3   OH270513   2.500   2.985   3.243 -0.4513  0.3706 -0.4764
16341TIP3    H170514   2.593   2.997   3.265 -0.2586 -1.1207 -0.4780
16341TIP3    H270515   2.471   2.911   3.296 -1.6137  0.7335 -0.5875
16342TIP3   OH270516   2.161   0.131   3.876  0.1216 -0.5157 -0.7566
16342TIP3    H170517   2.111   0.190   3.820  0.9624  0.6387 -0.3203
16342TIP3    H270518   2.177   0.182   3.956  0.7542 -1.3765 -0.3201
16343TIP3   OH270519   1.697   6.713   4.550  0.3443 -0.1536 -0.2988
16343TIP3    H170520   1.789   6.724   4.574 -0.0017  2.2925  0.0295
16343TIP3    H270521   1.696   6.725   4.455 -0.0562  3.2669  0.0773
16344TIP3   OH270522   2.162   0.363   1.928 -0.1240  0.1992 -0.1806
16344TIP3    H170523   2.198   0.318   2.003 -1.7164  0.2183  0.6182
16344TIP3    H270524   2.238   0.384   1.873  1.0827  0.4696  1.5592
16345TIP3   OH270525   3.381   6.317   4.205  0.4008 -0.9336 -0.5891
16345TIP3    H170526   3.398   6.327   4.299  0.3169  2.2521 -0.8525
16345TIP3    H270527   3.288   6.293   4.200 -0.1286  0.8626  0.1049
16346TIP3   OH270528   3.205   6.283   5.083  0.7202 -0.5053  0.3053
16346TIP3    H170529   3.290   6.324   5.070  1.5502 -1.6533  1.9127
16346TIP3    H270530   3.197   6.221   5.010  0.1298  1.3891 -1.2611
16347TIP3   OH270531   2.277   5.675   5.608  0.5447 -0.2641 -0.0016
16347TIP3    H170532   2.339   5.644   5.542  1.1348  0.2790  0.2958
16347TIP3    H270533   2.326   5.673   5.690  0.0487 -0.2103  0.2969
16348TIP3   OH270534   3.779   5.485   3.409 -0.0337 -0.8442 -0.3484
16348TIP3    H170535   3.689   5.463   3.386 -0.5389 -0.5288  1.2745
16348TIP3    H270536   3.804   5.420   3.475 -0.2461  1.0499  1.6841
16349TIP3   OH270537   4.291   5.722   1.440  0.0484 -0.5745 -0.0366
16349TIP3    H170538   4.284   5.674   1.522  0.6145 -0.0487  0.3193
16349TIP3    H270539   4.309   5.813   1.466  3.1309 -0.9342 -0.7894
16350TIP3   OH270540   4.763   6.708   0.726 -0.2764 -0.1416 -0.6443
16350TIP3    H170541   4.825   6.732   0.657 -0.8730  0.6834 -0.8915
16350TIP3    H270542   4.715   6.633   0.689 -1.3079  0.9483 -1.5437
16351TIP3   OH270543   2.220   4.630   2.191  0.3794 -0.0569  0.3377
16351TIP3    H170544   2.243   4.544   2.226 -2.5116 -0.7485  0.7401
16351TIP3    H270545   2.256   4.692   2.254  0.4375 -1.0839  1.3373
16352TIP3   OH270546   1.934   5.754   0.903 -0.4001  0.1701  0.0356
16352TIP3    H170547   2.026   5.736   0.923 -0.8494 -1.9751  0.2473
16352TIP3    H270548   1.892   5.668   0.903 -2.2246  1.0366 -1.0210
16353TIP3   OH270549   2.848   5.391  15.964 -0.0337 -0.1467  0.3232
16353TIP3    H170550   2.758   5.390  15.931  0.1474 -0.5512 -0.1622
16353TIP3    H270551   2.898   5.439  15.897  0.0546  0.3675  0.7504
16354TIP3   OH270552   2.493   5.891   1.191  0.4960  0.6526 -0.1781
16354TIP3    H170553   2.577   5.852   1.218 -0.2852 -0.5864  0.5657
16354TIP3    H270554   2.514   5.943   1.114  1.9615  0.3897  0.0204
16355TIP3   OH270555   2.203   5.876   2.362  0.2819  0.4224  0.0992
16355TIP3    H170556   2.255   5.796   2.371  1.2712  1.1406  0.7979
16355TIP3    H270557   2.176   5.876   2.270  0.6121 -0.5022 -0.0075
16356TIP3   OH270558   1.918   6.394   1.871  0.0988  0.0814  0.0533
16356TIP3    H170559   1.964   6.331   1.815 -1.2569  0.1534 -1.1697
16356TIP3    H270560   1.911   6.349   1.956  1.8842 -0.1547  0.1027
16357TIP3   OH270561   1.282   4.233   3.199  0.0965 -0.0420 -0.0026
16357TIP3    H170562   1.263   4.153   3.149  1.9499 -0.5885  0.1081
16357TIP3    H270563   1.306   4.298   3.133 -0.3555  0.1055 -0.0216
16358TIP3   OH270564   7.068   0.472   1.167  0.0765 -0.1204 -0.9651
16358TIP3    H170565   7.124   0.424   1.228 -0.8869  2.5453  2.1277
16358TIP3    H270566   6.990   0.417   1.158 -0.7975  0.5309  2.1391
16359TIP3   OH270567   1.597   6.960   3.319  0.8045  0.7068 -0.5814
16359TIP3    H170568   1.617   7.020   3.391 -0.9083  1.4194 -0.6861
16359TIP3    H270569   1.642   6.879   3.342  0.0988  0.8694  1.3916
16360TIP3   OH270570   3.103   6.503   0.164  0.6162  0.2317  0.2761
16360TIP3    H170571   3.009   6.520   0.166  0.7723  1.5410 -2.4026
16360TIP3    H270572   3.117   6.448   0.087  2.1740  0.9132  0.0503
16361TIP3   OH270573   2.655   5.114   3.592 -0.3337  0.4728  0.1795
16361TIP3    H170574   2.580   5.139   3.539  1.1393  2.2179 -1.1387
16361TIP3    H270575   2.684   5.195   3.633 -0.6394 -0.6223  2.6529
16362TIP3   OH270576   4.287   5.858   3.439 -0.0180 -0.1600 -0.6882
16362TIP3    H170577   4.283   5.898   3.353  1.1808  1.6395  0.0524
16362TIP3    H270578   4.205   5.884   3.482 -0.0848 -0.0548 -0.8801
16363TIP3   OH270579   1.520   5.908   0.747 -0.2059 -0.5410  0.5523
16363TIP3    H170580   1.427   5.923   0.767  0.0318  1.9362 -0.1724
16363TIP3    H270581   1.562   5.993   0.757  1.7024 -1.2731 -0.8314
16364TIP3   OH270582   2.795   0.942   3.480 -0.1925  0.5559  0.2513
16364TIP3    H170583   2.797   1.028   3.523  2.1082  0.6103  0.1122
16364TIP3    H270584   2.745   0.956   3.400 -1.2106  1.3766  1.0178
16365TIP3   OH270585   2.709   6.491   3.671  0.0291  0.1983  0.2515
16365TIP3    H170586   2.788   6.532   3.706  0.6462  0.4038 -1.3465
16365TIP3    H270587   2.667   6.561   3.620 -2.0288  0.5722  2.3507
16366TIP3   OH270588   2.962   0.651   2.172  0.0751  0.0038 -0.3188
16366TIP3    H170589   3.045   0.612   2.201 -0.4537  0.5640  2.1208
16366TIP3    H270590   2.896   0.613   2.230 -1.2668  0.1905 -1.6903
16367TIP3   OH270591   1.876   0.353   4.866 -0.1196  0.2081  0.6859
16367TIP3    H170592   1.805   0.404   4.827 -2.5642 -3.4856 -0.0427
16367TIP3    H270593   1.832   0.275   4.902  3.4446 -1.7177  1.0944
16368TIP3   OH270594   2.607   7.255   2.428  0.0516 -0.2911  0.2030
16368TIP3    H170595   2.573   7.326   2.483  0.2752  0.1273 -0.1932
16368TIP3    H270596   2.529   7.208   2.398 -0.0849 -0.3557  0.6511
16369TIP3   OH270597   2.391   7.318   4.242  0.2126 -0.2039 -0.5198
16369TIP3    H170598   2.421   7.228   4.253  0.1940 -0.3190 -1.4029
16369TIP3    H270599   2.382   7.351   4.331  1.9061 -0.5193 -0.2131
16370TIP3   OH270600   2.202   5.610   4.083  0.0042 -0.0149 -0.1083
16370TIP3    H170601   2.209   5.672   4.156 -1.8382  0.5041 -0.3475
16370TIP3    H270602   2.177   5.664   4.008 -1.2127 -0.9745 -0.4073
16371TIP3   OH270603   2.642   6.261   3.551  0.2657  0.6011 -0.0961
16371TIP3    H170604   2.562   6.284   3.503 -0.1741  1.4383  1.0067
16371TIP3    H270605   2.668   6.343   3.593  2.0273  0.4736 -0.8936
16372TIP3   OH270606   1.522   6.040   4.587 -0.4304 -0.0669 -0.4323
16372TIP3    H170607   1.532   6.134   4.604  1.3087 -0.3025 -0.0352
16372TIP3    H270608   1.610   6.004   4.600 -0.9275 -1.6413 -1.3126
16373TIP3   OH270609   3.437   6.943   1.741  0.4381 -0.6516  0.1560
16373TIP3    H170610   3.511   6.946   1.680 -0.1183  2.7226 -0.4556
16373TIP3    H270611   3.370   6.891   1.695  0.1859  1.4746 -1.9772
16374TIP3   OH270612   1.184   7.119   2.198  0.2103  0.0671 -0.3856
16374TIP3    H170613   1.191   7.207   2.162  1.4451 -0.4031 -1.3318
16374TIP3    H270614   1.269   7.103   2.239 -0.4954 -0.1616  1.0310
16375TIP3   OH270615   2.070   6.277   2.226  0.4709 -0.5875  0.1441
16375TIP3    H170616   2.115   6.246   2.147  1.5756  2.4051 -0.4946
16375TIP3    H270617   2.093   6.370   2.231 -1.5827 -0.1574  2.6477
16376TIP3   OH270618   0.380   4.943   5.062  0.0910 -0.1814 -0.3618
16376TIP3    H170619   0.317   4.877   5.093  1.2549 -0.7005  0.9325
16376TIP3    H270620   0.394   4.921   4.970 -0.2411 -1.1764 -0.1829
16377TIP3   OH270621   3.769   0.677   2.514  0.0546 -0.4434  0.0702
16377TIP3    H170622   3.767   0.594   2.563  0.5983 -0.2249  0.4709
16377TIP3    H270623   3.686   0.719   2.535 -1.0455 -1.7189 -1.6052
16378TIP3   OH270624   0.444   6.031   3.783 -0.0216 -0.3248  0.5696
16378TIP3    H170625   0.454   6.089   3.859  2.1320 -0.6379  0.5556
16378TIP3    H270626   0.350   6.031   3.766 -0.3045  1.4627  1.8985
16379TIP3   OH270627   3.136   6.091   4.905 -0.2266 -0.0908 -0.0754
16379TIP3    H170628   3.098   6.109   4.820  1.0509 -0.7036 -0.7889
16379TIP3    H270629   3.156   5.997   4.904  2.4138  0.4379 -0.1961
16380TIP3   OH270630   2.579   5.574   1.120  0.4650 -0.3197  0.2717
16380TIP3    H170631   2.606   5.513   1.189  0.8067 -2.4732 -1.7001
16380TIP3    H270632   2.502   5.532   1.080 -1.5940  2.3542  1.2695
16381TIP3   OH270633   3.798   5.751   2.228 -0.0143  0.4384  0.3236
16381TIP3    H170634   3.844   5.700   2.161  1.1329  1.5003  0.2947
16381TIP3    H270635   3.821   5.708   2.310 -0.3521 -0.0566  0.1664
16382TIP3   OH270636   3.833   0.889   3.356  0.3488 -0.6602 -0.1426
16382TIP3    H170637   3.779   0.879   3.278 -1.5829  0.9211  0.9405
16382TIP3    H270638   3.920   0.912   3.323 -0.2892 -0.6482 -1.8435
16383TIP3   OH270639   3.273   6.995   3.611  0.2428  0.0351 -0.1501
16383TIP3    H170640   3.184   6.977   3.581 -0.1896  0.0226  1.1302
16383TIP3    H270641   3.287   6.935   3.683  0.9878  0.6257  0.2080
16384TIP3   OH270642   2.631   6.623   3.436 -0.5218 -0.3266  0.3088
16384TIP3    H170643   2.688   6.558   3.397  0.3428  0.6085  0.0056
16384TIP3    H270644   2.585   6.663   3.362 -1.5051 -0.9937  0.5396
16385TIP3   OH270645   2.630   7.298   3.988 -0.2644 -0.0967 -0.0502
16385TIP3    H170646   2.595   7.231   3.929 -1.9947 -0.8074  1.7498
16385TIP3    H270647   2.587   7.379   3.960 -1.1327 -0.4428  0.2804
16386TIP3   OH270648   6.623   6.579   2.705 -0.6075  0.3712  0.0408
16386TIP3    H170649   6.699   6.526   2.682 -1.2964  0.0053 -1.4617
16386TIP3    H270650   6.551   6.542   2.654 -1.0995  2.7498 -1.0682
16387TIP3   OH270651   1.860   6.468   4.874  0.3067  0.0606  0.9880
16387TIP3    H170652   1.942   6.425   4.899  0.2567  0.4490  1.8569
16387TIP3    H270653   1.827   6.417   4.800  1.4356  0.0250  0.5035
16388TIP3   OH270654   1.858   7.200   4.061 -0.3259 -0.0900 -0.7248
16388TIP3    H170655   1.901   7.260   4.000 -2.5556  2.3183  0.0046
16388TIP3    H270656   1.908   7.208   4.142 -2.1965  2.8739  0.1942
16389TIP3   OH270657   1.411   4.473   2.574  0.1654 -0.4450  0.0670
16389TIP3    H170658   1.444   4.561   2.593 -2.0100 -0.0058  2.0629
16389TIP3    H270659   1.473   4.414   2.616 -0.0961  0.2598  1.4681
16390TIP3   OH270660   4.364   4.767   3.453 -0.1197 -0.3142  0.0688
16390TIP3    H170661   4.420   4.737   3.524 -0.4433  0.5453  0.6983
16390TIP3    H270662   4.402   4.851   3.426  1.0488 -1.4599 -1.9817
16391TIP3   OH270663   3.022   6.300   1.903 -0.3650 -0.6442  0.0602
16391TIP3    H170664   2.997   6.389   1.930  2.0235  1.1294 -3.1254
16391TIP3    H270665   2.944   6.248   1.918 -1.5568  1.7998  2.8811
16392TIP3   OH270666   6.974   7.180   4.262 -0.1423 -0.0212  0.3706
16392TIP3    H170667   6.910   7.182   4.191  1.0488 -0.4503 -0.7388
16392TIP3    H270668   6.929   7.137   4.334 -1.0735 -0.3895 -0.4250
16393TIP3   OH270669   4.727   6.198   3.874  1.2015  0.4902  0.0086
16393TIP3    H170670   4.771   6.155   3.801  2.6647 -0.4990  1.4426
16393TIP3    H270671   4.677   6.269   3.834  1.7799 -0.1964 -1.9682
16394TIP3   OH270672   1.173   4.964   3.097  0.6339 -0.9167  0.2466
16394TIP3    H170673   1.216   4.883   3.124  1.4007 -0.3922  0.6102
16394TIP3    H270674   1.118   4.938   3.023  1.6933 -1.5703 -0.3316
16395TIP3   OH270675   2.147   0.513   2.923 -0.4402  0.3111  0.2026
16395TIP3    H170676   2.150   0.418   2.913 -0.1895  0.3327  0.0724
16395TIP3    H270677   2.079   0.541   2.861 -0.4111  0.2301  0.1335
16396TIP3   OH270678   4.153   1.138   0.141 -0.2146  0.0977  0.3234
16396TIP3    H170679   4.188   1.085   0.212 -0.1015 -1.2242 -0.7015
16396TIP3    H270680   4.063   1.158   0.167 -1.9328 -4.6130 -1.3520
16397TIP3   OH270681   1.859   6.841   1.634  0.0801 -0.0802  0.2541
16397TIP3    H170682   1.941   6.799   1.661  0.1091 -0.3144 -0.1829
16397TIP3    H270683   1.793   6.807   1.695  0.7483  2.0762  2.2357
16398TIP3   OH270684   1.617   5.587   3.497 -0.3021  0.0387  0.1224
16398TIP3    H170685   1.657   5.627   3.575 -1.4909  1.7842 -0.1468
16398TIP3    H270686   1.524   5.607   3.505 -0.8628 -2.2601 -0.3009
16399TIP3   OH270687   4.397   0.971   4.170  0.0304 -0.0664  0.1841
16399TIP3    H170688   4.445   0.972   4.253 -1.5982 -2.7397  1.2485
16399TIP3    H270689   4.311   1.007   4.192  0.3895  1.4792 -0.9112
16400TIP3   OH270690   3.901   5.564   1.803  1.0487 -0.1803  0.1865
16400TIP3    H170691   3.973   5.626   1.796 -0.0023  0.8094 -2.5427
16400TIP3    H270692   3.878   5.565   1.896  2.7293  1.5750  0.6182
16401TIP3   OH270693   4.189   0.782   2.435  0.0888  0.2039 -0.4231
16401TIP3    H170694   4.244   0.839   2.382  0.0095 -0.2527 -1.0014
16401TIP3    H270695   4.113   0.836   2.458  0.3487  0.5493 -0.3754
16402TIP3   OH270696   2.276   4.458   2.782 -0.6026  0.1220 -0.0149
16402TIP3    H170697   2.240   4.503   2.859 -0.3141  1.9340 -0.9142
16402TIP3    H270698   2.367   4.486   2.778 -0.4047 -0.5908 -0.5656
16403TIP3   OH270699   6.790   6.444   3.421  0.1577 -0.2810  0.1307
16403TIP3    H170700   6.707   6.454   3.469 -1.2273  1.8499 -2.5772
16403TIP3    H270701   6.838   6.524   3.442 -0.5792  0.8112 -2.1362
16404TIP3   OH270702   3.223   6.787   1.614  0.2708 -0.0530 -0.1137
16404TIP3    H170703   3.178   6.869   1.594 -0.8035 -0.6590 -0.2189
16404TIP3    H270704   3.202   6.730   1.541 -1.3013 -1.3300  1.2758
16405TIP3   OH270705   1.751   2.477   2.385  0.9116 -0.4003  0.2688
16405TIP3    H170706   1.795   2.420   2.322  1.5362 -1.0784  1.2858
16405TIP3    H270707   1.796   2.459   2.468  0.3486  0.7384  0.8288
16406TIP3   OH270708   2.739   5.864   0.915  0.2160 -0.1579  0.2959
16406TIP3    H170709   2.669   5.925   0.938 -0.0902 -0.3901  0.0013
16406TIP3    H270710   2.759   5.883   0.824  2.8284  2.1223  1.2949
16407TIP3   OH270711   1.987   6.769   2.898  0.3793 -0.0303 -0.2772
16407TIP3    H170712   2.027   6.811   2.822  1.6068 -0.3658  0.1619
16407TIP3    H270713   2.047   6.698   2.920 -1.4670 -1.7587 -0.7571
16408TIP3   OH270714   4.572   5.921   4.420  0.2387  0.3295  0.6951
16408TIP3    H170715   4.551   5.956   4.333  1.1537  0.0493  0.3565
16408TIP3    H270716   4.492   5.932   4.470  0.3218  2.4592  0.4444
16409TIP3   OH270717   0.232   0.042   2.013 -0.5308 -0.4803  0.8040
16409TIP3    H170718   0.185   0.105   1.959  0.7015 -0.2351 -0.0041
16409TIP3    H270719   0.279   0.095   2.077  1.7007 -0.4323 -0.8105
16410TIP3   OH270720   1.459   5.512   2.356 -0.1359  0.2627  0.7209
16410TIP3    H170721   1.429   5.441   2.300 -0.1204  0.3840  0.5599
16410TIP3    H270722   1.506   5.571   2.298 -0.2216  0.4485  0.8384
16411TIP3   OH270723   2.730   3.589   3.095  0.1374 -0.3196 -0.0090
16411TIP3    H170724   2.752   3.551   3.010  0.2033  0.6546 -0.4334
16411TIP3    H270725   2.666   3.528   3.133 -0.5730 -0.3023 -1.1452
16412TIP3   OH270726   4.096   0.621   0.164 -0.1243 -0.1463 -0.2624
16412TIP3    H170727   4.144   0.556   0.112 -0.7279 -0.6853 -0.1530
16412TIP3    H270728   4.165   0.670   0.210  0.2713 -2.0214  1.2302
16413TIP3   OH270729   0.983   5.694   1.844 -0.1945  0.4411 -0.2243
16413TIP3    H170730   0.938   5.762   1.894 -1.3584 -0.4293 -0.0836
16413TIP3    H270731   1.061   5.738   1.810 -0.8255  1.7961  0.0397
16414TIP3   OH270732   1.723   6.161   1.792 -0.4044 -0.2573 -0.0940
16414TIP3    H170733   1.688   6.226   1.853  1.3920  0.5205  0.1534
16414TIP3    H270734   1.649   6.139   1.735 -1.1122  1.8548 -0.0369
16415TIP3   OH270735   2.127   0.432   3.780  0.9894  0.6795  0.4318
16415TIP3    H170736   2.209   0.406   3.738  0.3587 -1.1102  0.2767
16415TIP3    H270737   2.149   0.441   3.873  1.4951  0.8161  0.2995
16416TIP3   OH270738   2.654   6.397   1.643 -0.0503 -0.0240 -0.0714
16416TIP3    H170739   2.568   6.355   1.634 -1.2097  1.8094  1.9067
16416TIP3    H270740   2.684   6.372   1.730 -0.3765  2.4490  0.7944
16417TIP3   OH270741   0.770   6.594   3.097 -0.3235  0.1972  0.2538
16417TIP3    H170742   0.733   6.531   3.159  0.5676  0.1018  0.6942
16417TIP3    H270743   0.694   6.644   3.067 -0.8508 -0.1432  0.9830
16418TIP3   OH270744   7.324   2.234   2.107 -0.3977 -0.3127  0.4035
16418TIP3    H170745   7.340   2.256   2.015  0.9266  0.6221  0.8378
16418TIP3    H270746   7.409   2.205   2.140 -0.6183  0.3644  1.6072
16419TIP3   OH270747   3.042   7.266   3.183  0.8331  0.3536  0.5694
16419TIP3    H170748   2.949   7.258   3.164  1.1393 -0.2762 -0.7465
16419TIP3    H270749   3.085   7.214   3.115  2.2423  2.1166  0.0568
16420TIP3   OH270750   2.272   1.224   1.112 -0.8083 -0.3744  0.6145
16420TIP3    H170751   2.367   1.216   1.107 -0.7984 -0.6578  1.2586
16420TIP3    H270752   2.249   1.279   1.037  0.0127  0.8942  1.2796
16421TIP3   OH270753   1.413   6.308   3.351 -0.4704 -0.1235  0.0469
16421TIP3    H170754   1.402   6.360   3.271 -1.1095  0.0641  0.2518
16421TIP3    H270755   1.474   6.239   3.327  0.1285  0.5348 -0.3249
16422TIP3   OH270756   3.457   5.270   5.885  0.0774 -0.5352 -0.4607
16422TIP3    H170757   3.523   5.206   5.857 -0.8961 -1.7228 -0.0847
16422TIP3    H270758   3.473   5.282   5.978  1.0793  0.7488 -0.7983
16423TIP3   OH270759   2.987   6.612   2.873 -0.2586  0.2479  0.3106
16423TIP3    H170760   2.909   6.585   2.923 -0.5148  0.8690  0.2466
16423TIP3    H270761   3.055   6.621   2.940 -0.4191  0.3814  0.4592
16424TIP3   OH270762   3.455   0.644   2.596  0.3890 -0.3551  0.1227
16424TIP3    H170763   3.454   0.733   2.561  1.6298 -0.1201  0.6748
16424TIP3    H270764   3.403   0.650   2.676  1.7237  0.2107  0.9574
16425TIP3   OH270765   2.342   5.497   3.721 -0.2406  0.1079  0.1280
16425TIP3    H170766   2.387   5.450   3.791  1.9223  2.3209  0.2469
16425TIP3    H270767   2.286   5.560   3.767  0.5855  1.0192 -0.1088
16426TIP3   OH270768   3.802   0.958   4.024 -0.8434 -0.0956  0.2529
16426TIP3    H170769   3.755   1.017   3.965 -0.7088 -1.2633 -1.0716
16426TIP3    H270770   3.878   1.007   4.052 -0.2762  0.0879 -1.5165
16427TIP3   OH270771   2.824   6.782   5.312 -0.5941 -0.4734 -0.3146
16427TIP3    H170772   2.764   6.743   5.377 -1.0472 -0.1814 -0.5529
16427TIP3    H270773   2.796   6.873   5.306 -0.8072 -0.5979 -1.2091
16428TIP3   OH270774   4.263   6.268   4.870 -0.1874  0.9139  0.0522
16428TIP3    H170775   4.225   6.287   4.785 -1.0302 -0.7686  0.0381
16428TIP3    H270776   4.192   6.285   4.932 -0.0461  0.6606  0.2828
16429TIP3   OH270777   1.650   5.011   3.185 -0.1928  0.6660 -0.3487
16429TIP3    H170778   1.678   4.940   3.128  2.0725  2.0507 -1.0275
16429TIP3    H270779   1.623   5.081   3.126 -2.8394  0.2662  0.3136
16430TIP3   OH270780   1.819   6.367   3.035  0.0717  0.2653 -1.0449
16430TIP3    H170781   1.747   6.313   3.066 -1.4057  2.2796 -0.8426
16430TIP3    H270782   1.898   6.317   3.055 -1.0891 -0.3897  2.0914
16431TIP3   OH270783   6.982   6.498   3.742 -0.2084  0.1476 -0.4549
16431TIP3    H170784   7.000   6.414   3.699  1.1514  0.0656  0.2243
16431TIP3    H270785   7.040   6.498   3.819 -0.7954  1.3536  0.0019
16432TIP3   OH270786   4.074   4.950   5.085 -0.2276 -0.0614  0.1207
16432TIP3    H170787   4.040   4.886   5.147 -0.8897  0.6358  0.4921
16432TIP3    H270788   3.996   4.989   5.045  0.1899 -0.2702 -0.9095
16433TIP3   OH270789   0.990   6.266   2.444  0.2483  0.5758 -0.5710
16433TIP3    H170790   1.025   6.287   2.358 -0.9201 -1.1313 -1.5016
16433TIP3    H270791   1.041   6.190   2.473  0.1762  0.7184 -0.0629
16434TIP3   OH270792   4.879   5.963   2.291 -0.1819 -0.2606  0.5697
16434TIP3    H170793   4.811   5.896   2.306  0.2782 -0.7385  0.5405
16434TIP3    H270794   4.940   5.920   2.231  0.5839 -0.1152  1.2553
16435TIP3   OH270795   2.710   5.578   3.117  0.2759  0.5422 -0.4618
16435TIP3    H170796   2.740   5.646   3.176  2.2624 -0.8726  0.2024
16435TIP3    H270797   2.762   5.590   3.037  2.1822 -1.4424  0.4184
16436TIP3   OH270798   5.714   5.310   4.956  0.1859  0.1780 -0.6430
16436TIP3    H170799   5.721   5.292   5.049  0.4525 -0.1962 -0.7337
16436TIP3    H270800   5.710   5.224   4.915  1.4035  0.3151 -1.0739
16437TIP3   OH270801   3.334   5.237   4.939 -1.0176  0.1267 -0.3014
16437TIP3    H170802   3.268   5.169   4.954  0.9289 -1.4343  1.4560
16437TIP3    H270803   3.341   5.282   5.024  1.7454 -1.1894  0.2316
16438TIP3   OH270804   1.455   7.076   4.467  0.1290  0.0702  0.3610
16438TIP3    H170805   1.362   7.065   4.482 -0.7579  5.3654 -0.1079
16438TIP3    H270806   1.463   7.092   4.373  1.3387  0.7585  0.5620
16439TIP3   OH270807   1.318   6.495   3.530 -0.1161  0.0455 -0.8366
16439TIP3    H170808   1.358   6.427   3.476 -0.6986 -1.0343  0.0908
16439TIP3    H270809   1.392   6.550   3.558  0.4758 -0.7919 -0.7428
16440TIP3   OH270810   2.696   6.232   0.574 -0.7693 -0.0126 -0.3857
16440TIP3    H170811   2.788   6.203   0.575 -0.1767  1.8557  0.2348
16440TIP3    H270812   2.677   6.246   0.481 -0.4976 -0.6266 -0.5373
16441TIP3   OH270813   2.846   5.549   1.995 -0.5062 -0.0697  0.3133
16441TIP3    H170814   2.862   5.472   2.050  0.7567 -1.1943 -1.5281
16441TIP3    H270815   2.933   5.586   1.981 -0.1061 -2.3812 -4.4506
16442TIP3   OH270816   0.272   4.998   4.213 -0.2143 -0.5318 -0.3582
16442TIP3    H170817   0.344   4.940   4.188  1.9208  1.7897  0.2430
16442TIP3    H270818   0.230   4.952   4.287  3.3660  0.0365  2.1841
16443TIP3   OH270819   3.934   6.495   4.519  0.5661  0.3352  0.2659
16443TIP3    H170820   3.902   6.459   4.436  1.3659 -0.2452  0.2052
16443TIP3    H270821   3.860   6.545   4.554 -1.0693 -2.5918  1.1047
16444TIP3   OH270822   3.515   6.834   4.169 -0.0327  0.0722  0.1436
16444TIP3    H170823   3.515   6.881   4.253  0.8684  2.4674 -1.1589
16444TIP3    H270824   3.435   6.782   4.171  0.5119 -0.7456  2.9460
16445TIP3   OH270825   2.689   6.174   3.004  0.9114 -0.2136  0.0215
16445TIP3    H170826   2.672   6.243   2.940 -0.6053 -0.6841 -0.1009
16445TIP3    H270827   2.742   6.110   2.956  1.1419  0.1989 -0.2799
16446TIP3   OH270828   2.826   6.899   2.979  0.3910  0.2611  0.0889
16446TIP3    H170829   2.856   6.882   3.069  0.7557  2.7346  0.4721
16446TIP3    H270830   2.734   6.923   2.989  0.8617  2.1350 -0.0082
16447TIP3   OH270831   4.625   5.438   3.259 -0.5854  0.3634 -0.1118
16447TIP3    H170832   4.585   5.505   3.314 -1.9488  0.3537 -1.0753
16447TIP3    H270833   4.557   5.371   3.249  1.3012 -2.0123  2.2001
16448TIP3   OH270834   1.047   5.478   3.273  0.2815 -0.4174 -0.3510
16448TIP3    H170835   0.982   5.543   3.301  0.8987 -0.0778  0.3264
16448TIP3    H270836   1.021   5.397   3.317  0.7352 -0.1012  0.5123
16449TIP3   OH270837   1.168   4.492   1.156  0.0181 -0.1364  0.2349
16449TIP3    H170838   1.089   4.545   1.153 -0.3306 -0.6622 -0.0766
16449TIP3    H270839   1.239   4.552   1.131  0.1318  1.0526  3.2744
16450TIP3   OH270840   4.677   0.069   4.628 -0.4151  0.6847 -0.1930
16450TIP3    H170841   4.754   0.122   4.605 -0.4238  0.8668  0.2039
16450TIP3    H270842   4.688  -0.011   4.577 -1.0135  1.5561 -1.7171
16451TIP3   OH270843   1.479   5.277   3.407 -0.3997 -0.4706  0.2171
16451TIP3    H170844   1.430   5.355   3.432 -0.4163 -0.2934 -0.3599
16451TIP3    H270845   1.413   5.216   3.374 -0.2773 -0.3959 -0.1593
16452TIP3   OH270846   7.247   6.471   4.718 -0.1043  0.1346 -0.4338
16452TIP3    H170847   7.156   6.490   4.694 -0.5313 -2.3771 -0.8856
16452TIP3    H270848   7.241   6.424   4.801  0.7714 -0.3105 -0.6167
16453TIP3   OH270849   5.720   6.662   4.733 -0.1628 -0.1061  0.6251
16453TIP3    H170850   5.681   6.588   4.780 -0.8855  0.5533  1.0693
16453TIP3    H270851   5.720   6.734   4.796  0.5873  0.2699  0.2115
16454TIP3   OH270852   3.453   3.816   3.638 -0.0110 -0.2372 -0.1217
16454TIP3    H170853   3.474   3.747   3.702  2.1955  1.2967  0.8567
16454TIP3    H270854   3.357   3.815   3.634 -0.0330 -3.3287 -0.1097
16455TIP3   OH270855   3.707   7.007   2.364 -0.0823 -0.1196  0.6577
16455TIP3    H170856   3.674   7.054   2.441  0.0173  1.3745 -0.1870
16455TIP3    H270857   3.646   6.934   2.353 -1.1468  0.6763  1.1010
16456TIP3   OH270858   4.542   5.630   1.757 -0.0834 -0.4114 -0.1077
16456TIP3    H170859   4.581   5.545   1.742  0.7932  0.3244 -2.1215
16456TIP3    H270860   4.449   5.619   1.736 -0.1092 -1.0329  0.3363
16457TIP3   OH270861   3.921   0.922   2.525  0.9231 -0.2994  0.2068
16457TIP3    H170862   3.873   0.840   2.535  0.9723 -0.3097  0.3723
16457TIP3    H270863   3.960   0.937   2.611  0.7402  0.0060  0.2400
16458TIP3   OH270864   3.208   4.570   4.175 -0.6466 -0.0703 -0.0087
16458TIP3    H170865   3.170   4.644   4.127 -1.5693 -0.5255  0.0216
16458TIP3    H270866   3.133   4.519   4.205  0.0381 -2.2121 -1.8477
16459TIP3   OH270867   3.769   5.299   5.668 -0.1805  0.1662 -0.0790
16459TIP3    H170868   3.694   5.350   5.640 -0.3237  0.4409  0.7755
16459TIP3    H270869   3.799   5.342   5.748  0.4977 -0.3150 -0.0610
16460TIP3   OH270870   2.069   6.245   3.003 -0.0376 -0.2153 -0.3249
16460TIP3    H170871   2.153   6.280   3.032  0.8482 -2.8374  0.4642
16460TIP3    H270872   2.091   6.195   2.924 -1.1545  0.4711 -1.0834
16461TIP3   OH270873   1.374   5.265   2.121  0.4077  0.4584 -0.4056
16461TIP3    H170874   1.334   5.224   2.045  2.4675 -0.3033 -1.1231
16461TIP3    H270875   1.302   5.309   2.166 -1.2767 -1.1892 -1.4249
16462TIP3   OH270876   2.016   0.558   5.096  0.5239  0.1900  0.4279
16462TIP3    H170877   2.061   0.480   5.064 -0.0204 -0.4334  1.1576
16462TIP3    H270878   2.083   0.626   5.098  1.0523 -0.3184  0.0004
16463TIP3   OH270879   2.897   1.340   2.689 -0.7299 -0.0521  0.1685
16463TIP3    H170880   2.846   1.300   2.619  0.5782 -0.8650 -0.3368
16463TIP3    H270881   2.932   1.421   2.651  0.4543 -0.7828 -0.3122
16464TIP3   OH270882   3.274   0.982   2.555 -0.9836 -0.3064  0.4787
16464TIP3    H170883   3.256   0.914   2.620  1.0468  0.0607  1.4935
16464TIP3    H270884   3.196   1.037   2.555 -1.9574 -1.6678  0.9031
16465TIP3   OH270885   2.580   5.939  15.888 -0.1992 -0.3977 -0.0096
16465TIP3    H170886   2.548   6.024  15.857 -1.2487 -0.6172  0.4614
16465TIP3    H270887   2.631   5.905  15.814  0.1365  0.5822 -0.2482
16466TIP3   OH270888   2.348   4.713   5.028 -0.1877  0.1439  0.0418
16466TIP3    H170889   2.315   4.773   5.095 -1.1706 -1.1110  0.6851
16466TIP3    H270890   2.270   4.671   4.992  0.3345  0.7942 -1.8992
16467TIP3   OH270891   7.340   1.277   5.564 -0.0795  0.4060 -0.4568
16467TIP3    H170892   7.303   1.365   5.579 -1.6536  0.0331 -2.0016
16467TIP3    H270893   7.383   1.255   5.647 -1.8168  1.6235  0.8077
16468TIP3   OH270894   3.470   0.544   3.085 -0.5238 -0.5825  0.3205
16468TIP3    H170895   3.500   0.628   3.050  0.4222 -1.6980 -1.6138
16468TIP3    H270896   3.475   0.555   3.180  3.5448  0.1953  0.1239
16469TIP3   OH270897   3.124   6.419   1.597 -0.4704 -0.1728 -0.1903
16469TIP3    H170898   3.180   6.466   1.535 -0.4366  0.4996  0.3478
16469TIP3    H270899   3.036   6.453   1.581 -0.3235  0.6560  0.7473
16470TIP3   OH270900   3.723   2.895   3.284  0.1706 -0.0389  0.0748
16470TIP3    H170901   3.760   2.982   3.299  1.5238 -0.6977  0.6403
16470TIP3    H270902   3.628   2.909   3.283  0.3404  1.2955  1.1915
16471TIP3   OH270903   3.453   6.272   1.999 -0.1293 -0.2001  0.1328
16471TIP3    H170904   3.530   6.329   1.988 -0.3966  0.2263  0.4603
16471TIP3    H270905   3.470   6.224   2.080  0.3495 -0.9947 -0.4292
16472TIP3   OH270906   3.050   4.411   4.659 -0.1276 -0.8175  0.0659
16472TIP3    H170907   2.974   4.364   4.624  0.4987 -0.3764 -1.9963
16472TIP3    H270908   3.101   4.344   4.705 -1.9562 -1.0313  1.8456
16473TIP3   OH270909   3.903   2.709   2.556  0.3717  0.5860 -0.0971
16473TIP3    H170910   3.827   2.745   2.600 -0.6227 -0.6976 -0.7217
16473TIP3    H270911   3.976   2.727   2.615 -0.5594  1.0561  0.9184
16474TIP3   OH270912   4.789   5.192   2.592 -0.0028  0.5371 -0.2322
16474TIP3    H170913   4.792   5.140   2.672 -2.1798 -2.8751 -2.2147
16474TIP3    H270914   4.730   5.264   2.612 -0.4290 -0.2160  1.3008
16475TIP3   OH270915   1.539   5.729   1.927  0.2756 -0.1273 -0.3989
16475TIP3    H170916   1.604   5.780   1.880  0.4882 -0.9735 -1.0280
16475TIP3    H270917   1.483   5.692   1.859 -0.5983  0.2481  0.1168
16476TIP3   OH270918   2.185   5.110  15.884 -0.2443 -0.5663  0.2822
16476TIP3    H170919   2.136   5.188  15.910  0.8019  0.7941 -1.6794
16476TIP3    H270920   2.265   5.114  15.937 -0.1736 -0.2888  0.1543
16477TIP3   OH270921   4.024   0.893   2.779  1.2190  0.2301 -0.1813
16477TIP3    H170922   4.108   0.938   2.791  1.2839 -0.2047  1.0671
16477TIP3    H270923   4.037   0.807   2.820  0.2026  0.1124 -0.0974
16478TIP3   OH270924   4.868   5.582   3.186  0.8755 -0.2913 -0.0360
16478TIP3    H170925   4.954   5.543   3.168  0.5133 -0.2748 -1.9043
16478TIP3    H270926   4.809   5.508   3.193  0.7687 -0.2235 -0.2388
16479TIP3   OH270927   4.928   5.157   4.153  0.0019 -0.0791 -0.2062
16479TIP3    H170928   4.968   5.206   4.081  1.5672 -0.6019  0.2821
16479TIP3    H270929   4.946   5.065   4.132  2.4583 -0.1454  1.9561
16480TIP3   OH270930   3.811   1.466   2.905 -0.1335  0.5959  0.6993
16480TIP3    H170931   3.794   1.547   2.953 -1.2556 -0.2219  1.7102
16480TIP3    H270932   3.798   1.489   2.813 -2.1526  1.1640  1.1036
16481TIP3   OH270933   4.097   0.503   5.134  0.3761 -0.2476  0.2901
16481TIP3    H170934   4.031   0.433   5.137 -0.0158 -0.0236 -2.2120
16481TIP3    H270935   4.171   0.464   5.086  1.6176 -0.1064  2.0424
16482TIP3   OH270936   1.762   6.058   3.618 -0.1269  0.0938  0.2620
16482TIP3    H170937   1.816   6.049   3.540  1.0506  0.3935  1.0347
16482TIP3    H270938   1.815   6.110   3.678 -2.2645  2.5776  0.1077
16483TIP3   OH270939   0.797   5.525   2.462  0.4280  0.0213  0.1840
16483TIP3    H170940   0.856   5.450   2.468  0.2494 -0.2994 -1.7945
16483TIP3    H270941   0.794   5.560   2.551 -1.0815 -3.5135  1.6310
16484TIP3   OH270942   4.310   5.315   4.740 -0.1035 -0.0546 -0.1866
16484TIP3    H170943   4.363   5.284   4.814 -1.5509  1.5547  1.5838
16484TIP3    H270944   4.246   5.373   4.780  0.3644  2.4736 -2.9719
16485TIP3   OH270945   4.484   5.557   3.792  0.7306  0.6000  0.1500
16485TIP3    H170946   4.546   5.484   3.787  0.3508  0.3400 -0.8915
16485TIP3    H270947   4.406   5.525   3.747  0.1605  1.2541  0.6614
16486TIP3   OH270948   3.012   0.017   4.267 -0.2914 -0.3160 -0.1622
16486TIP3    H170949   2.931  -0.030   4.249  0.3047 -1.6823  0.5949
16486TIP3    H270950   3.072  -0.012   4.198 -0.5144  0.8975 -0.8814
16487TIP3   OH270951   5.029   0.053   4.293  0.2157  0.4121  0.7391
16487TIP3    H170952   4.935   0.068   4.300 -0.0568 -1.0299  0.3416
16487TIP3    H270953   5.038  -0.042   4.285  1.5990  0.6498 -0.8089
16488TIP3   OH270954   3.624   7.074   1.963 -0.1313  0.1866  0.6989
16488TIP3    H170955   3.639   7.131   2.039 -1.3509 -0.3642  1.3760
16488TIP3    H270956   3.532   7.048   1.971 -0.1330 -0.2594 -0.7183
16489TIP3   OH270957   4.697   5.383   3.719 -0.0365  0.1172 -0.3980
16489TIP3    H170958   4.720   5.308   3.664  0.3504  0.5537 -0.8253
16489TIP3    H270959   4.741   5.457   3.679 -0.6889  0.6372 -0.1596
16490TIP3   OH270960   6.650   2.316   2.234 -0.1039 -0.2885 -0.8603
16490TIP3    H170961   6.660   2.408   2.259 -2.6949 -0.1030 -0.4399
16490TIP3    H270962   6.727   2.273   2.271  1.4369  1.7806 -1.5220
16491TIP3   OH270963   4.354   6.187   1.379  0.2672  0.5767  0.4773
16491TIP3    H170964   4.274   6.219   1.421 -0.9631  0.3899 -1.6675
16491TIP3    H270965   4.389   6.264   1.332 -0.4611 -0.1441 -1.2878
16492TIP3   OH270966   1.387   5.980   0.089 -0.9707 -0.0243  0.4442
16492TIP3    H170967   1.433   5.903   0.053 -1.3200 -0.1396  0.2406
16492TIP3    H270968   1.445   6.012   0.158 -0.9252 -0.6119  0.6891
16493TIP3   OH270969   4.920   5.587   1.634  1.1586 -0.1505  0.4250
16493TIP3    H170970   4.945   5.591   1.541  0.5770  2.0397  0.3312
16493TIP3    H270971   4.833   5.548   1.633  1.3544 -0.5795  0.0829
16494TIP3   OH270972   3.630   6.884   3.284  0.0057  0.3025  0.2798
16494TIP3    H170973   3.560   6.844   3.336 -0.5800  0.9986  0.0207
16494TIP3    H270974   3.710   6.845   3.319 -0.4795 -0.1937  0.8476
16495TIP3   OH270975   6.770   6.726   1.869  0.3880 -0.3149 -0.1513
16495TIP3    H170976   6.797   6.635   1.878  1.2576 -0.0141  0.3676
16495TIP3    H270977   6.819   6.759   1.794  0.7046 -0.0450  0.1725
16496TIP3   OH270978   6.635   5.894   4.229 -0.5120  0.4493 -0.6026
16496TIP3    H170979   6.565   5.842   4.189 -1.1617  0.2009  0.8241
16496TIP3    H270980   6.598   5.925   4.312  0.8358  0.8709 -0.1398
16497TIP3   OH270981   4.457   6.248   0.426  0.4161 -0.2187  0.1388
16497TIP3    H170982   4.512   6.189   0.478  1.0548  0.7575  0.5783
16497TIP3    H270983   4.393   6.281   0.489  1.0178  0.7546  0.2382
16498TIP3   OH270984   6.517   5.385   2.613 -1.0297 -0.1820  0.0505
16498TIP3    H170985   6.447   5.420   2.557  0.0840  1.5547 -0.3106
16498TIP3    H270986   6.596   5.393   2.559 -0.1578  0.2091  1.3753
16499TIP3   OH270987   3.074   6.657   1.398  0.3602 -0.1993  0.0998
16499TIP3    H170988   2.983   6.629   1.395 -0.3093  2.0453 -1.9541
16499TIP3    H270989   3.120   6.599   1.338  0.8468 -3.0443  3.0870
16500TIP3   OH270990   3.964   6.348   2.163  0.0320 -0.0917 -0.3921
16500TIP3    H170991   3.877   6.339   2.126 -0.5152 -1.3542  1.1368
16500TIP3    H270992   4.015   6.392   2.095 -1.0895 -1.7982 -2.4135
16501TIP3   OH270993   3.646   0.312   3.304 -0.0507 -0.4535  0.3310
16501TIP3    H170994   3.631   0.390   3.358  0.7504 -0.6385  0.8253
16501TIP3    H270995   3.613   0.239   3.356 -1.0602 -0.4254 -0.2504
16502TIP3   OH270996   3.861   6.445   3.309 -0.0971  0.2044  0.0922
16502TIP3    H170997   3.801   6.501   3.358 -0.6433  1.1283 -1.5776
16502TIP3    H270998   3.892   6.501   3.238  0.0565 -1.3515 -1.0811
16503TIP3   OH270999   2.898   6.779   2.654  0.3949  0.2190 -0.3069
16503TIP3    H171000   2.935   6.727   2.725 -0.1295  1.3338  0.7875
16503TIP3    H271001   2.811   6.742   2.640  0.0911  0.6891  0.3464
16504TIP3   OH271002   6.189   7.340   5.199  0.1681  0.3174  0.6171
16504TIP3    H171003   6.215   7.253   5.171 -1.1044 -0.2773  1.2587
16504TIP3    H271004   6.267   7.394   5.186  0.9929 -0.9401  0.3433
16505TIP3   OH271005   4.617   6.309   2.728 -0.1244 -0.1118  0.4763
16505TIP3    H171006   4.621   6.231   2.783  0.4274 -0.9916 -0.7871
16505TIP3    H271007   4.618   6.382   2.789  0.3048 -1.0772  1.6309
16506TIP3   OH271008   4.798   4.359   5.123  0.3021  0.1464  0.5478
16506TIP3    H171009   4.720   4.303   5.115 -0.7920  1.4655  1.6281
16506TIP3    H271010   4.872   4.300   5.110 -0.8824 -1.1073 -0.7000
16507TIP3   OH271011   2.792   1.079   2.791 -0.2406 -0.1070  0.2377
16507TIP3    H171012   2.818   1.152   2.736 -1.8426 -1.3760 -2.3271
16507TIP3    H271013   2.867   1.020   2.790  0.1060  0.3329  0.2285
16508TIP3   OH271014   3.985   6.955   2.816 -0.3833  0.2095 -0.8388
16508TIP3    H171015   4.003   6.901   2.893  1.2156  0.1205 -1.2587
16508TIP3    H271016   4.022   7.041   2.838 -2.8755  1.1527 -0.1905
16509TIP3   OH271017   3.217   0.445   1.749  0.6947  0.2461 -0.0550
16509TIP3    H171018   3.153   0.461   1.819 -0.1703  1.1039 -1.0446
16509TIP3    H271019   3.225   0.349   1.747  2.3000  0.2594  2.6115
16510TIP3   OH271020   7.180   6.923   4.399 -0.2505 -0.1945  0.8685
16510TIP3    H171021   7.178   6.844   4.454  1.0014 -2.6177 -2.3667
16510TIP3    H271022   7.247   6.978   4.439  1.3862 -2.3502  1.2349
16511TIP3   OH271023   5.180   1.657   5.115 -0.9266 -0.5548  0.3732
16511TIP3    H171024   5.226   1.591   5.063  0.8846  2.8100 -2.4802
16511TIP3    H271025   5.102   1.678   5.063 -0.9420  0.3277  0.7466
16512TIP3   OH271026   2.640   2.266   3.112  0.5733  0.0219 -0.1747
16512TIP3    H171027   2.565   2.232   3.063  0.5763  1.8569 -1.4996
16512TIP3    H271028   2.712   2.206   3.091 -0.4532 -1.6751  1.0100
16513TIP3   OH271029   5.577   1.915   4.875 -0.2518 -0.4950  0.0925
16513TIP3    H171030   5.484   1.932   4.862 -0.1637 -1.0838 -1.3822
16513TIP3    H271031   5.589   1.824   4.850  0.8540 -0.2299 -0.3991
16514TIP3   OH271032   4.059   3.588   2.243 -0.1869 -0.3473 -0.1207
16514TIP3    H171033   4.044   3.555   2.154 -2.8965  2.4358 -0.7601
16514TIP3    H271034   3.994   3.543   2.297 -0.0871 -0.2883  0.0503
16515TIP3   OH271035   4.237   0.257   4.204 -0.4741  0.3537 -0.3877
16515TIP3    H171036   4.143   0.242   4.218 -0.6374  1.1279 -0.6130
16515TIP3    H271037   4.241   0.313   4.126  0.0392  2.5203  1.1524
16516TIP3   OH271038   6.114   1.197   2.915 -0.5514  0.7002 -0.0572
16516TIP3    H171039   6.057   1.272   2.899 -0.3464  0.9152  0.2212
16516TIP3    H271040   6.097   1.172   3.006 -0.8812  0.1866 -0.2578
16517TIP3   OH271041   5.585   5.843   3.767 -0.0528  0.4977 -0.1070
16517TIP3    H171042   5.506   5.868   3.814 -0.0956  0.5078 -0.1836
16517TIP3    H271043   5.652   5.835   3.834  0.0934  1.3580 -0.1540
16518TIP3   OH271044   5.205   0.036   2.407 -0.4084  0.2065  0.1294
16518TIP3    H171045   5.183  -0.054   2.431  1.0008  0.3396  2.1067
16518TIP3    H271046   5.270   0.028   2.338 -0.9691 -0.2871 -0.3360
16519TIP3   OH271047   6.314   7.158   3.113  0.5616  0.6145 -0.4614
16519TIP3    H171048   6.349   7.082   3.160  1.4287  0.2772 -1.6014
16519TIP3    H271049   6.391   7.209   3.088 -0.0021  1.7425  0.0745
16520TIP3   OH271050   4.374   0.020   0.849 -0.4069  0.0993  0.3823
16520TIP3    H171051   4.349   0.113   0.847  2.8641  1.0253 -0.4222
16520TIP3    H271052   4.407   0.006   0.938 -2.0090 -0.6567  0.8835
16521TIP3   OH271053   4.967   1.079   4.205 -0.2240  0.0692  0.0706
16521TIP3    H171054   4.875   1.055   4.220 -0.0584 -2.0980 -2.0320
16521TIP3    H271055   4.982   1.058   4.113  2.6701 -0.5590  0.6431
16522TIP3   OH271056   3.640   0.328   2.550  0.4673 -0.0370 -0.6495
16522TIP3    H171057   3.647   0.404   2.608 -2.4216 -0.4420  0.2729
16522TIP3    H271058   3.711   0.271   2.577  1.0138  1.1376  0.4325
16523TIP3   OH271059   3.305   7.027   4.807  0.5410 -0.0092 -0.0734
16523TIP3    H171060   3.238   6.958   4.801  1.2607 -0.6929 -0.2869
16523TIP3    H271061   3.297   7.074   4.724  0.1854  0.0373 -0.0157
16524TIP3   OH271062   4.695   0.158   3.715  0.5545 -0.4052  0.3543
16524TIP3    H171063   4.599   0.152   3.713  0.4973 -0.6923  2.2468
16524TIP3    H271064   4.713   0.252   3.720  0.5278 -0.1241 -3.3827
16525TIP3   OH271065   2.821   1.002   1.393  0.5883  0.0097  0.0699
16525TIP3    H171066   2.897   1.010   1.335  0.3709  0.0739 -0.2062
16525TIP3    H271067   2.841   0.925   1.447  1.0415  0.2812  0.2852
16526TIP3   OH271068   5.869   0.454   4.537  0.0750 -0.7616  0.0806
16526TIP3    H171069   5.846   0.471   4.629 -0.7555  0.6470 -0.3827
16526TIP3    H271070   5.814   0.379   4.512  0.0981 -0.9696  0.6383
16527TIP3   OH271071   3.865   6.260   2.408  0.5385 -0.1564 -0.3249
16527TIP3    H171072   3.912   6.313   2.344  0.5233 -0.6511 -0.7440
16527TIP3    H271073   3.813   6.323   2.458  1.7639  0.4217  0.2432
16528TIP3   OH271074   4.167   0.562   2.636 -0.2727 -0.0553  0.2961
16528TIP3    H171075   4.179   0.630   2.569 -0.3870  0.6532  0.9874
16528TIP3    H271076   4.104   0.502   2.597 -0.7928  0.6710 -0.0078
16529TIP3   OH271077   3.201   6.680   2.343  0.3472  0.2377 -0.0668
16529TIP3    H171078   3.280   6.733   2.332  1.0562 -0.6243  0.7953
16529TIP3    H271079   3.230   6.605   2.394 -0.4768 -1.3515 -1.8911
16530TIP3   OH271080   4.941   7.108   2.056  0.2850 -0.1337  0.4065
16530TIP3    H171081   4.897   7.175   2.003 -0.2560 -0.7812  0.0282
16530TIP3    H271082   5.034   7.127   2.045  0.3178 -1.7978 -2.9134
16531TIP3   OH271083   5.280   7.123   2.867  0.0379 -0.4978 -0.5741
16531TIP3    H171084   5.320   7.195   2.916  0.9285  0.3232 -2.4602
16531TIP3    H271085   5.186   7.132   2.882 -0.0912  2.7031 -2.9524
16532TIP3   OH271086   3.832   1.996   3.237  0.6097 -0.4785  0.3154
16532TIP3    H171087   3.765   2.039   3.185  1.7991  0.0735 -0.7898
16532TIP3    H271088   3.792   1.984   3.323  0.0207  2.2305  0.4480
16533TIP3   OH271089   3.922   1.245   2.597  0.0898  0.5848  0.7029
16533TIP3    H171090   3.838   1.232   2.643  0.1243 -0.1381  0.5610
16533TIP3    H271091   3.932   1.167   2.543  1.9600 -0.4178  2.4483
16534TIP3   OH271092   6.850   6.785   5.378 -0.6124 -0.4682  0.7259
16534TIP3    H171093   6.827   6.693   5.370 -0.5824 -0.3939 -0.2365
16534TIP3    H271094   6.853   6.817   5.288  0.8755  0.1100  0.9763
16535TIP3   OH271095   3.456   1.501   5.194 -0.1395 -0.4243  0.1633
16535TIP3    H171096   3.539   1.520   5.237  0.6590 -2.4076 -0.4612
16535TIP3    H271097   3.457   1.556   5.115  1.7340 -2.3210 -1.1655
16536TIP3   OH271098   0.097   0.325   5.516 -0.2589 -0.1121  0.6134
16536TIP3    H171099   0.124   0.268   5.588 -1.1233  0.6465  1.5432
16536TIP3    H271100   0.017   0.286   5.482 -1.1885  0.8752  1.6476
16537TIP3   OH271101   3.048   6.665   5.527 -0.5584 -0.1045 -0.0837
16537TIP3    H171102   3.010   6.752   5.540 -2.2777 -0.6273 -1.4186
16537TIP3    H271103   3.013   6.613   5.599  1.2388  0.5072  1.2824
16538TIP3   OH271104   4.568   6.317   2.456 -0.2327  0.0643 -0.1024
16538TIP3    H171105   4.526   6.403   2.450  1.9813  1.0608 -1.9461
16538TIP3    H271106   4.616   6.318   2.539 -1.5271 -0.0352  0.6612
16539TIP3   OH271107   2.414   6.873   4.862 -0.2139 -0.7215 -0.5606
16539TIP3    H171108   2.369   6.795   4.894  0.6975 -0.5845  1.1175
16539TIP3    H271109   2.346   6.923   4.816 -1.0031 -2.0623 -0.8844
16540TIP3   OH271110   7.142   4.388   1.968 -0.3575  0.1973  0.3178
16540TIP3    H171111   7.052   4.380   1.937 -0.1167 -0.2836 -0.2836
16540TIP3    H271112   7.193   4.331   1.909  0.2208 -0.1590  1.1460
16541TIP3   OH271113   3.435   6.393   3.203  0.5476 -0.2541  0.1591
16541TIP3    H171114   3.442   6.378   3.109  1.0077  0.6667  0.0489
16541TIP3    H271115   3.409   6.308   3.238  0.3387 -0.5928 -0.8015
16542TIP3   OH271116   0.555   7.220   4.551  0.0134 -0.2020  0.1273
16542TIP3    H171117   0.564   7.164   4.474 -1.7436 -1.8471  1.0764
16542TIP3    H271118   0.569   7.309   4.518  2.8218 -1.1665 -1.3949
16543TIP3   OH271119   4.931   6.449   4.906 -0.0041 -0.7279  0.1276
16543TIP3    H171120   4.906   6.450   4.998  0.0946  0.5150  0.1566
16543TIP3    H271121   5.022   6.480   4.906 -0.1745 -0.2200 -0.4243
16544TIP3   OH271122   3.893   7.048   3.703  0.7764 -0.6716  0.3170
16544TIP3    H171123   3.843   7.111   3.755  1.6958 -0.5425  1.0589
16544TIP3    H271124   3.924   6.984   3.767 -0.2830 -1.9680 -0.4472
16545TIP3   OH271125   5.085   0.929   3.408 -0.4066 -0.3363  0.0191
16545TIP3    H171126   5.029   0.905   3.334 -1.1176  0.1324  0.3957
16545TIP3    H271127   5.052   1.015   3.436 -0.2547 -0.5905  0.9909
16546TIP3   OH271128   6.587   0.085   3.500 -0.2573 -0.1243  0.1050
16546TIP3    H171129   6.563   0.017   3.563 -0.4071 -0.6540 -0.5166
16546TIP3    H271130   6.675   0.060   3.470  0.0270  0.4105  0.4868
16547TIP3   OH271131   3.449   6.034   2.175  0.5300  0.1684 -0.3354
16547TIP3    H171132   3.443   5.938   2.179  0.0178  0.1404 -1.6428
16547TIP3    H271133   3.527   6.055   2.226 -0.7412 -0.7604  2.0814
16548TIP3   OH271134   3.393   6.658   3.270 -0.0868  0.7831  0.2025
16548TIP3    H171135   3.441   6.689   3.194  3.4195  0.6060  2.2309
16548TIP3    H271136   3.396   6.563   3.264  1.5105  0.7468  1.2961
16549TIP3   OH271137   4.251   1.075   1.857  0.2169 -0.0252  0.5472
16549TIP3    H171138   4.301   1.010   1.807 -0.8709 -0.3078 -0.1848
16549TIP3    H271139   4.272   1.057   1.948 -0.5337 -1.7842  0.3798
16550TIP3   OH271140   2.400   6.730   3.246 -0.1500 -0.5137 -0.1099
16550TIP3    H171141   2.325   6.713   3.189  0.0531 -1.4872 -0.0835
16550TIP3    H271142   2.371   6.706   3.333  0.5924 -2.0755 -0.2785
16551TIP3   OH271143   3.600   6.618   1.656 -0.0102  0.7173  0.2080
16551TIP3    H171144   3.590   6.708   1.624  0.6250  0.6098 -0.2955
16551TIP3    H271145   3.524   6.605   1.713 -1.7079  0.6109 -1.9763
16552TIP3   OH271146   4.480   0.819   1.675 -0.3726  0.5456 -0.0089
16552TIP3    H171147   4.540   0.801   1.602 -0.4571  1.0001 -0.1912
16552TIP3    H271148   4.408   0.869   1.635 -0.5035  0.6424  0.3515
16553TIP3   OH271149   4.348   1.353   4.891  0.0902 -0.4162 -0.1714
16553TIP3    H171150   4.392   1.302   4.958  0.5667  1.3424  0.8971
16553TIP3    H271151   4.420   1.387   4.836 -0.0587  0.6746  0.2866
16554TIP3   OH271152   3.915   1.278   2.153  0.1276 -0.1759 -0.1122
16554TIP3    H171153   3.978   1.344   2.184 -0.9501  0.3230  1.0920
16554TIP3    H271154   3.955   1.194   2.178  0.7074  0.0937 -0.1062
16555TIP3   OH271155   4.900   5.903   1.513  0.4072  0.4263  0.0288
16555TIP3    H171156   4.971   5.901   1.578  1.0736  2.1048 -0.6130
16555TIP3    H271157   4.820   5.900   1.565  0.9466 -0.1406  0.8342
16556TIP3   OH271158   1.002   0.440   3.518 -0.0493 -0.5818 -0.8341
16556TIP3    H171159   1.037   0.363   3.564  0.2002 -0.4414 -0.7884
16556TIP3    H271160   1.022   0.513   3.575 -1.8108 -0.6746 -0.0535
16557TIP3   OH271161   4.381   1.467   2.712  0.0639  0.0528  0.4587
16557TIP3    H171162   4.323   1.403   2.670  0.4837  0.3760 -0.6550
16557TIP3    H271163   4.361   1.549   2.667  0.9664  0.2799  0.4730
16558TIP3   OH271164   4.581   5.565   4.809  0.5650 -0.0727  0.0665
16558TIP3    H171165   4.565   5.533   4.720  1.5223  0.4422 -0.2972
16558TIP3    H271166   4.562   5.490   4.865  3.2970 -1.4988 -0.8189
16559TIP3   OH271167   7.294   6.900   2.227 -0.0271  0.0797 -0.0397
16559TIP3    H171168   7.200   6.886   2.238  0.1993 -1.1054  0.4715
16559TIP3    H271169   7.327   6.908   2.317  0.6280 -1.3665 -0.1464
16560TIP3   OH271170   3.433   6.223   1.304 -0.0003  0.0338 -0.2117
16560TIP3    H171171   3.519   6.252   1.333 -0.8980  1.2565  1.3543
16560TIP3    H271172   3.450   6.146   1.249  2.1431  0.9239 -0.8584
16561TIP3   OH271173   4.614   6.513   3.857 -0.1779 -0.3276 -0.1359
16561TIP3    H171174   4.683   6.569   3.821  0.7753 -1.8063 -0.6136
16561TIP3    H271175   4.545   6.515   3.790  0.5456 -1.0626 -0.8997
16562TIP3   OH271176   5.387   0.124   0.605  0.3296 -0.3599  0.1508
16562TIP3    H171177   5.410   0.208   0.645 -0.7551 -0.0414  0.1115
16562TIP3    H271178   5.455   0.109   0.539  0.1196  0.8419 -0.3520
16563TIP3   OH271179   4.384   7.280   5.162  0.3836  0.3737 -0.1488
16563TIP3    H171180   4.476   7.307   5.161  0.1621  1.1199 -1.1593
16563TIP3    H271181   4.371   7.245   5.250  1.6920  0.0516 -0.0654
16564TIP3   OH271182   0.979   0.450   3.918  0.3186  0.3867 -0.0489
16564TIP3    H171183   1.053   0.485   3.968 -0.0319  1.0671  0.0024
16564TIP3    H271184   0.902   0.477   3.968  0.0632 -1.1954  0.4576
16565TIP3   OH271185   0.479   0.617   3.636  0.1430  0.9074  0.2368
16565TIP3    H171186   0.486   0.694   3.579 -2.0528  0.5093 -0.6180
16565TIP3    H271187   0.562   0.571   3.623  1.1909  2.7433  0.2124
16566TIP3   OH271188   6.462   0.642   1.835  0.0765  0.0981  0.1999
16566TIP3    H171189   6.549   0.668   1.804  0.3476 -0.9604  0.0563
16566TIP3    H271190   6.403   0.707   1.797  0.7017  0.2922 -0.4632
16567TIP3   OH271191   2.860   7.280   2.824  0.3226  0.0259  0.6428
16567TIP3    H171192   2.890   7.332   2.749 -2.9748 -0.7478 -1.3272
16567TIP3    H271193   2.871   7.189   2.796  0.5978 -0.3075  1.7873
16568TIP3   OH271194   3.421   6.145   3.289  0.6392 -0.0391  0.2388
16568TIP3    H171195   3.483   6.185   3.350  1.4392  1.6330 -1.5892
16568TIP3    H271196   3.476   6.100   3.225 -0.2496 -3.9834  2.1019
16569TIP3   OH271197   3.653   5.858   4.040  0.1696 -0.4568  0.2633
16569TIP3    H171198   3.697   5.898   3.966  0.2679  0.3874  0.7779
16569TIP3    H271199   3.644   5.928   4.104 -2.1819 -0.5201  0.0591
16570TIP3   OH271200   5.585   6.631   3.239  0.5252  0.2767  0.6034
16570TIP3    H171201   5.575   6.540   3.211  2.2129  0.3963 -0.4449
16570TIP3    H271202   5.590   6.681   3.158  2.8030  0.9254  1.1142
16571TIP3   OH271203   4.217   7.297   4.366 -0.1089  0.1855  0.4189
16571TIP3    H171204   4.281   7.283   4.436 -0.0947  0.1537  0.3991
16571TIP3    H271205   4.168   7.216   4.362 -0.6428  0.4803  0.9404
16572TIP3   OH271206   4.653   6.642   3.353 -0.2687 -0.1195  0.6034
16572TIP3    H171207   4.621   6.606   3.436  0.2996  0.2813  0.9997
16572TIP3    H271208   4.632   6.735   3.358  1.7712  0.3390  1.2796
16573TIP3   OH271209   6.187   1.012   2.736  0.5623  0.3420  0.1121
16573TIP3    H171210   6.131   1.018   2.659  0.6497 -1.7777 -0.1631
16573TIP3    H271211   6.163   1.087   2.790 -0.6767  0.9124 -1.2152
16574TIP3   OH271212   2.906   2.299   0.790 -0.0933  0.3072  0.2807
16574TIP3    H171213   2.984   2.251   0.762  0.8169  0.8587  1.8366
16574TIP3    H271214   2.855   2.310   0.710  1.1654 -0.5416 -0.6562
16575TIP3   OH271215   7.109   5.494   0.885  0.3277 -0.4001 -0.0148
16575TIP3    H171216   7.087   5.489   0.792 -1.4392  0.7496  0.3128
16575TIP3    H271217   7.093   5.406   0.919  3.3360 -1.5058 -1.2446
16576TIP3   OH271218   2.456   6.125   1.727 -0.5687 -0.2461 -0.2051
16576TIP3    H171219   2.368   6.161   1.723 -1.2331 -1.8394 -0.1039
16576TIP3    H271220   2.470   6.085   1.641  0.2308  0.3844 -0.3813
16577TIP3   OH271221   4.241   6.926   3.328  0.4427 -0.2796 -0.2034
16577TIP3    H171222   4.303   6.994   3.303  1.2228 -1.2958 -1.0503
16577TIP3    H271223   4.192   6.965   3.401  0.6320  1.3108 -0.9053
16578TIP3   OH271224   3.540   1.534   3.227  0.0452 -0.8615 -0.8762
16578TIP3    H171225   3.461   1.486   3.252  0.2266 -0.9768 -0.5267
16578TIP3    H271226   3.610   1.469   3.235  0.3964 -0.3414  0.2812
16579TIP3   OH271227   3.309   6.154   1.793 -0.3930  0.3153 -0.5843
16579TIP3    H171228   3.376   6.161   1.726  2.2453 -1.4919  1.7788
16579TIP3    H271229   3.342   6.206   1.866  0.0505 -3.1768  1.8144
16580TIP3   OH271230   5.313   5.681   1.846  0.0912  0.1386 -0.0664
16580TIP3    H171231   5.394   5.632   1.838 -1.2235 -1.9710 -0.7009
16580TIP3    H271232   5.283   5.664   1.936 -0.3646 -0.2151 -0.2859
16581TIP3   OH271233   4.374   0.921   2.282 -0.5839  0.3306  0.1405
16581TIP3    H171234   4.466   0.899   2.299 -0.0426  2.7211  0.4640
16581TIP3    H271235   4.367   0.920   2.187 -0.0153  0.8602  0.0844
16582TIP3   OH271236   4.937   0.877   3.195  0.3976  0.2597  0.2521
16582TIP3    H171237   4.970   0.865   3.106 -2.6490 -1.3204 -0.7531
16582TIP3    H271238   4.892   0.794   3.215  0.4969  0.8180  3.0226
16583TIP3   OH271239   4.705   6.398   2.083 -0.0060 -0.1271  0.1090
16583TIP3    H171240   4.735   6.367   1.998  0.0428  0.1394  0.0292
16583TIP3    H271241   4.741   6.336   2.146 -1.3023 -1.2061 -0.1846
16584TIP3   OH271242   3.319   6.555   1.766  0.2475  0.0189 -0.0855
16584TIP3    H171243   3.253   6.486   1.774  0.2345 -0.0407 -0.7072
16584TIP3    H271244   3.270   6.631   1.735  0.6855 -0.3762 -1.7810
16585TIP3   OH271245   5.364   6.772   2.472  0.5742 -0.0737 -0.3354
16585TIP3    H171246   5.318   6.820   2.541  0.8019 -0.2070 -0.0882
16585TIP3    H271247   5.330   6.683   2.478  0.1933  0.0435 -0.7563
16586TIP3   OH271248   2.305   6.443   1.944 -0.4624 -0.5497  0.3556
16586TIP3    H171249   2.389   6.487   1.957 -0.8831 -0.0682  1.4312
16586TIP3    H271250   2.250   6.474   2.015 -1.8900 -0.0680 -0.9488
16587TIP3   OH271251   4.186   6.790   1.004 -0.3503  0.4484  0.4396
16587TIP3    H171252   4.206   6.876   0.965 -0.6350  1.1208  1.7398
16587TIP3    H271253   4.105   6.804   1.053 -1.4590 -1.0710 -0.9031
16588TIP3   OH271254   3.659   1.619   2.155  0.5311  0.1973 -0.1962
16588TIP3    H171255   3.615   1.704   2.142 -0.0649  0.2815  2.1815
16588TIP3    H271256   3.724   1.636   2.222  0.7407 -1.1241 -0.0575
16589TIP3   OH271257   2.992   7.020   2.782 -0.3149  0.1324 -0.5444
16589TIP3    H171258   2.950   6.968   2.712  0.9306 -2.2691  0.4460
16589TIP3    H271259   2.963   6.978   2.863 -1.0481  2.3763  0.3784
16590TIP3   OH271260   4.051   0.033   2.725 -0.5507  0.0229  0.1298
16590TIP3    H171261   4.094   0.082   2.795  0.6811 -0.4667 -0.2769
16590TIP3    H271262   4.118  -0.027   2.693 -1.0376  0.3756 -1.5993
16591TIP3   OH271263   4.385   6.842   4.189  0.4664  0.1761 -0.2934
16591TIP3    H171264   4.317   6.870   4.127 -1.2233 -2.2497  0.3877
16591TIP3    H271265   4.417   6.759   4.154  2.9570  1.1774 -0.4668
16592TIP3   OH271266   2.816   0.304   2.539  0.0296 -0.3324  0.5279
16592TIP3    H171267   2.782   0.299   2.628  1.0474  0.5586  0.9728
16592TIP3    H271268   2.745   0.344   2.488  0.3544  1.4014  1.4217
16593TIP3   OH271269   6.096   7.235   3.676  0.2161 -0.2277 -0.4164
16593TIP3    H171270   6.162   7.194   3.733  0.2118  0.5652  0.1713
16593TIP3    H271271   6.069   7.313   3.724 -1.3779 -0.7118 -0.5194
16594TIP3   OH271272   3.422   6.822   2.560 -0.4268 -0.0497  0.6991
16594TIP3    H171273   3.425   6.872   2.479  1.0952  0.1018  0.8271
16594TIP3    H271274   3.420   6.730   2.531 -0.0283  0.0080  0.4790
16595TIP3   OH271275   6.621   0.711   3.118 -0.0922 -0.7845 -0.1743
16595TIP3    H171276   6.668   0.687   3.038  0.5726  0.6614 -0.2191
16595TIP3    H271277   6.584   0.797   3.099 -0.9704 -0.9802  0.6382
16596TIP3   OH271278   1.695   5.002   0.934 -0.3520 -0.4365  0.3905
16596TIP3    H171279   1.629   4.985   0.867  0.2454 -1.1208 -0.0398
16596TIP3    H271280   1.740   4.918   0.945  0.4149  0.0056  0.7004
16597TIP3   OH271281   2.491   6.991   2.366 -0.3170  0.3069 -0.3032
16597TIP3    H171282   2.502   6.898   2.387 -0.2959 -0.0350 -1.7534
16597TIP3    H271283   2.438   7.026   2.437 -0.8528 -0.9602 -0.0767
16598TIP3   OH271284   4.184   7.213   3.900  0.1096 -0.1808  0.0029
16598TIP3    H171285   4.232   7.234   3.979  1.8765  0.1368 -1.1184
16598TIP3    H271286   4.092   7.228   3.922  0.6322  0.4344  1.8025
16599TIP3   OH271287   6.988   0.860   2.326 -0.2065  0.2409 -0.4630
16599TIP3    H171288   6.897   0.856   2.358 -0.2372  0.3454 -0.5397
16599TIP3    H271289   7.010   0.769   2.308 -0.2668  0.2051 -0.3599
16600TIP3   OH271290   5.560   0.441   3.454  0.3676 -0.2696 -0.4179
16600TIP3    H171291   5.535   0.361   3.500  0.6301 -0.5206 -0.7033
16600TIP3    H271292   5.633   0.414   3.398  1.0996  0.3844  0.2090
16601TIP3   OH271293   4.665   0.782   1.871 -0.3394 -0.1301 -0.2118
16601TIP3    H171294   4.636   0.700   1.911 -1.4285 -0.2096 -1.1467
16601TIP3    H271295   4.599   0.801   1.805  1.0034  0.4235 -1.4091
16602TIP3   OH271296   4.048   1.052  14.975  0.0480 -0.4642 -0.1423
16602TIP3    H171297   4.035   0.982  14.910  0.3102 -0.3418 -0.3279
16602TIP3    H271298   4.137   1.084  14.958 -0.6118  0.9377 -1.0547
16603TIP3   OH271299   3.782   0.956   2.989  0.0928 -0.0076  0.0769
16603TIP3    H171300   3.842   0.925   2.921  0.7326  0.2933  0.4950
16603TIP3    H271301   3.803   1.049   2.998  0.7523 -0.2781  1.4253
16604TIP3   OH271302   4.740   1.073   3.170  0.2064 -0.1291  0.5503
16604TIP3    H171303   4.684   1.042   3.241  0.4028  0.1656  0.8402
16604TIP3    H271304   4.824   1.030   3.185 -0.2173 -1.3046 -0.4349
16605TIP3   OH271305   2.805   1.653   1.856 -0.7874 -0.3501 -0.4654
16605TIP3    H171306   2.888   1.607   1.845  0.1927  1.5341 -1.1080
16605TIP3    H271307   2.824   1.723   1.919 -2.0855 -0.3758 -0.0223
16606TIP3   OH271308   6.261   6.301   4.712 -0.1785 -0.0971 -0.2435
16606TIP3    H171309   6.268   6.358   4.635 -0.8876 -0.2257 -0.4122
16606TIP3    H271310   6.175   6.259   4.702 -0.6187  0.4806  1.0273
16607TIP3   OH271311   0.210   0.147   2.984  0.6781 -0.2913  0.1820
16607TIP3    H171312   0.238   0.239   2.987  1.8147 -0.6391  0.7438
16607TIP3    H271313   0.169   0.132   3.069 -0.0846 -0.1282 -0.1572
16608TIP3   OH271314   4.479   7.065   2.365 -0.1240  0.1381  0.0061
16608TIP3    H171315   4.402   7.019   2.396  0.4258 -0.9025 -0.1360
16608TIP3    H271316   4.534   6.996   2.327  1.3433  0.7145  1.0649
16609TIP3   OH271317   2.592   1.225   1.977  0.5116  0.1240  0.1998
16609TIP3    H171318   2.571   1.161   1.909 -1.3684  0.4360  0.4712
16609TIP3    H271319   2.613   1.305   1.929  0.2139  0.0538 -0.0473
16610TIP3   OH271320   2.340   5.854   2.888  0.2553 -0.2335  0.4981
16610TIP3    H171321   2.269   5.839   2.950 -0.4156 -1.9208 -0.6243
16610TIP3    H271322   2.418   5.820   2.931  0.1450  0.4341  1.2194
16611TIP3   OH271323   3.083   1.742   2.924  0.0630 -0.4185  0.5542
16611TIP3    H171324   3.019   1.679   2.890  0.0063 -0.7715  1.3001
16611TIP3    H271325   3.084   1.813   2.859 -0.7623 -0.6157  0.3241
16612TIP3   OH271326   6.793   0.385   3.217 -0.4575 -0.5053 -0.1217
16612TIP3    H171327   6.861   0.437   3.174 -0.2860  0.2466  1.0279
16612TIP3    H271328   6.840   0.336   3.285 -1.0974  0.3096  0.9338
16613TIP3   OH271329   3.584   0.062   4.535  0.3695 -0.5297 -0.1139
16613TIP3    H171330   3.638   0.036   4.608  0.2119 -1.7016 -0.4101
16613TIP3    H271331   3.627   0.025   4.458  0.9872  1.3761 -0.7232
16614TIP3   OH271332   5.053   1.785   0.798  0.1536  0.1271 -0.2409
16614TIP3    H171333   5.087   1.854   0.742  1.2388 -1.7820 -1.9896
16614TIP3    H271334   4.976   1.824   0.840  0.0403  2.0048 -2.0991
16615TIP3   OH271335   4.900   5.478   1.059 -0.0359 -0.3063  0.4223
16615TIP3    H171336   4.976   5.533   1.043 -0.8589  1.1445  1.4418
16615TIP3    H271337   4.929   5.390   1.033  0.9982  0.7111 -2.0710
16616TIP3   OH271338   3.013   1.332   3.458  0.0977 -0.4301  0.7488
16616TIP3    H171339   3.091   1.278   3.441  1.3800  1.1485  1.4599
16616TIP3    H271340   2.975   1.347   3.372  1.3417 -0.1291  0.2398
16617TIP3   OH271341   2.880   6.137   4.294 -0.1263  0.1496  0.1111
16617TIP3    H171342   2.833   6.089   4.227 -2.6176 -0.0266  1.9281
16617TIP3    H271343   2.884   6.077   4.369  0.7133  1.1361  0.8777
16618TIP3   OH271344   5.277   6.719   4.354  0.3534  0.1530  0.2521
16618TIP3    H171345   5.288   6.632   4.315 -0.5045  0.0687  0.1787
16618TIP3    H271346   5.334   6.719   4.430  0.1974 -0.5605  0.3719
16619TIP3   OH271347   4.861   1.846   3.431  0.0015 -0.0913 -0.3244
16619TIP3    H171348   4.866   1.790   3.508  0.6733 -1.4464 -1.3228
16619TIP3    H271349   4.797   1.913   3.453 -0.8200 -1.2659  0.8866
16620TIP3   OH271350   2.609   5.506   5.578  0.1016  0.5870  0.3803
16620TIP3    H171351   2.617   5.587   5.527  1.5530  1.7464  2.4023
16620TIP3    H271352   2.699   5.480   5.596 -0.3888 -0.3855  1.4962
16621TIP3   OH271353   4.327   0.048   1.546 -0.2510 -0.8614  0.3743
16621TIP3    H171354   4.328   0.127   1.600 -0.2721 -1.5830  1.4491
16621TIP3    H271355   4.417   0.037   1.517 -0.3276 -0.2201 -0.0985
16622TIP3   OH271356   3.979   6.332   1.165 -0.0835 -0.0175  0.5370
16622TIP3    H171357   4.053   6.381   1.201 -0.3999 -0.4288  1.7893
16622TIP3    H271358   3.973   6.255   1.222 -0.7681 -0.5506 -0.2544
16623TIP3   OH271359   4.849   1.957   4.376  0.2628 -0.1157  0.5113
16623TIP3    H171360   4.792   2.017   4.328  0.8522 -0.3472 -0.4742
16623TIP3    H271361   4.937   1.977   4.345  1.0500  1.7808  3.6127
16624TIP3   OH271362   3.434   6.847   2.286 -0.0123  0.6167  0.3024
16624TIP3    H171363   3.493   6.795   2.232 -0.3502 -0.1425  0.6605
16624TIP3    H271364   3.399   6.913   2.226  0.4280  0.4399 -0.1513
16625TIP3   OH271365   2.245   5.357   3.499  0.1212 -0.0983 -0.4345
16625TIP3    H171366   2.161   5.316   3.515  0.6855 -1.2861 -0.4641
16625TIP3    H271367   2.258   5.416   3.573  0.3236 -1.6537  0.7832
16626TIP3   OH271368   3.843   6.428   2.653 -0.1840  0.3507  0.2850
16626TIP3    H171369   3.911   6.493   2.669 -2.4513  2.8972  0.0450
16626TIP3    H271370   3.856   6.361   2.721  4.0499 -0.5625 -1.3219
16627TIP3   OH271371   0.136   6.844   2.897 -0.4278 -0.0453  0.0576
16627TIP3    H171372   0.169   6.782   2.962  0.2507  0.6458  0.3739
16627TIP3    H271373   0.055   6.804   2.864 -0.9259 -0.2518  1.5337
16628TIP3   OH271374   3.975   6.630   3.139 -0.5080  0.2143 -0.2093
16628TIP3    H171375   3.965   6.725   3.134  1.4534  0.5145  0.8756
16628TIP3    H271376   4.043   6.609   3.075 -0.8001 -0.4256 -0.3147
16629TIP3   OH271377   2.706   5.561   0.873  0.5385  0.3713  0.2400
16629TIP3    H171378   2.747   5.646   0.857  0.8631  0.3002  0.6881
16629TIP3    H271379   2.684   5.562   0.966  0.6360 -0.0766  0.2675
16630TIP3   OH271380   3.113   5.742   4.154  0.4373 -0.6781  0.0011
16630TIP3    H171381   3.207   5.725   4.144  0.6754  0.3354  0.5075
16630TIP3    H271382   3.106   5.837   4.157 -0.7020 -0.7222 -0.9225
16631TIP3   OH271383   3.863   0.175   2.577  0.9616  0.2627 -0.9675
16631TIP3    H171384   3.921   0.140   2.644  0.1865 -0.9610 -0.9237
16631TIP3    H271385   3.811   0.100   2.549 -2.1786  1.7541  0.5971
16632TIP3   OH271386   0.927   6.835   3.679 -0.0817  0.1720  0.0023
16632TIP3    H171387   0.839   6.872   3.673 -1.1337 -2.5693 -2.8821
16632TIP3    H271388   0.930   6.793   3.765 -1.8278 -0.2013 -0.1018
16633TIP3   OH271389   2.990   0.309   3.479 -0.5378  0.3107  0.0230
16633TIP3    H171390   3.079   0.298   3.444 -0.5137  2.7798 -0.7584
16633TIP3    H271391   2.998   0.286   3.572  0.7602 -0.1313 -0.1864
16634TIP3   OH271392   5.588   4.892   3.945  0.2901 -0.1003  0.3814
16634TIP3    H171393   5.591   4.925   4.034  1.2366 -0.3870  0.4549
16634TIP3    H271394   5.675   4.909   3.909  1.4004 -3.9986  0.9853
16635TIP3   OH271395   5.967   6.980   4.365  0.2416  0.8354  0.1464
16635TIP3    H171396   5.935   6.907   4.417  1.0465  1.7987  2.0605
16635TIP3    H271397   5.889   7.019   4.326 -0.2330 -0.7282 -0.4854
16636TIP3   OH271398   5.166   6.646   3.117 -0.5692 -0.3897 -0.5746
16636TIP3    H171399   5.205   6.628   3.202 -0.9759 -0.3908 -0.3873
16636TIP3    H271400   5.157   6.741   3.114 -1.3818 -0.4483 -0.2427
16637TIP3   OH271401   2.615   0.204   4.545  0.6310 -0.7738 -0.0252
16637TIP3    H171402   2.662   0.212   4.462 -1.6706  0.5650 -1.2585
16637TIP3    H271403   2.633   0.286   4.591 -3.1137  1.3094 -1.9948
16638TIP3   OH271404   3.815   6.315   3.871 -0.3859  0.4096  0.4640
16638TIP3    H171405   3.759   6.391   3.885 -2.3069 -0.8533 -0.2012
16638TIP3    H271406   3.855   6.298   3.956 -2.4553  0.2054  1.4019
16639TIP3   OH271407   5.496   2.321   2.286  0.0133 -0.0809 -0.2944
16639TIP3    H171408   5.553   2.247   2.263  0.6009 -0.1767  1.4022
16639TIP3    H271409   5.528   2.350   2.371 -1.8712  0.4906  0.2418
16640TIP3   OH271410   5.323   2.693   3.003 -0.0697  0.2758  0.6174
16640TIP3    H171411   5.273   2.639   3.064 -2.0599 -0.0229 -1.1982
16640TIP3    H271412   5.343   2.773   3.052 -3.2139  0.8233  1.1400
16641TIP3   OH271413   1.327   7.308   1.689 -0.6112  0.0461  0.5349
16641TIP3    H171414   1.360   7.340   1.605 -1.4293 -0.8713 -0.1349
16641TIP3    H271415   1.303   7.387   1.737  1.1472  0.6611  0.4636
16642TIP3   OH271416   3.300   7.126   4.052  0.5725  0.4440  0.3043
16642TIP3    H171417   3.249   7.207   4.044 -0.3089 -0.1462 -0.1602
16642TIP3    H271418   3.257   7.065   3.992  0.5666 -0.7111  1.4581
16643TIP3   OH271419   5.523   7.093   2.693 -0.3499 -0.3051  0.6410
16643TIP3    H171420   5.493   7.091   2.602 -2.0861  1.1479  1.1681
16643TIP3    H271421   5.444   7.105   2.745  0.6963 -0.5087  2.3231
16644TIP3   OH271422   5.270   6.004   5.303 -0.1986  0.3791  0.3457
16644TIP3    H171423   5.204   6.006   5.372  0.5178  0.0158  1.0600
16644TIP3    H271424   5.340   6.061   5.335 -0.3154  1.0262 -0.5527
16645TIP3   OH271425   6.377   6.540   1.736 -0.2594  0.2229  0.1207
16645TIP3    H171426   6.440   6.557   1.666  1.1652 -0.7583  1.1226
16645TIP3    H271427   6.431   6.528   1.814 -1.8504  1.7784  1.4893
16646TIP3   OH271428   6.344   6.426   2.386  0.4301  0.1080 -0.0580
16646TIP3    H171429   6.426   6.421   2.338  0.3777 -0.1529 -0.1209
16646TIP3    H271430   6.279   6.451   2.320  0.1899 -1.1712 -0.3193
16647TIP3   OH271431   5.284   4.381   2.860 -0.2345  0.2935  0.0935
16647TIP3    H171432   5.333   4.305   2.829  0.3236 -0.5474  2.8515
16647TIP3    H271433   5.348   4.432   2.909 -0.7898  2.1871 -1.1232
16648TIP3   OH271434   4.873   6.050   3.686 -0.0111 -0.7142  0.2032
16648TIP3    H171435   4.957   6.004   3.676  1.2084  1.4749  0.1080
16648TIP3    H271436   4.820   6.019   3.613  0.8147 -1.9069  0.0914
16649TIP3   OH271437   4.964   5.553   3.794  0.2670 -0.1580  0.3743
16649TIP3    H171438   4.921   5.543   3.709  0.2008 -2.4350  0.6382
16649TIP3    H271439   4.917   5.625   3.837  0.6308  1.3420 -1.6889
16650TIP3   OH271440   0.093   4.177   2.940  0.1011 -0.5272 -0.4055
16650TIP3    H171441   0.111   4.182   2.846  1.7428 -0.7379 -0.1122
16650TIP3    H271442   0.106   4.085   2.963 -0.7811 -0.5701 -0.0589
16651TIP3   OH271443   5.139   0.629   1.246  0.4363  0.3228  0.4526
16651TIP3    H171444   5.120   0.619   1.153  1.9944  1.2902 -0.0007
16651TIP3    H271445   5.230   0.660   1.249  1.0363 -1.4487  2.3602
16652TIP3   OH271446   4.035   5.513   2.969  0.1859  0.2676  0.0914
16652TIP3    H171447   3.997   5.435   3.009 -0.2249 -0.1993 -1.2100
16652TIP3    H271448   4.087   5.552   3.040  2.0612 -2.2690  0.2224
16653TIP3   OH271449   1.675   5.559   4.707 -0.6572  0.2061  0.4738
16653TIP3    H171450   1.619   5.635   4.726 -1.6772 -0.8847  1.9150
16653TIP3    H271451   1.628   5.485   4.744  1.1584 -0.9089  0.6008
16654TIP3   OH271452   7.175   6.788   3.876  0.1108  0.3356 -0.1595
16654TIP3    H171453   7.247   6.813   3.817 -0.1815  0.3554 -0.5071
16654TIP3    H271454   7.199   6.701   3.908  0.0425  0.1297 -0.6680
16655TIP3   OH271455   5.347   6.923   3.548  0.1878  0.3612  0.6109
16655TIP3    H171456   5.294   6.847   3.525  0.5241  0.0325  0.9218
16655TIP3    H271457   5.432   6.886   3.575  0.0791  0.7908  1.5616
16656TIP3   OH271458   3.567   6.503   2.681 -0.2827 -0.5505  0.4801
16656TIP3    H171459   3.567   6.518   2.775  1.0878  0.2894  0.3589
16656TIP3    H271460   3.659   6.497   2.657 -0.5999 -0.1152 -0.9147
16657TIP3   OH271461   0.656   0.175   2.544  0.1594 -0.4864  0.7589
16657TIP3    H171462   0.648   0.080   2.547 -2.0517 -0.3400  0.5117
16657TIP3    H271463   0.671   0.195   2.452 -1.0134 -0.4990  0.5598
16658TIP3   OH271464   2.101   6.624   2.208 -0.1192 -0.1691 -0.0546
16658TIP3    H171465   2.062   6.693   2.156  0.3835  0.6512  0.6427
16658TIP3    H271466   2.046   6.618   2.286  1.1908  1.0941  1.0024
16659TIP3   OH271467   3.977   2.690   5.087  0.4629  0.2017 -0.1727
16659TIP3    H171468   3.900   2.633   5.079  1.2951 -0.6802 -2.1844
16659TIP3    H271469   4.003   2.708   4.997  3.6121 -0.9001  0.4508
16660TIP3   OH271470   4.563   6.944   3.103  0.1569  0.1502 -0.6970
16660TIP3    H171471   4.470   6.934   3.122  0.0474 -0.2023 -1.3986
16660TIP3    H271472   4.579   7.039   3.111  0.1757  0.0021  1.3193
16661TIP3   OH271473   5.249   1.529   2.342 -0.5540  0.2474 -0.1242
16661TIP3    H171474   5.255   1.593   2.271  0.1233  0.0898 -0.2147
16661TIP3    H271475   5.155   1.522   2.361 -0.6062  1.6264  0.2073
16662TIP3   OH271476   5.878   0.806   3.615 -0.4304  0.2071  0.0693
16662TIP3    H171477   5.929   0.749   3.557 -0.3219 -0.1558  0.5139
16662TIP3    H271478   5.907   0.895   3.593  1.3131 -0.0671  1.1676
16663TIP3   OH271479   5.467   7.103   1.254 -0.3203 -0.0755 -0.4659
16663TIP3    H171480   5.526   7.027   1.244  0.4696  0.6039 -1.0453
16663TIP3    H271481   5.499   7.166   1.190 -0.1852  1.2405  0.8617
16664TIP3   OH271482   5.302   4.739   2.403 -0.1316 -0.2977  0.5222
16664TIP3    H171483   5.233   4.781   2.352  0.0228 -1.0959 -0.3754
16664TIP3    H271484   5.359   4.699   2.337 -0.1223 -1.6510  1.3274
16665TIP3   OH271485   6.113   6.967   1.693 -0.1765 -0.0463  0.1399
16665TIP3    H171486   6.121   6.882   1.737 -1.2911 -0.5830 -0.6638
16665TIP3    H271487   6.126   6.947   1.600  0.1701  0.7725  0.0028
16666TIP3   OH271488   4.108   6.933   1.430  0.4403  0.3509  0.4575
16666TIP3    H171489   4.027   6.886   1.411  0.7622  0.7753 -2.0855
16666TIP3    H271490   4.169   6.866   1.459 -0.8798  0.0688  2.6794
16667TIP3   OH271491   2.302   0.066   1.155 -0.1413 -0.4588  0.1665
16667TIP3    H171492   2.242   0.041   1.084 -0.8916  2.5325 -0.2968
16667TIP3    H271493   2.253   0.049   1.235 -2.5838  4.0430 -0.2326
16668TIP3   OH271494   6.442   6.348   3.763 -0.2330  0.2709  0.9964
16668TIP3    H171495   6.356   6.328   3.727  0.6820 -1.0486 -0.5116
16668TIP3    H271496   6.438   6.317   3.853 -1.1688 -0.2304  0.7894
16669TIP3   OH271497   3.119   7.109   2.354  0.4763  0.1429  0.4887
16669TIP3    H171498   3.069   7.030   2.372  0.9529  0.1182  1.7651
16669TIP3    H271499   3.195   7.104   2.412  1.4345  0.6775 -0.6895
16670TIP3   OH271500   0.179   4.477   2.015  0.0189 -0.0555 -0.2031
16670TIP3    H171501   0.086   4.498   2.001  0.1485  0.4189 -0.3712
16670TIP3    H271502   0.189   4.388   1.979 -0.2372  0.1338 -0.7515
16671TIP3   OH271503   2.230   0.987   1.436  0.1062  0.3864 -0.0649
16671TIP3    H171504   2.203   1.076   1.461  0.3896 -0.2720  2.7587
16671TIP3    H271505   2.160   0.931   1.468  0.6364 -0.5357 -0.5198
16672TIP3   OH271506   4.746   0.876   1.138 -0.2633 -0.2681 -0.4184
16672TIP3    H171507   4.722   0.822   1.062 -0.6626 -1.8847  0.8255
16672TIP3    H271508   4.662   0.908   1.171  0.0918  3.2037 -2.5722
16673TIP3   OH271509   4.172   0.217   3.210  0.6523  0.3714  0.3218
16673TIP3    H171510   4.080   0.239   3.226  0.5913 -0.1735  0.7472
16673TIP3    H271511   4.178   0.202   3.116  0.5181  1.3834  0.1467
16674TIP3   OH271512   2.125   5.973   3.738 -0.1260  0.0771  0.7880
16674TIP3    H171513   2.071   6.048   3.760 -0.7918 -0.2298  0.2374
16674TIP3    H271514   2.115   5.964   3.643 -1.5824 -1.8576  1.0908
16675TIP3   OH271515   2.749   5.042   5.529 -0.2621  0.2228 -0.3121
16675TIP3    H171516   2.656   5.051   5.551  0.0797  1.5473  0.6828
16675TIP3    H271517   2.750   5.000   5.443 -1.8304  1.6358 -1.0446
16676TIP3   OH271518   6.548   4.889   2.478  0.0512  0.1440 -0.8635
16676TIP3    H171519   6.531   4.962   2.538  3.1793 -1.3289  2.0698
16676TIP3    H271520   6.621   4.920   2.424  1.0145 -0.5465  0.0131
16677TIP3   OH271521   6.170   0.847   3.841  0.2697 -1.1141 -0.3012
16677TIP3    H171522   6.209   0.888   3.765 -0.0504 -1.4831 -0.6662
16677TIP3    H271523   6.155   0.919   3.902  0.4133 -0.8023 -0.6346
16678TIP3   OH271524   1.150   0.181   2.503  0.0372  0.1392  0.0721
16678TIP3    H171525   1.201   0.211   2.428 -1.6227  0.7200 -0.8615
16678TIP3    H271526   1.193   0.220   2.579  0.3084  1.5396 -0.7833
16679TIP3   OH271527   7.234   6.508   2.489 -0.0754 -0.5782  0.2039
16679TIP3    H171528   7.254   6.427   2.537 -0.5487  1.2057  3.5931
16679TIP3    H271529   7.141   6.522   2.504 -0.7371 -1.0922 -3.1473
16680TIP3   OH271530   5.424   1.060   3.029 -0.6155 -0.1443  0.5165
16680TIP3    H171531   5.377   1.142   3.041 -1.1835 -0.5867  1.3280
16680TIP3    H271532   5.363   1.004   2.981  0.4776  0.5450 -1.7462
16681TIP3   OH271533   0.310   5.065   1.851 -0.0723  0.2313 -0.0521
16681TIP3    H171534   0.291   5.120   1.775 -2.1720 -1.0410 -0.5227
16681TIP3    H271535   0.349   4.986   1.813 -0.0516  0.0806  0.2838
16682TIP3   OH271536   6.544   6.493   1.954  0.3867  0.3539 -0.3988
16682TIP3    H171537   6.624   6.529   1.992  0.3346 -0.2342  0.2668
16682TIP3    H271538   6.531   6.410   1.999 -1.2573  0.9946  0.3404
16683TIP3   OH271539   0.303   7.149   2.185  0.1166  0.2932 -0.2975
16683TIP3    H171540   0.267   7.235   2.161 -0.6351  0.2457  0.6231
16683TIP3    H271541   0.394   7.166   2.209  0.3075  0.6467 -1.2561
16684TIP3   OH271542   5.387   6.763   2.163 -0.3791 -0.5124  0.1172
16684TIP3    H171543   5.317   6.765   2.098  0.0780 -1.6991 -0.4272
16684TIP3    H271544   5.346   6.795   2.244 -0.9544  0.9677 -0.7281
16685TIP3   OH271545   0.438   6.061   3.494 -0.0683 -0.0354 -0.1527
16685TIP3    H171546   0.440   6.043   3.588  0.0058 -1.4033 -0.4084
16685TIP3    H271547   0.359   6.114   3.482  0.9458  1.7813  0.9463
16686TIP3   OH271548   0.015   6.399   3.740  0.2462  0.3294  0.1013
16686TIP3    H171549   0.108   6.376   3.747  0.3867  0.3915 -1.4476
16686TIP3    H271550  -0.030   6.315   3.737  0.3274  0.2947 -0.1447
16687TIP3   OH271551   6.185   0.760   0.240  0.3222 -0.3860  0.1383
16687TIP3    H171552   6.110   0.797   0.194 -0.2377 -0.3404  1.0801
16687TIP3    H271553   6.240   0.835   0.263 -1.3700  0.0296  3.0506
16688TIP3   OH271554   7.065   6.229   5.122  0.1363  0.5467  0.6403
16688TIP3    H171555   7.003   6.292   5.159  0.3594  0.7309  0.7047
16688TIP3    H271556   7.110   6.192   5.198  0.4607  0.7840  0.5642
16689TIP3   OH271557   6.883   4.322   2.314  0.2842  0.5154  0.4930
16689TIP3    H171558   6.860   4.371   2.394  1.2174  2.8542 -0.6362
16689TIP3    H271559   6.978   4.318   2.315  0.2167 -1.1518  0.4754
16690TIP3   OH271560   0.008   6.503   4.208 -0.1002 -0.4662  0.2235
16690TIP3    H171561  -0.006   6.412   4.237 -0.0011  0.2718  2.7088
16690TIP3    H271562   0.091   6.528   4.250 -0.8593  1.2449  0.7164
16691TIP3   OH271563   6.817   5.073   2.482  0.1861  0.0426  0.3676
16691TIP3    H171564   6.825   5.066   2.387  1.9717 -0.2111  0.5144
16691TIP3    H271565   6.816   4.982   2.513  4.8453  0.0619  0.9306
16692TIP3   OH271566   0.430   6.520   2.978 -0.4095 -0.0844  0.1337
16692TIP3    H171567   0.506   6.491   2.927  0.9441  1.9065  0.9626
16692TIP3    H271568   0.359   6.523   2.914  0.3004 -1.5470 -0.7508
16693TIP3   OH271569   3.874   6.196   1.945 -0.1298 -0.1349 -0.3403
16693TIP3    H171570   3.780   6.215   1.935 -0.4844 -0.8257  1.4821
16693TIP3    H271571   3.912   6.221   1.861 -1.8991  0.4632 -0.9995
16694TIP3   OH271572   0.238   6.045   2.780  0.1034 -0.1306  0.1001
16694TIP3    H171573   0.167   5.985   2.758 -0.6686  1.1795 -1.0256
16694TIP3    H271574   0.227   6.119   2.721  2.0915  0.3412  0.2714
16695TIP3   OH271575   0.085   6.392   1.942 -0.0159  0.0997  0.0153
16695TIP3    H171576   0.020   6.330   1.910 -0.9247  1.4494 -0.8010
16695TIP3    H271577   0.035   6.472   1.960  1.0315  0.4136  1.6449
16696TIP3   OH271578   0.365   1.758   4.206  0.3215 -0.2064 -0.2790
16696TIP3    H171579   0.311   1.837   4.218 -1.6458 -1.8760  2.4921
16696TIP3    H271580   0.452   1.786   4.233 -0.4902  0.8846  1.3264
16697TIP3   OH271581   4.497   0.119   5.409  0.2136 -0.0437  0.0162
16697TIP3    H171582   4.558   0.085   5.343  1.5840 -0.1125  1.2834
16697TIP3    H271583   4.429   0.052   5.416  0.4092 -0.3344 -0.8571
16698TIP3   OH271584   6.962   1.874   2.704  0.2361 -0.0247 -0.2523
16698TIP3    H171585   7.006   1.827   2.633  0.5018  0.2983 -0.2988
16698TIP3    H271586   6.870   1.876   2.677  0.6387  1.8111 -1.5288
16699TIP3   OH271587   0.199   5.636   3.554  0.2647  0.4665  0.2643
16699TIP3    H171588   0.145   5.622   3.476  1.1777  1.4110 -0.5471
16699TIP3    H271589   0.217   5.730   3.554  1.5544  0.2215  0.7728
16700TIP3   OH271590   0.501   6.743   0.832 -0.2703 -0.6604  0.6693
16700TIP3    H171591   0.499   6.648   0.818 -0.1400 -0.4767 -0.5818
16700TIP3    H271592   0.520   6.780   0.746 -1.0816  0.5399  0.9951
16701TIP3   OH271593   1.129   6.620   1.278 -0.2549 -0.1519  0.0827
16701TIP3    H171594   1.124   6.715   1.293 -1.2553 -0.1742 -0.0793
16701TIP3    H271595   1.117   6.610   1.184 -0.5738 -0.4670  0.1568
16702TIP3   OH271596   0.562   1.154   3.614  0.1696 -0.2750  0.3719
16702TIP3    H171597   0.598   1.065   3.616 -0.3050 -0.4828 -0.1593
16702TIP3    H271598   0.498   1.155   3.685 -1.3223 -1.0143 -0.9316
16703TIP3   OH271599   0.426   1.264   3.811  0.1841  0.0077  0.1337
16703TIP3    H171600   0.405   1.352   3.780  4.0719  1.8403  2.2710
16703TIP3    H271601   0.404   1.265   3.904 -1.9331 -2.0912 -0.3150
16704TIP3   OH271602   5.355   5.176   1.861  0.7704 -0.9510  0.5281
16704TIP3    H171603   5.450   5.176   1.848  0.5702 -0.9351 -1.0133
16704TIP3    H271604   5.320   5.220   1.783 -0.5635 -1.8259  0.6201
16705TIP3   OH271605   6.641   6.373   2.297 -0.0816 -0.4975 -0.1180
16705TIP3    H171606   6.642   6.282   2.269  0.0217 -0.6071  0.2474
16705TIP3    H271607   6.663   6.371   2.390 -0.3728 -0.1249 -0.0352
16706TIP3   OH271608   5.648   1.395   2.411 -0.1891 -0.2218  0.5844
16706TIP3    H171609   5.704   1.318   2.419 -0.4077 -0.4207  0.2207
16706TIP3    H271610   5.689   1.460   2.468  0.5257 -0.3006  0.1750
16707TIP3   OH271611   1.779   6.572   3.948  0.0398 -0.4171 -0.1847
16707TIP3    H171612   1.696   6.614   3.929  1.1147  1.4589 -0.9100
16707TIP3    H271613   1.769   6.535   4.035 -0.5061  2.5425  1.0444
16708TIP3   OH271614   0.192   4.255   0.241  0.2453  0.6039 -0.1894
16708TIP3    H171615   0.280   4.290   0.254 -0.2605  1.4758  0.9693
16708TIP3    H271616   0.170   4.214   0.325  0.6534 -2.1314 -1.3605
16709TIP3   OH271617   3.496   2.303   2.624 -0.4581 -0.4087 -0.0863
16709TIP3    H171618   3.534   2.250   2.554  1.0918  0.2748  0.2357
16709TIP3    H271619   3.407   2.321   2.594 -0.3635 -1.5515 -1.0921
16710TIP3   OH271620   6.530   7.250   2.758 -0.1549  0.8178 -0.1738
16710TIP3    H171621   6.516   7.336   2.719  0.6622  1.1188  0.1969
16710TIP3    H271622   6.453   7.237   2.814 -0.9686  0.6985 -1.3052
16711TIP3   OH271623   0.388   6.097   4.708  0.4098  0.2483 -0.2134
16711TIP3    H171624   0.356   6.106   4.797  0.2703 -2.9286  0.1278
16711TIP3    H271625   0.317   6.131   4.653 -0.1672  0.7238  0.8151
16712TIP3   OH271626   5.392   6.294   2.666 -0.3533 -0.2705 -0.4603
16712TIP3    H171627   5.338   6.331   2.737  0.6153 -2.0098  1.2188
16712TIP3    H271628   5.444   6.368   2.635  1.2969 -0.0539  2.6169
16713TIP3   OH271629   7.331   6.872   0.869  0.1333  0.0275  0.0180
16713TIP3    H171630   7.257   6.835   0.823  0.7409  0.1341 -1.0636
16713TIP3    H271631   7.374   6.798   0.911  0.1137 -0.1961 -0.3615
16714TIP3   OH271632   6.739   6.643   3.879 -0.0612 -0.2347  0.9657
16714TIP3    H171633   6.773   6.618   3.793 -0.3974  0.7361  0.5492
16714TIP3    H271634   6.812   6.631   3.939 -0.0706 -1.7479  0.6927
16715TIP3   OH271635   6.371   6.729   3.869 -0.1737 -0.1444  0.3757
16715TIP3    H171636   6.398   6.815   3.901 -2.2756  0.7578 -0.2446
16715TIP3    H271637   6.426   6.714   3.792  0.2331  0.6210  0.5088
16716TIP3   OH271638   7.006   7.125   4.689 -0.2239  0.1249 -0.0720
16716TIP3    H171639   7.077   7.102   4.750 -0.6370  0.2314  0.4486
16716TIP3    H271640   7.050   7.174   4.619  0.6226 -1.9545 -1.0434
16717TIP3   OH271641   6.783   6.179   1.977  0.2120  0.0614 -0.3236
16717TIP3    H171642   6.775   6.086   1.997  0.8182 -0.1004 -0.8279
16717TIP3    H271643   6.698   6.203   1.940 -0.5484  0.1152  1.3744
16718TIP3   OH271644   3.100   6.064   2.200  0.2683 -0.3505  0.1447
16718TIP3    H171645   3.016   6.089   2.163 -0.0158 -0.1222  0.9489
16718TIP3    H271646   3.165   6.097   2.137 -0.1461  1.3347  0.5870
16719TIP3   OH271647   5.876   1.313   4.970 -0.1309 -0.0198  0.6857
16719TIP3    H171648   5.833   1.287   5.051 -0.2200 -0.6410  0.4412
16719TIP3    H271649   5.952   1.255   4.963 -0.2756 -0.1511  0.1891
16720TIP3   OH271650   2.981   7.177   1.935 -0.1578 -0.6721 -1.4927
16720TIP3    H171651   3.019   7.258   1.902  0.0367 -0.3991 -0.5975
16720TIP3    H271652   2.959   7.195   2.026  1.4161 -2.1247 -0.7927
16721TIP3   OH271653   1.017   0.010   3.368 -0.2524 -0.2313 -0.0353
16721TIP3    H171654   0.945   0.028   3.307 -0.2984 -0.2937  0.0009
16721TIP3    H271655   1.096   0.022   3.316 -0.3127 -1.8425 -0.5258
16722TIP3   OH271656   1.088   6.996   3.299  0.0275 -0.4933  0.5944
16722TIP3    H171657   1.053   7.029   3.382 -1.9790  0.1884 -0.5182
16722TIP3    H271658   1.032   7.033   3.232  3.1713  1.0451 -1.3084
16723TIP3   OH271659   6.548   7.267   3.091 -0.0017 -0.4138 -0.6923
16723TIP3    H171660   6.575   7.350   3.130  0.3274 -1.5130  1.5469
16723TIP3    H271661   6.613   7.249   3.023  2.3194 -0.7791  1.5450
16724TIP3   OH271662   7.145   6.439   2.923 -0.2121  0.2148  0.2970
16724TIP3    H171663   7.216   6.464   2.982  0.7342 -1.6752  0.0209
16724TIP3    H271664   7.119   6.352   2.954 -2.3885  0.8798  0.3742
16725TIP3   OH271665   0.380   5.731   4.028 -0.2951  0.2445 -0.3748
16725TIP3    H171666   0.389   5.746   4.122  1.9770 -3.0437  0.0281
16725TIP3    H271667   0.290   5.698   4.018 -0.5975  0.7523  0.5972
16726TIP3   OH271668   0.998   6.285   1.559 -0.3251  0.4179  0.1894
16726TIP3    H171669   0.988   6.257   1.468  0.3724 -0.7203  0.4606
16726TIP3    H271670   1.024   6.377   1.553  1.7300 -0.2015 -0.8235
16727TIP3   OH271671   6.883   7.326   3.417 -0.2089 -0.2500  0.1909
16727TIP3    H171672   6.921   7.297   3.500 -0.3762 -2.1835 -0.3892
16727TIP3    H271673   6.829   7.253   3.388 -0.9510  0.7929 -1.1423
16728TIP3   OH271674   6.421   4.110   1.964 -0.0163 -0.1427 -0.8633
16728TIP3    H171675   6.413   4.161   1.884  2.0296  0.9227 -0.4196
16728TIP3    H271676   6.488   4.155   2.015 -0.7950 -1.2024  1.1519
16729TIP3   OH271677   6.274   0.731   2.873 -0.1230  0.8058 -0.2600
16729TIP3    H171678   6.257   0.823   2.853  0.8166  1.0806  0.1651
16729TIP3    H271679   6.248   0.722   2.965  3.2709  1.5943  0.8548
16730TIP3   OH271680   5.099   0.068   3.100  0.0555  0.2874 -0.0034
16730TIP3    H171681   5.105   0.033   3.188  1.4939 -0.9425 -0.5603
16730TIP3    H271682   5.037   0.141   3.107 -1.5050 -1.1519  1.5500
16731TIP3   OH271683   5.065   6.513   3.814 -0.0467 -0.9303 -0.1097
16731TIP3    H171684   5.140   6.527   3.757  0.0843  0.9086  0.4816
16731TIP3    H271685   5.063   6.418   3.829  1.6152 -1.0866 -0.8457
16732TIP3   OH271686   0.447   5.018   3.871 -0.1353  0.1435  0.4940
16732TIP3    H171687   0.352   5.030   3.882 -0.5995 -1.2946 -1.6142
16732TIP3    H271688   0.472   4.960   3.943 -1.0174 -0.1069  0.6120
16733TIP3   OH271689   6.200   4.316   2.099 -1.0345 -0.2633 -0.0979
16733TIP3    H171690   6.226   4.253   2.166 -1.4441  1.4559  1.7381
16733TIP3    H271691   6.113   4.288   2.071 -0.4160 -1.6099 -0.7003
16734TIP3   OH271692   0.804   6.748   4.424  0.5373 -0.3732  0.1853
16734TIP3    H171693   0.749   6.718   4.496  0.6536 -2.1722 -0.4552
16734TIP3    H271694   0.862   6.674   4.405  0.7943  0.2238 -1.4824
16735TIP3   OH271695   6.412   6.551   1.118  0.2644  0.3813  0.3896
16735TIP3    H171696   6.450   6.580   1.035 -2.3898  0.0346 -0.9748
16735TIP3    H271697   6.375   6.631   1.157  0.2029  0.2724  0.5571
16736TIP3   OH271698   1.276   5.916   1.037  0.0767 -0.7006 -0.1045
16736TIP3    H171699   1.283   5.822   1.020 -0.1112 -0.9960  1.4189
16736TIP3    H271700   1.222   5.923   1.116  2.8932  0.5357  1.8036
16737TIP3   OH271701   6.239   0.772   1.702  0.4389  0.0410  0.6709
16737TIP3    H171702   6.221   0.818   1.784  0.0393  1.4115 -0.1796
16737TIP3    H271703   6.159   0.784   1.649  0.2072 -1.8472  0.5243
16738TIP3   OH271704   6.787   6.172   0.771 -0.1047 -0.0214  0.9074
16738TIP3    H171705   6.707   6.172   0.825 -0.6962 -1.5758  0.0732
16738TIP3    H271706   6.847   6.230   0.818 -1.6366  0.9900  1.6825
16739TIP3   OH271707   1.415   4.055   3.011  0.5158 -0.1078  0.0223
16739TIP3    H171708   1.490   4.111   2.991  1.2396 -1.5012 -1.2806
16739TIP3    H271709   1.447   3.997   3.081  0.3767 -0.1090  0.0843
16740TIP3   OH271710   3.470   7.322   3.131 -0.1065  0.0299  0.1867
16740TIP3    H171711   3.484   7.229   3.113  0.8930  0.1658  0.2055
16740TIP3    H271712   3.514   7.336   3.215 -1.2031  0.2858  0.7326
16741TIP3   OH271713   1.759   6.845   0.724 -1.0226 -0.0608 -0.0570
16741TIP3    H171714   1.691   6.784   0.755 -0.2576 -0.1534  1.4721
16741TIP3    H271715   1.734   6.865   0.633 -1.1105 -2.8946 -0.6921
16742TIP3   OH271716   1.068   6.237   3.598 -0.5598 -0.1940 -0.0517
16742TIP3    H171717   1.094   6.276   3.681 -1.2120  1.9529 -0.8281
16742TIP3    H271718   1.012   6.163   3.623 -2.3723  1.6035  1.4328
16743TIP3   OH271719   5.425   5.568   0.859  0.0084  0.1406 -0.0305
16743TIP3    H171720   5.367   5.496   0.881 -0.2848  0.2791 -0.3376
16743TIP3    H271721   5.502   5.527   0.820  0.2889 -0.0685  0.7343
16744TIP3   OH271722   5.493   6.368   2.380 -0.2646 -0.1274 -0.2488
16744TIP3    H171723   5.583   6.335   2.375 -0.0692  0.6121 -2.1180
16744TIP3    H271724   5.441   6.303   2.332 -1.1909 -1.9559  3.0972
16745TIP3   OH271725   6.949   7.258   3.730  0.2696  0.1878 -0.1514
16745TIP3    H171726   7.044   7.251   3.740  0.2105  0.5215  0.6405
16745TIP3    H271727   6.917   7.286   3.816 -0.4250  1.2639 -0.7458
16746TIP3   OH271728   6.398   4.850   0.360  0.5455  0.9540  0.2368
16746TIP3    H171729   6.366   4.901   0.434 -1.8735  2.7764 -1.9771
16746TIP3    H271730   6.465   4.905   0.319  0.5342  0.7648 -0.0405
16747TIP3   OH271731   6.299   1.784  15.975  0.0060  0.0555 -0.1062
16747TIP3    H171732   6.376   1.783  16.032 -0.9096 -0.2150  1.1571
16747TIP3    H271733   6.291   1.693  15.946 -0.4172 -0.1290  0.5739
16748TIP3   OH271734   5.665   7.284   1.953  0.0680 -0.4518  0.4310
16748TIP3    H171735   5.703   7.225   1.889  0.0009 -1.0499  0.9414
16748TIP3    H271736   5.712   7.266   2.034  0.1652  0.3151  0.5474
16749TIP3   OH271737   0.984   3.970   0.593 -0.1899  0.1551 -0.0764
16749TIP3    H171738   1.042   3.976   0.668 -0.8262 -1.3551  0.5606
16749TIP3    H271739   0.909   3.920   0.624 -1.1305  0.7398 -1.3198
16750TIP3   OH271740   2.109   4.320   2.302  0.3883  0.0290  0.3380
16750TIP3    H171741   2.053   4.359   2.370  0.3419 -1.7888  1.3740
16750TIP3    H271742   2.073   4.232   2.290  2.0868 -0.6124 -0.0905
16751TIP3   OH271743   7.081   1.396   3.989 -0.4516 -0.1283  0.0210
16751TIP3    H171744   7.161   1.347   3.967  0.4316  0.9485  0.7598
16751TIP3    H271745   7.012   1.330   3.989  0.6939 -1.3635  0.8747
16752TIP3   OH271746   6.647   3.857   4.216 -0.6268  0.3255  0.4826
16752TIP3    H171747   6.738   3.887   4.207  0.0279 -1.1945  1.7411
16752TIP3    H271748   6.646   3.809   4.299 -2.0529 -1.5675 -0.6077
16753TIP3   OH271749   7.170   5.590   2.773  0.3428  0.0252  0.5771
16753TIP3    H171750   7.246   5.640   2.802  0.0661  1.0581 -0.4180
16753TIP3    H271751   7.151   5.624   2.685 -0.7654 -0.7960  0.4829
16754TIP3   OH271752   1.259   6.226   0.567 -0.3039 -0.0671  0.4919
16754TIP3    H171753   1.284   6.303   0.618 -0.3527  0.7414 -0.6984
16754TIP3    H271754   1.182   6.192   0.612 -0.4629  0.7588  0.8519
16755TIP3   OH271755   0.774   6.227   3.081  0.3882  0.8170 -0.0847
16755TIP3    H171756   0.851   6.280   3.062  1.0060 -0.1777 -0.3570
16755TIP3    H271757   0.808   6.140   3.099 -0.8122 -0.1219 -2.1701
16756TIP3   OH271758   0.022   6.081   0.226  0.3205 -0.1147 -0.7521
16756TIP3    H171759  -0.003   6.107   0.137 -0.4312  1.7129 -0.0126
16756TIP3    H271760  -0.032   6.135   0.283  1.0275 -1.0611  0.8331
16757TIP3   OH271761   0.867   5.145   4.873 -0.5518  0.6284  0.4253
16757TIP3    H171762   0.925   5.216   4.901 -1.0399  1.1772  0.0579
16757TIP3    H271763   0.878   5.077   4.940 -0.2364  1.1348  0.8917
16758TIP3   OH271764   0.254   0.903   1.514 -0.4600  0.3224 -0.1344
16758TIP3    H171765   0.328   0.853   1.547  0.7512  1.9640 -0.3072
16758TIP3    H271766   0.257   0.892   1.419  1.2778  2.6256 -0.4044
16759TIP3   OH271767   1.739   1.105   2.360  0.2899  0.7100  0.2773
16759TIP3    H171768   1.793   1.162   2.305 -1.9323  2.0535 -0.5829
16759TIP3    H271769   1.738   1.148   2.445  0.2573  0.8993  0.1824
16760TIP3   OH271770   5.152   6.844   1.920  0.6069 -0.4096  0.1192
16760TIP3    H171771   5.182   6.933   1.901 -0.3891  0.5482  2.7932
16760TIP3    H271772   5.080   6.830   1.859  1.0695  0.4279 -0.6399
16761TIP3   OH271773   5.444   0.342   0.810 -0.0666  0.3271 -0.1439
16761TIP3    H171774   5.489   0.273   0.859  0.0401  0.6043  0.1481
16761TIP3    H271775   5.351   0.323   0.823 -0.0572  1.4058  1.6042
16762TIP3   OH271776   6.767   0.032   2.886 -0.4164  0.0297  0.5962
16762TIP3    H171777   6.828  -0.042   2.895  1.6068  1.3680 -1.4263
16762TIP3    H271778   6.707   0.005   2.817 -0.1617 -0.0545  0.4056
16763TIP3   OH271779   7.153   1.750   2.496  0.3914 -0.4902 -0.4257
16763TIP3    H171780   7.168   1.823   2.436 -1.2474  2.1937  2.2478
16763TIP3    H271781   7.069   1.714   2.469 -0.5153  0.9374  0.4068
16764TIP3   OH271782   5.957   3.486   2.166 -0.0572  0.6040 -0.0687
16764TIP3    H171783   5.941   3.577   2.144 -0.4325  0.2549 -1.2496
16764TIP3    H271784   5.938   3.437   2.086 -0.9118 -0.6233  0.8639
16765TIP3   OH271785   0.941   0.439   2.393 -0.1819 -0.0559  1.0799
16765TIP3    H171786   0.900   0.525   2.397 -0.6815 -0.2403  0.1580
16765TIP3    H271787   1.033   0.455   2.414 -0.4737  0.5518  1.8718
16766TIP3   OH271788   6.554   7.276   3.730 -0.1492  0.4558 -0.1086
16766TIP3    H171789   6.626   7.222   3.761  0.2897  1.5715  0.8204
16766TIP3    H271790   6.523   7.322   3.808 -1.9924 -0.1555 -0.4486
16767TIP3   OH271791   0.435   6.211   4.015  0.3808  0.7189 -0.3214
16767TIP3    H171792   0.420   6.263   4.093 -1.6787 -0.5435  0.1418
16767TIP3    H271793   0.415   6.121   4.040  1.2332  0.0605 -1.8657
16768TIP3   OH271794   3.149   0.034   4.732 -0.9019 -0.0141 -0.2287
16768TIP3    H171795   3.224   0.090   4.712  0.1466 -1.3219 -0.0017
16768TIP3    H271796   3.140  -0.022   4.655 -1.6555  0.1420 -0.2556
16769TIP3   OH271797   5.402   1.683   1.597  0.2876 -0.0569 -0.6028
16769TIP3    H171798   5.328   1.643   1.643  1.5012 -0.7857  0.7831
16769TIP3    H271799   5.379   1.679   1.505 -0.8585 -1.3884 -0.2690
16770TIP3   OH271800   6.850   0.068   2.587  0.4236  0.3797 -0.0045
16770TIP3    H171801   6.903   0.123   2.645  1.4826  0.0280 -0.6171
16770TIP3    H271802   6.801   0.130   2.533 -0.0627  0.7082  0.8112
16771TIP3   OH271803   5.067   6.829   4.254 -0.3305  0.0431 -0.3049
16771TIP3    H171804   5.140   6.780   4.293  0.0038  0.3310 -0.5691
16771TIP3    H271805   5.033   6.772   4.185 -0.2042  0.0142 -0.3422
16772TIP3   OH271806   6.861   1.755   3.470  0.1680  1.0748  0.8800
16772TIP3    H171807   6.806   1.767   3.548  0.4412  2.2571  0.9124
16772TIP3    H271808   6.923   1.828   3.474  0.8767  0.5161  0.1289
16773TIP3   OH271809   3.586   0.849   1.834  0.1907 -0.0243  0.2444
16773TIP3    H171810   3.615   0.882   1.749  1.4248  0.3503  0.7902
16773TIP3    H271811   3.656   0.874   1.894 -1.0964  0.5349  1.5453
16774TIP3   OH271812   0.289   3.584   2.504 -0.2463 -0.4012  0.2956
16774TIP3    H171813   0.255   3.602   2.417 -2.6860 -2.0235  0.8460
16774TIP3    H271814   0.357   3.518   2.491  0.3455  0.3483 -0.4828
16775TIP3   OH271815   6.746   0.194   4.347  0.5744 -0.5050  0.1043
16775TIP3    H171816   6.729   0.280   4.384  1.8446 -0.4864  0.6800
16775TIP3    H271817   6.751   0.135   4.422  0.0198 -1.0272 -0.2628
16776TIP3   OH271818   7.168   0.474   3.650  0.2384 -0.4523  0.0259
16776TIP3    H171819   7.184   0.538   3.719  0.5634  0.7069 -1.1131
16776TIP3    H271820   7.072   0.466   3.647  0.0849  1.6137 -1.2876
16777TIP3   OH271821   0.345   1.355   4.062 -0.3315 -0.3343 -0.0866
16777TIP3    H171822   0.383   1.377   4.147 -0.3647 -1.5924  0.2778
16777TIP3    H271823   0.255   1.387   4.066  0.3970  1.7977 -0.5841
16778TIP3   OH271824   7.050   6.208   3.000  0.5602  0.2264 -0.1814
16778TIP3    H171825   6.988   6.152   2.955  1.3125 -0.4662 -0.3763
16778TIP3    H271826   7.123   6.150   3.023  0.4944  0.7087  1.3126
16779TIP3   OH271827   6.316   4.682   2.976  0.1957 -0.7115  0.9352
16779TIP3    H171828   6.371   4.703   2.900 -1.5477  0.1691 -0.1205
16779TIP3    H271829   6.376   4.640   3.038  2.6287  2.4030  0.8350
16780TIP3   OH271830   6.030   1.092  15.677  0.1158 -0.3568  0.8598
16780TIP3    H171831   6.021   1.138  15.761 -1.7474 -0.7381  0.8845
16780TIP3    H271832   6.045   1.001  15.702  1.2165 -0.2131  0.7747
16781TIP3   OH271833   6.863   5.397   2.173  0.0939 -0.2130 -0.4112
16781TIP3    H171834   6.860   5.476   2.119 -1.8078 -0.7071 -1.0441
16781TIP3    H271835   6.939   5.410   2.231 -0.6004  2.3537 -0.0539
16782TIP3   OH271836   1.723   4.666   1.568  0.1116  0.4486 -0.4417
16782TIP3    H171837   1.796   4.603   1.570 -0.2241  0.0768  0.8816
16782TIP3    H271838   1.765   4.751   1.578  0.4148  0.2785 -0.2479
16783TIP3   OH271839   0.214   5.490   4.283 -0.0470 -0.3840  0.4572
16783TIP3    H171840   0.167   5.564   4.245  0.8795  0.4246  0.8840
16783TIP3    H271841   0.226   5.514   4.375  1.2975 -0.5358  0.3246
16784TIP3   OH271842   6.015   2.171   2.263 -0.1674 -0.1110  0.2553
16784TIP3    H171843   6.017   2.153   2.357 -1.6488 -1.1299  0.1088
16784TIP3    H271844   5.980   2.260   2.256 -0.2863 -0.1250  0.6644
16785TIP3   OH271845   3.371   6.955   1.338  0.1342  0.0239  0.3311
16785TIP3    H171846   3.333   6.963   1.251  0.5538 -0.7547  0.0703
16785TIP3    H271847   3.369   6.861   1.356  0.1368  0.1733  1.1211
16786TIP3   OH271848   3.614   4.812   2.207 -0.1096  0.3530 -0.4007
16786TIP3    H171849   3.678   4.884   2.213 -0.6070  0.6570  1.4754
16786TIP3    H271850   3.631   4.759   2.284 -1.3367 -0.2407 -0.5315
16787TIP3   OH271851   6.907   0.063   3.140  0.3006  0.1299  0.0895
16787TIP3    H171852   6.883   0.067   3.232 -1.4145  0.4685 -0.3503
16787TIP3    H271853   6.977  -0.001   3.136  0.4761  0.2101  1.6493
16788TIP3   OH271854   5.546   6.536   3.960 -0.3738 -0.8809  0.5089
16788TIP3    H171855   5.562   6.488   3.879  1.0566 -2.3874  1.6522
16788TIP3    H271856   5.486   6.480   4.010 -1.9177  0.4255  0.1617
16789TIP3   OH271857   5.140   2.436   1.757  0.3015 -0.2234  0.2826
16789TIP3    H171858   5.214   2.408   1.703 -0.8199 -2.1162 -0.3402
16789TIP3    H271859   5.099   2.506   1.708  1.5487  0.7025  0.5378
16790TIP3   OH271860   0.892   1.364   4.490 -0.5579  0.4650 -0.2160
16790TIP3    H171861   0.894   1.449   4.534  0.8336  1.2386 -1.7008
16790TIP3    H271862   0.824   1.373   4.423  0.1608  0.7323 -0.9302
16791TIP3   OH271863   6.950   4.201  14.661 -0.4181  0.1308 -0.5519
16791TIP3    H171864   7.024   4.198  14.722  0.1717  0.9751 -1.2193
16791TIP3    H271865   6.954   4.117  14.615  0.0549  0.1367 -0.5195
16792TIP3   OH271866   4.253   0.041   4.809  0.0067  0.7118  0.5418
16792TIP3    H171867   4.230  -0.034   4.864 -1.4838  0.1817 -0.7565
16792TIP3    H271868   4.347   0.055   4.825 -0.5324  1.0578  3.7475
16793TIP3   OH271869   6.230   0.999   1.903  0.0184  0.1878 -0.0722
16793TIP3    H171870   6.254   1.092   1.898  1.8266 -0.3171 -1.7133
16793TIP3    H271871   6.286   0.964   1.972 -0.8225  0.3591  0.6984
16794TIP3   OH271872   0.614   0.227   4.127  0.1779 -0.3430  0.6347
16794TIP3    H171873   0.688   0.206   4.071 -0.1209  1.8784 -0.6396
16794TIP3    H271874   0.585   0.143   4.161  0.4841 -1.7439 -2.4020
16795TIP3   OH271875   7.012   6.965  15.834  0.9921  0.3062  0.7443
16795TIP3    H171876   6.972   6.926  15.756  0.2304 -0.0182  1.2883
16795TIP3    H271877   7.104   6.938  15.830  0.9523  0.2717 -0.0224
16796TIP3   OH271878   6.957   0.996   4.012 -0.6408  0.0460  0.1352
16796TIP3    H171879   6.943   1.044   4.094 -2.0931 -0.8179  0.4181
16796TIP3    H271880   6.870   0.964   3.988 -0.1460 -0.1591 -1.4769
16797TIP3   OH271881   3.788   6.290   2.902 -0.1195 -0.0628 -0.1197
16797TIP3    H171882   3.728   6.223   2.869  0.9861 -0.0322 -2.2586
16797TIP3    H271883   3.868   6.242   2.922 -0.9304 -0.1656  3.1042
16798TIP3   OH271884   5.503   6.960   0.509 -0.4072  0.6276 -0.3106
16798TIP3    H171885   5.411   6.981   0.492  0.0687  0.2332 -3.9061
16798TIP3    H271886   5.523   6.892   0.444  2.2309  0.1753  0.9395
16799TIP3   OH271887   5.656   5.253   3.854 -0.3492 -0.1241 -0.3378
16799TIP3    H171888   5.592   5.204   3.802  1.5111 -0.5987 -2.2566
16799TIP3    H271889   5.648   5.217   3.942 -2.1594 -0.7047 -0.7081
16800TIP3   OH271890   6.343   5.152   0.875  0.1873 -0.3909  0.5176
16800TIP3    H171891   6.248   5.149   0.887  0.1502 -2.3939 -0.0871
16800TIP3    H271892   6.356   5.143   0.781  0.9943 -0.7888  0.6616
16801TIP3   OH271893   6.489   6.799   2.821  0.1638 -0.4933  0.4568
16801TIP3    H171894   6.545   6.722   2.813 -0.7913 -1.1484 -0.1210
16801TIP3    H271895   6.419   6.771   2.881  0.1074  0.1000  0.6671
16802TIP3   OH271896   1.735   6.987   3.913 -0.1286 -0.1691  0.0241
16802TIP3    H171897   1.791   7.050   3.959 -1.0515  0.9215 -0.3212
16802TIP3    H271898   1.646   7.010   3.940 -0.3370 -3.6862  2.8322
16803TIP3   OH271899   5.914   0.024   3.887  0.6247  0.1116  0.2659
16803TIP3    H171900   5.997   0.047   3.930  0.0309  2.0466  0.3784
16803TIP3    H271901   5.888   0.103   3.840 -1.3139 -0.3972  0.4662
16804TIP3   OH271902   6.773   6.259   3.686 -0.6553 -0.0509 -0.2431
16804TIP3    H171903   6.849   6.244   3.630  0.9630  0.3194  1.7771
16804TIP3    H271904   6.745   6.348   3.666 -0.3002 -0.0356 -0.6813
16805TIP3   OH271905   0.541   5.863   5.114  0.3992 -0.3867 -0.4990
16805TIP3    H171906   0.570   5.954   5.113  0.4142 -0.3885 -0.2877
16805TIP3    H271907   0.605   5.817   5.168 -0.0668 -0.3644  0.0793
16806TIP3   OH271908   5.891   1.751   4.669 -0.3287 -0.4949  0.6075
16806TIP3    H171909   5.918   1.677   4.723  0.4376  0.2883  1.3196
16806TIP3    H271910   5.938   1.826   4.707 -2.1550  0.5880  0.7592
16807TIP3   OH271911   0.078   4.841   3.980 -0.0535 -0.4450  0.2644
16807TIP3    H171912   0.129   4.892   4.044 -0.7173  0.3004  0.2034
16807TIP3    H271913   0.120   4.860   3.896  0.0769 -0.4734  0.3231
16808TIP3   OH271914   6.817   3.920   1.179  0.2157  0.2137 -0.2896
16808TIP3    H171915   6.840   3.845   1.234 -0.4943  0.7008  0.6753
16808TIP3    H271916   6.735   3.894   1.138  0.6982 -0.1118 -1.0702
16809TIP3   OH271917   0.462   0.223   3.679 -0.1274  0.2030 -0.2164
16809TIP3    H171918   0.542   0.240   3.629 -0.0806 -0.1267 -0.2558
16809TIP3    H271919   0.435   0.309   3.711  0.1393  0.3412 -0.3600
16810TIP3   OH271920   7.179   2.770   1.511 -0.2257  0.1977  0.4680
16810TIP3    H171921   7.161   2.686   1.552  0.9061 -0.3803 -0.2218
16810TIP3    H271922   7.247   2.752   1.447 -0.3259  1.5449 -0.0340
16811TIP3   OH271923   1.715   6.041   4.844 -0.3260  0.2514 -0.2144
16811TIP3    H171924   1.783   6.081   4.897 -1.1439 -0.6220  1.5246
16811TIP3    H271925   1.763   5.996   4.774  0.8283  0.4872  0.4100
16812TIP3   OH271926   6.525   6.226   4.773  0.1069 -0.2104 -0.1824
16812TIP3    H171927   6.560   6.313   4.754 -0.7490  0.3861  0.9011
16812TIP3    H271928   6.430   6.237   4.764 -0.0502 -0.8470  0.6758
16813TIP3   OH271929   6.828   4.074   1.945  0.7909  0.2285  0.5435
16813TIP3    H171930   6.775   4.080   2.025  2.0732 -0.1909  1.4457
16813TIP3    H271931   6.787   4.004   1.894  0.2298  0.1979  1.0301
16814TIP3   OH271932   6.644   5.014   3.790  0.2394 -1.0355 -0.0433
16814TIP3    H171933   6.724   5.055   3.825 -0.5451  1.1610 -0.7084
16814TIP3    H271934   6.592   4.994   3.868 -0.4641  1.6597  0.2611
16815TIP3   OH271935   6.713   5.865   3.323  0.4574 -0.2402 -0.7954
16815TIP3    H171936   6.649   5.912   3.270 -1.4786 -1.0050  0.8069
16815TIP3    H271937   6.751   5.931   3.380 -0.4699 -0.1473 -0.2726
16816TIP3   OH271938   5.751   7.325   3.151 -0.3715 -0.1133 -0.0756
16816TIP3    H171939   5.710   7.397   3.198 -1.9621  0.0019 -1.6005
16816TIP3    H271940   5.839   7.355   3.132  0.1479  0.0448  2.3262
16817TIP3   OH271941   7.116   6.127   2.682  0.4543  0.4663 -0.6105
16817TIP3    H171942   7.035   6.112   2.731  0.3144  2.8995 -0.0036
16817TIP3    H271943   7.088   6.133   2.591  0.1779 -0.2330 -0.5774
16818TIP3   OH271944   6.820   6.667   3.025  0.4584  0.4299  0.0468
16818TIP3    H171945   6.769   6.605   3.077 -0.1886  0.8689 -0.0663
16818TIP3    H271946   6.861   6.724   3.091 -1.3909  1.7958  0.0446
16819TIP3   OH271947   5.530   0.964   2.144  0.2352 -0.0860  0.3718
16819TIP3    H171948   5.541   0.871   2.128  0.3858  0.4284 -2.7812
16819TIP3    H271949   5.555   1.006   2.062 -0.5268  2.6925  1.4937
16820TIP3   OH271950   0.597   4.669   0.608  0.6855  0.0233 -0.0820
16820TIP3    H171951   0.620   4.583   0.573  1.0936  0.4376 -0.8404
16820TIP3    H271952   0.675   4.698   0.655 -0.3009 -1.1013  2.3305
16821TIP3   OH271953   6.388   5.708   2.184 -0.0595 -0.2819  0.2670
16821TIP3    H171954   6.457   5.695   2.249 -0.3533  1.1498  0.9053
16821TIP3    H271955   6.308   5.716   2.235 -0.2762  1.0033 -0.2367
16822TIP3   OH271956   2.368   4.336   5.545 -0.0949  0.0259 -0.0262
16822TIP3    H171957   2.391   4.243   5.547 -0.6132 -0.1715 -2.2180
16822TIP3    H271958   2.308   4.348   5.619  1.7664 -0.8686  1.6704
16823TIP3   OH271959   5.471   5.658   2.329 -0.6236 -0.5972 -0.1575
16823TIP3    H171960   5.435   5.709   2.402 -1.2692  0.3210 -1.1059
16823TIP3    H271961   5.482   5.721   2.258  3.2616 -0.7593  0.1956
16824TIP3   OH271962   0.919   5.564   1.290 -0.4250  0.0715  0.1823
16824TIP3    H171963   0.975   5.501   1.334  0.6806 -0.1685 -1.5373
16824TIP3    H271964   0.830   5.530   1.303  0.0769 -1.3076  0.1123
16825TIP3   OH271965   2.931   6.382   4.482  0.1303  0.2328  1.0865
16825TIP3    H171966   2.913   6.472   4.455  0.5149  0.6215  2.0939
16825TIP3    H271967   2.886   6.328   4.417 -0.8830  1.1560  1.0114
16826TIP3   OH271968   5.602   0.620   0.123  0.1858 -0.2779  0.1440
16826TIP3    H171969   5.628   0.623   0.215  0.9933 -0.1938 -0.0869
16826TIP3    H271970   5.656   0.686   0.081 -0.9644  0.4465 -0.2008
16827TIP3   OH271971   0.956   5.255   3.378  0.4141  0.5484  0.0698
16827TIP3    H171972   0.906   5.260   3.460  0.5587 -1.1161  0.2803
16827TIP3    H271973   0.910   5.189   3.326  1.0301  0.7205 -0.6969
16828TIP3   OH271974   3.329   3.956   1.145  0.9099 -1.1402 -0.5793
16828TIP3    H171975   3.355   3.933   1.055  0.4631  1.3426 -1.3815
16828TIP3    H271976   3.300   4.046   1.139  2.1722 -0.4730  2.3370
16829TIP3   OH271977   5.780   5.172   1.989  0.3755 -0.4497  0.1640
16829TIP3    H171978   5.727   5.169   1.909  0.0228 -1.6909  0.4342
16829TIP3    H271979   5.720   5.202   2.057  0.2066 -1.1099  0.3131
16830TIP3   OH271980   7.229   5.681   1.795  0.1359 -1.2025  0.4071
16830TIP3    H171981   7.167   5.623   1.750  0.1677 -2.3900  1.8541
16830TIP3    H271982   7.179   5.715   1.870  0.5663 -0.4827  0.3692
16831TIP3   OH271983   6.501   6.806   1.797  0.4723 -0.2783 -0.1686
16831TIP3    H171984   6.511   6.880   1.736 -0.2633 -0.1453 -0.1316
16831TIP3    H271985   6.590   6.788   1.827  0.7540  0.1162 -0.7428
16832TIP3   OH271986   5.051   6.433   3.016 -0.0862 -0.1558 -0.5283
16832TIP3    H171987   5.105   6.483   3.077 -1.7527  2.3440 -1.0379
16832TIP3    H271988   5.053   6.483   2.934 -2.8312 -0.1960 -0.6710
16833TIP3   OH271989   5.253   2.144   3.089  0.3147  0.2635  0.1261
16833TIP3    H171990   5.334   2.189   3.114  0.3510  0.3430 -0.1361
16833TIP3    H271991   5.276   2.096   3.010  0.1237  0.2245  0.0945
16834TIP3   OH271992   0.680   7.169   3.199 -0.0179 -0.4186 -0.3672
16834TIP3    H171993   0.709   7.092   3.249 -0.9658 -1.0340 -0.7429
16834TIP3    H271994   0.627   7.132   3.128 -2.9084  0.7142  1.1205
16835TIP3   OH271995   6.438   6.582   5.445 -0.3447 -0.2635 -0.3414
16835TIP3    H171996   6.442   6.647   5.375  0.0126  0.3085  0.2056
16835TIP3    H271997   6.483   6.623   5.519 -2.5374 -0.0147  0.8942
16836TIP3   OH271998   1.173   1.481   2.905 -0.6573  0.4857  0.1207
16836TIP3    H171999   1.180   1.387   2.921 -1.8221  0.5870  1.3621
16836TIP3    H272000   1.263   1.510   2.894 -0.2002 -0.5934  0.8790
16837TIP3   OH272001   0.937   5.879   2.992 -0.7715  0.4493 -0.6064
16837TIP3    H172002   0.915   5.903   3.082 -0.4236  0.4127 -0.5090
16837TIP3    H272003   1.030   5.900   2.984 -0.3430 -1.2826 -0.3900
16838TIP3   OH272004   5.671   4.955   0.513 -0.1157  0.1599  0.4418
16838TIP3    H172005   5.620   4.910   0.581  0.5678 -0.0518  0.8224
16838TIP3    H272006   5.688   5.042   0.549 -1.3284  0.6857 -0.2416
16839TIP3   OH272007   4.404   5.033   4.213 -0.3936  0.4285  0.2006
16839TIP3    H172008   4.489   5.075   4.225 -0.8039  0.7993  1.8720
16839TIP3    H272009   4.346   5.077   4.274 -1.4018 -0.9617  0.2798
16840TIP3   OH272010   3.217   5.174   4.378  0.1288  0.1293  0.0209
16840TIP3    H172011   3.260   5.183   4.463  0.9213  0.5247 -0.4213
16840TIP3    H272012   3.277   5.120   4.326 -0.2116  0.1360 -0.3839
16841TIP3   OH272013   7.304   0.577   5.561 -0.2488  0.2295  0.4536
16841TIP3    H172014   7.375   0.532   5.515 -1.1183  0.8465 -1.5463
16841TIP3    H272015   7.337   0.666   5.575 -0.2609  0.2486  0.3629
16842TIP3   OH272016   6.883   7.003   0.572  0.6173 -0.2939  0.0044
16842TIP3    H172017   6.915   6.982   0.660  0.3815  1.1179  0.4430
16842TIP3    H272018   6.788   6.997   0.580  0.5913 -0.0411 -0.1203
16843TIP3   OH272019   2.937   6.404   1.329 -0.1683  0.3282  0.5213
16843TIP3    H172020   2.931   6.322   1.378  0.0005  0.0999  0.1676
16843TIP3    H272021   2.893   6.385   1.246  0.7122  0.3003  0.0570
16844TIP3   OH272022   5.374   1.213   2.549  0.3415 -0.1849 -0.3509
16844TIP3    H172023   5.438   1.282   2.534  0.1130  0.4746  1.5438
16844TIP3    H272024   5.395   1.146   2.484  3.0131 -0.0193  0.2921
16845TIP3   OH272025   5.742   0.267   4.367 -0.1755 -0.5434 -0.4431
16845TIP3    H172026   5.690   0.289   4.290 -1.2966 -0.0108  0.4426
16845TIP3    H272027   5.715   0.178   4.390 -1.2898  0.0169  0.4716
16846TIP3   OH272028   0.746   0.155   1.305 -0.0308  0.2769 -0.2251
16846TIP3    H172029   0.703   0.237   1.331  0.9553  1.3432 -1.8445
16846TIP3    H272030   0.835   0.162   1.341  0.0819 -0.0365 -0.4455
16847TIP3   OH272031   6.170   6.342   3.296  0.2115 -0.2337 -0.3223
16847TIP3    H172032   6.264   6.330   3.311  0.1658  0.0094  0.1765
16847TIP3    H272033   6.163   6.362   3.203  0.3852 -3.0723 -1.0100
16848TIP3   OH272034   1.307   2.891   1.534 -0.2212  0.2563 -0.3857
16848TIP3    H172035   1.383   2.921   1.483 -0.5804  2.0350  0.0946
16848TIP3    H272036   1.314   2.937   1.617 -0.7116 -1.1565  0.4538
16849TIP3   OH272037   0.697   6.368   3.937 -0.0895 -0.3970  0.5479
16849TIP3    H172038   0.631   6.304   3.965 -0.2335  0.0669  1.2699
16849TIP3    H272039   0.727   6.408   4.018  0.1166  0.3433  0.1057
16850TIP3   OH272040   0.301   6.933   4.386  0.3363 -0.1361  0.3815
16850TIP3    H172041   0.283   6.989   4.310  2.9108  0.7409  0.3583
16850TIP3    H272042   0.236   6.959   4.451 -0.3360  0.8423 -0.6644
16851TIP3   OH272043   4.035   1.876   4.614  0.6261  0.3762 -0.2322
16851TIP3    H172044   4.000   1.849   4.699 -0.2355  1.4798 -0.2123
16851TIP3    H272045   4.095   1.948   4.635  2.7741 -1.3491 -0.2908
16852TIP3   OH272046   0.322   2.349   5.711  0.0880  0.6365 -0.0262
16852TIP3    H172047   0.247   2.404   5.732 -0.4429 -0.7663  1.8936
16852TIP3    H272048   0.341   2.368   5.620 -1.7793  1.9866 -0.1597
16853TIP3   OH272049   0.829   3.764   5.484 -0.0468 -0.4783  0.2770
16853TIP3    H172050   0.807   3.768   5.577  1.4909 -0.1657  0.6416
16853TIP3    H272051   0.745   3.780   5.439 -0.5026  1.0961  1.6144
16854TIP3   OH272052   1.129   0.372   5.329  0.2403  0.0101  0.1640
16854TIP3    H172053   1.165   0.391   5.242 -0.1462  1.0660  0.2245
16854TIP3    H272054   1.057   0.312   5.313 -0.1968  0.6590 -0.3049
16855TIP3   OH272055   5.190   3.358   4.293  0.1040  0.0416 -0.5345
16855TIP3    H172056   5.169   3.433   4.236 -0.8911 -1.3985 -2.1076
16855TIP3    H272057   5.135   3.371   4.370 -1.9865 -0.3919 -1.9090
16856TIP3   OH272058   6.438   2.200   5.102 -1.1419 -0.2552 -0.2502
16856TIP3    H172059   6.352   2.158   5.091 -0.3475 -1.7328 -1.0158
16856TIP3    H272060   6.419   2.293   5.098 -2.5174 -0.5809 -2.1988
16857TIP3   OH272061   6.261   7.131   3.888 -0.3423 -0.3281  0.5416
16857TIP3    H172062   6.206   7.183   3.947 -0.4620  1.6125 -1.2276
16857TIP3    H272063   6.350   7.163   3.905 -0.6058  1.7222 -1.7741
16858TIP3   OH272064   2.244   2.432   5.431 -0.6193 -0.3087  0.1627
16858TIP3    H172065   2.313   2.369   5.453 -1.3606 -1.0752  0.3352
16858TIP3    H272066   2.165   2.378   5.423 -1.2832  0.6230  0.4565
16859TIP3   OH272067   0.310   3.656   5.641  0.1255  0.2668 -0.1220
16859TIP3    H172068   0.364   3.577   5.634 -2.7368 -1.5171 -3.6504
16859TIP3    H272069   0.373   3.728   5.642  2.6655 -1.8582 -0.7335
16860TIP3   OH272070   2.395   7.107   5.676 -0.3110  0.3046 -0.2466
16860TIP3    H172071   2.386   7.110   5.771  1.7203 -2.7901  0.1391
16860TIP3    H272072   2.453   7.180   5.655  0.5605  0.0188  1.1025
16861TIP3   OH272073   6.471   2.491   5.064  0.5093 -0.5323 -0.1266
16861TIP3    H172074   6.529   2.510   5.138  0.1415  1.3094 -0.2662
16861TIP3    H272075   6.432   2.576   5.042 -3.0765 -1.8618  0.6518
16862TIP3   OH272076   1.577   5.196   4.516  0.3700 -0.6010  0.3395
16862TIP3    H172077   1.636   5.220   4.587 -0.4963  0.5794  0.6839
16862TIP3    H272078   1.568   5.275   4.464 -0.5201 -0.8939  0.0273
16863TIP3   OH272079   0.921   1.851   3.642 -0.1740 -0.4194 -0.1929
16863TIP3    H172080   1.012   1.842   3.669  0.2469  1.6919 -0.8262
16863TIP3    H272081   0.918   1.814   3.554 -0.0144 -0.7810 -0.0489
16864TIP3   OH272082   1.133   7.339   3.892 -0.0181 -0.0722 -0.2044
16864TIP3    H172083   1.119   7.266   3.832 -1.8661 -0.6102  0.8417
16864TIP3    H272084   1.118   7.417   3.839  0.7590 -0.4809 -1.0272
16865TIP3   OH272085   0.008   1.419   2.472  0.4058 -0.6275  0.2044
16865TIP3    H172086   0.007   1.324   2.474  1.1911 -0.6369  0.1112
16865TIP3    H272087   0.087   1.442   2.423 -1.4794  0.0425 -2.5970
16866TIP3   OH272088   2.869   0.346   5.716 -0.1024  0.2762 -0.1938
16866TIP3    H172089   2.818   0.427   5.714 -0.5586  0.0287  1.1070
16866TIP3    H272090   2.950   0.368   5.670  0.6057  2.0370  1.8063
16867TIP3   OH272091   1.667   0.542   3.930 -0.3932 -0.1879  0.9411
16867TIP3    H172092   1.716   0.584   4.001 -0.1161  1.0144  0.0494
16867TIP3    H272093   1.584   0.589   3.928  0.3312  1.0859 -0.7648
16868TIP3   OH272094   7.017   5.571   4.994  0.2217 -0.1544 -0.1641
16868TIP3    H172095   7.107   5.606   4.993  0.6306 -1.1008  1.8680
16868TIP3    H272096   7.027   5.480   4.968 -0.3322  0.0922 -1.2588
16869TIP3   OH272097   0.096   0.739   5.013 -0.3200  0.2433  0.1128
16869TIP3    H172098   0.018   0.781   5.047  0.1409  0.4638  0.9167
16869TIP3    H272099   0.121   0.676   5.081  0.8463  0.9810  0.3745
16870TIP3   OH272100   0.138   4.895   3.717 -0.4678 -0.8267  0.2625
16870TIP3    H172101   0.083   4.974   3.714  1.0522  0.2811  1.2149
16870TIP3    H272102   0.221   4.922   3.679  0.7417 -1.4115  2.4226
16871TIP3   OH272103   1.255   0.637   4.658 -0.2304  0.3390 -0.3021
16871TIP3    H172104   1.275   0.730   4.660  0.5168  0.1645  1.1525
16871TIP3    H272105   1.212   0.620   4.743  1.9835 -1.1338  0.5531
16872TIP3   OH272106   0.941   3.005   4.568 -0.6233  0.1761  0.0742
16872TIP3    H172107   0.972   2.945   4.636 -0.0950 -1.9464 -1.9814
16872TIP3    H272108   1.009   3.073   4.563  0.0029 -0.3989  0.7457
16873TIP3   OH272109   1.445   0.296   4.863  0.4881 -0.4067 -0.2141
16873TIP3    H172110   1.446   0.348   4.783  1.5219 -0.0784  0.0042
16873TIP3    H272111   1.476   0.356   4.931 -0.2392 -0.7240  0.4051
16874TIP3   OH272112   1.962   0.524   5.402 -0.0925  0.3392 -0.2688
16874TIP3    H172113   1.900   0.597   5.392 -0.0475  0.3851 -0.2100
16874TIP3    H272114   2.047   0.562   5.380 -0.2123  0.0407 -1.3038
16875TIP3   OH272115   1.533   0.272   5.511  0.2077 -0.0786  0.1026
16875TIP3    H172116   1.559   0.321   5.433 -1.5252 -1.4076 -1.3532
16875TIP3    H272117   1.500   0.338   5.572 -0.0399  0.7978 -0.9769
16876TIP3   OH272118   0.619   7.263   5.237  0.2255 -0.0224  0.2700
16876TIP3    H172119   0.582   7.349   5.255  1.8152  0.3064  2.0983
16876TIP3    H272120   0.598   7.211   5.315 -1.1144 -1.4729 -0.9905
16877TIP3   OH272121   2.435   1.056   3.375 -0.2405 -1.0858  0.2013
16877TIP3    H172122   2.388   1.074   3.456  1.5314 -0.2397  1.0701
16877TIP3    H272123   2.403   0.970   3.348 -0.9209 -1.3451  1.7371
16878TIP3   OH272124   3.984   7.187   3.124 -0.4441 -0.5748 -0.0326
16878TIP3    H172125   4.030   7.250   3.068  2.0742 -1.9288  0.4153
16878TIP3    H272126   3.891   7.205   3.110  0.1987  2.2185 -1.0614
16879TIP3   OH272127   1.154   1.418   5.894  0.0082  0.2290 -0.1737
16879TIP3    H172128   1.062   1.403   5.873 -0.1024  1.4221 -0.5983
16879TIP3    H272129   1.153   1.469   5.975  0.2753  0.7152 -0.4734
16880TIP3   OH272130   6.209   2.809   0.693 -0.3974  0.4349 -0.3022
16880TIP3    H172131   6.123   2.795   0.653  0.1864  0.3786 -1.5574
16880TIP3    H272132   6.265   2.837   0.621  0.3461  1.6770  0.7389
16881TIP3   OH272133   7.224   3.947   5.435  0.4187  0.2188  0.4013
16881TIP3    H172134   7.291   3.885   5.466  1.0839  0.8455  0.2406
16881TIP3    H272135   7.274   4.025   5.409 -0.2558  0.2491 -0.8619
16882TIP3   OH272136   1.888   0.874   5.151 -0.3301  0.2958 -0.0982
16882TIP3    H172137   1.798   0.907   5.155 -0.0334  1.2129 -0.9890
16882TIP3    H272138   1.878   0.779   5.156 -1.2762  0.4337  0.9912
16883TIP3   OH272139   3.201   3.721   3.574 -0.2880 -0.3962 -0.7467
16883TIP3    H172140   3.145   3.776   3.520 -0.5703 -0.2837 -0.3446
16883TIP3    H272141   3.159   3.636   3.575 -0.9053 -0.0882  0.2384
16884TIP3   OH272142   0.001   1.211   6.075  0.0438  0.3584 -0.9573
16884TIP3    H172143   0.007   1.116   6.074 -0.7142  0.3107 -0.8497
16884TIP3    H272144   0.088   1.240   6.103  0.0348 -0.3216 -0.2138
16885TIP3   OH272145   2.031   0.087   1.979 -0.2616  0.3761  0.1699
16885TIP3    H172146   2.102   0.141   2.015  0.6735 -1.1274  0.6487
16885TIP3    H272147   2.034   0.103   1.885 -0.5814  1.8227  0.3890
16886TIP3   OH272148   1.264   0.209   5.497 -0.0304 -0.4474 -0.2502
16886TIP3    H172149   1.348   0.187   5.456  0.9894  0.7794  1.1204
16886TIP3    H272150   1.228   0.279   5.443  1.4786  1.4161  1.1124
16887TIP3   OH272151   6.756   2.325   2.523  0.0482 -0.0375 -0.3059
16887TIP3    H172152   6.797   2.404   2.488  1.8206 -1.4832 -1.5895
16887TIP3    H272153   6.662   2.345   2.526  0.3040  1.5256 -2.1661
16888TIP3   OH272154   7.051   0.632   5.496 -0.6225  0.2320 -0.5204
16888TIP3    H172155   7.002   0.594   5.569  0.1372 -1.2964 -0.7704
16888TIP3    H272156   7.141   0.602   5.511 -0.1607  1.2382 -1.2252
16889TIP3   OH272157   7.043   0.946   3.485  0.2404  0.1065 -0.0282
16889TIP3    H172158   7.060   0.852   3.474  0.5527  0.1806 -0.1744
16889TIP3    H272159   6.977   0.950   3.555 -1.5195 -0.3473 -1.6039
16890TIP3   OH272160   0.615   1.885   4.298 -0.0027  0.0035 -0.2830
16890TIP3    H172161   0.608   1.866   4.391 -1.6068  0.0905 -0.3699
16890TIP3    H272162   0.695   1.841   4.270 -0.9458 -2.3198  0.5630
16891TIP3   OH272163   7.263   6.132   3.727 -0.1377 -0.2682 -0.2808
16891TIP3    H172164   7.210   6.058   3.757 -0.3904 -1.1342 -2.7853
16891TIP3    H272165   7.224   6.158   3.643  2.3728  0.1488 -1.3572
16892TIP3   OH272166   0.736   1.649   1.875  0.3767 -0.0209 -0.3549
16892TIP3    H172167   0.677   1.612   1.810 -2.5954  3.0028  0.4792
16892TIP3    H272168   0.705   1.614   1.959 -1.9787  3.5268  0.3595
16893TIP3   OH272169   7.002   1.690   5.475  0.2163  0.0057 -0.3206
16893TIP3    H172170   6.996   1.786   5.474  0.8786  0.0756  0.8909
16893TIP3    H272171   6.925   1.663   5.525  0.5994 -0.0309  0.2546
16894TIP3   OH272172   0.456   6.687   4.857  0.1016 -0.1731  0.0851
16894TIP3    H172173   0.505   6.750   4.910  2.0655  0.4310 -2.3941
16894TIP3    H272174   0.372   6.730   4.842  0.9750  1.3565 -0.5600
16895TIP3   OH272175   1.360   0.165   3.969  0.1440 -0.0361 -0.1833
16895TIP3    H172176   1.374   0.156   4.063 -0.9322  2.2421  0.2304
16895TIP3    H272177   1.306   0.090   3.945 -1.5382  0.6080  1.4696
16896TIP3   OH272178   3.100   0.911   5.699 -0.1448  0.1895  0.3088
16896TIP3    H172179   3.092   0.945   5.789 -1.8584  1.9105 -0.4601
16896TIP3    H272180   3.025   0.948   5.653 -0.5927 -2.6182 -1.2661
16897TIP3   OH272181   6.808   1.919   5.037 -0.3857  0.2237 -0.3132
16897TIP3    H172182   6.748   1.966   4.980 -1.9427 -1.3730 -0.0562
16897TIP3    H272183   6.755   1.895   5.114  0.9438 -0.0198  0.5547
16898TIP3   OH272184   6.195   2.088   5.118 -0.0976 -0.1569  0.5000
16898TIP3    H172185   6.102   2.104   5.129  0.1329 -0.0038  2.4217
16898TIP3    H272186   6.219   2.034   5.193  1.1728 -1.0099 -0.4950
16899TIP3   OH272187   3.410   0.672   4.759  0.4155 -0.3112 -0.7079
16899TIP3    H172188   3.454   0.621   4.691  1.9943 -0.1221  0.1671
16899TIP3    H272189   3.380   0.607   4.822  0.1370 -0.3692 -0.8972
16900TIP3   OH272190   3.147   3.269   4.535 -0.5150 -0.0919  0.3857
16900TIP3    H172191   3.138   3.246   4.442 -0.4191  1.7475 -0.1066
16900TIP3    H272192   3.234   3.237   4.559  1.1900  2.8979 -1.2960
16901TIP3   OH272193   2.460   2.771   3.394  0.1649 -0.3890 -0.1661
16901TIP3    H172194   2.464   2.701   3.329 -1.0374 -0.3741 -0.2541
16901TIP3    H272195   2.462   2.726   3.478  2.0076 -0.3961 -0.1934
16902TIP3   OH272196   1.405   1.356   4.193 -0.6925  0.1245  0.2443
16902TIP3    H172197   1.398   1.380   4.286  0.6272  0.2146  0.3172
16902TIP3    H272198   1.429   1.438   4.149 -0.5691 -0.0860 -0.0789
16903TIP3   OH272199   7.019   2.020   2.244  0.1278 -0.7447 -0.2405
16903TIP3    H172200   7.001   2.066   2.326 -2.6316  1.6718 -2.0952
16903TIP3    H272201   6.953   1.951   2.240 -2.6788  1.9072 -2.3883
16904TIP3   OH272202   0.426   0.269   4.993 -0.1269  0.1252 -0.1658
16904TIP3    H172203   0.415   0.363   4.974  0.4856 -0.1282 -1.8375
16904TIP3    H272204   0.413   0.226   4.909 -0.6796 -1.3383  0.6452
16905TIP3   OH272205   7.202   2.259   5.680  0.2677  0.4121  0.4874
16905TIP3    H172206   7.283   2.311   5.681  0.9055 -0.5565  0.3206
16905TIP3    H272207   7.212   2.197   5.753 -0.6138  0.7249  0.8711
16906TIP3   OH272208   1.109   0.294   3.745  0.2668 -0.5210 -0.4478
16906TIP3    H172209   1.060   0.340   3.813  1.9355  1.1718 -0.3335
16906TIP3    H272210   1.201   0.315   3.763  0.8803 -1.7279 -2.0030
16907TIP3   OH272211   0.833   0.854   6.008 -0.3032 -0.3637 -0.3399
16907TIP3    H172212   0.916   0.812   6.032 -0.0095 -0.1014 -0.8928
16907TIP3    H272213   0.858   0.922   5.946 -1.0363 -0.8441 -1.1652
16908TIP3   OH272214   0.146   0.683   4.218  0.0833  0.1055 -0.4754
16908TIP3    H172215   0.164   0.609   4.160  0.8723  0.4621 -0.7034
16908TIP3    H272216   0.210   0.750   4.192  1.4100 -0.2458  1.7376
16909TIP3   OH272217   2.037   3.104   3.845  0.2281  0.3418 -0.4754
16909TIP3    H172218   1.976   3.172   3.817 -1.5387 -1.5853 -1.4884
16909TIP3    H272219   2.108   3.108   3.782 -0.5479  0.3392 -1.3564
16910TIP3   OH272220   0.287   2.241   3.523  0.1341 -0.1615  0.5485
16910TIP3    H172221   0.318   2.161   3.566 -0.8224 -0.7927  0.0794
16910TIP3    H272222   0.367   2.288   3.499  0.7000 -0.8366  1.0829
16911TIP3   OH272223   0.434   7.100   4.756 -0.2849 -0.2355 -0.5938
16911TIP3    H172224   0.493   7.107   4.832 -1.3971 -1.5660  0.4129
16911TIP3    H272225   0.489   7.123   4.681  0.7874  1.2866  0.6334
16912TIP3   OH272226   0.120   1.484   5.357  0.0275 -0.2770 -0.0184
16912TIP3    H172227   0.105   1.402   5.402  1.4420 -0.2584  0.5092
16912TIP3    H272228   0.135   1.548   5.427 -1.9847  0.6505 -0.3810
16913TIP3   OH272229   1.478   1.665   5.000 -0.6212 -0.0368 -0.5857
16913TIP3    H172230   1.484   1.646   5.093 -0.2367 -2.7643 -1.1506
16913TIP3    H272231   1.427   1.747   4.996 -0.2485  0.3681  2.0031
16914TIP3   OH272232   2.725   6.560   2.958  0.1139  0.0507  0.1191
16914TIP3    H172233   2.700   6.648   2.931 -0.8239  0.0603  1.0219
16914TIP3    H272234   2.722   6.508   2.877  0.6416  0.8289 -0.4059
16915TIP3   OH272235   3.488   0.495   3.762 -0.3847 -0.0594 -0.2047
16915TIP3    H172236   3.577   0.507   3.729  0.2447 -0.8039  1.1841
16915TIP3    H272237   3.453   0.422   3.711  0.5962 -1.2340  0.7632
16916TIP3   OH272238   2.754   0.700   3.663 -0.1276  0.1427 -0.3055
16916TIP3    H172239   2.798   0.769   3.613 -0.1572  1.1316  1.0328
16916TIP3    H272240   2.661   0.718   3.653 -0.1626 -0.2003 -0.6363
16917TIP3   OH272241   5.707   2.743   5.042 -0.2363 -0.4904  0.2700
16917TIP3    H172242   5.751   2.756   4.958 -1.2184 -0.0365 -0.1843
16917TIP3    H272243   5.615   2.761   5.024 -0.6147 -1.4660  1.2076
16918TIP3   OH272244   7.317   0.306   4.091  0.5022 -0.2195 -0.7871
16918TIP3    H172245   7.396   0.345   4.055  1.6164 -0.2279  1.6035
16918TIP3    H272246   7.346   0.259   4.169 -1.7169 -0.9334 -0.3524
16919TIP3   OH272247   6.492   4.909   4.025  0.3156  0.2177 -0.6688
16919TIP3    H172248   6.410   4.865   4.000  0.6427  0.6579 -2.5738
16919TIP3    H272249   6.463   4.986   4.074 -0.4010  0.0638 -0.8352
16920TIP3   OH272250   2.075   0.584   4.272  0.4080  0.6003  0.3209
16920TIP3    H172251   2.132   0.643   4.223  0.4276 -0.7478 -1.3206
16920TIP3    H272252   2.135   0.519   4.310  0.0787 -0.2105 -0.5355
16921TIP3   OH272253   5.766   3.223   3.649 -0.2243 -0.4840 -0.1482
16921TIP3    H172254   5.802   3.311   3.659  0.3393 -0.9475  2.4201
16921TIP3    H272255   5.702   3.216   3.720 -0.6890 -1.9536 -0.6995
16922TIP3   OH272256   0.526   2.239   5.874  0.1375 -0.0356  0.3516
16922TIP3    H172257   0.598   2.294   5.843 -0.0691  0.1531  0.2044
16922TIP3    H272258   0.449   2.269   5.824 -0.5566  1.4002  2.2020
16923TIP3   OH272259   3.070   6.558   3.677 -0.0429  0.0643 -0.9102
16923TIP3    H172260   3.129   6.630   3.699  1.1095 -1.0155 -0.3688
16923TIP3    H272261   3.014   6.593   3.608  3.2695  0.1910 -3.6963
16924TIP3   OH272262   6.962   6.374   4.647  0.3357 -0.0232  0.2247
16924TIP3    H172263   6.928   6.397   4.561  0.4315 -0.6554  0.0152
16924TIP3    H272264   6.914   6.295   4.672  0.6512 -0.1216  0.5408
16925TIP3   OH272265   1.371   1.321   5.747 -0.5005  0.6114 -0.4310
16925TIP3    H172266   1.311   1.352   5.815  0.4200  0.7787  0.3178
16925TIP3    H272267   1.376   1.226   5.761 -0.0978  0.6838 -0.0986
16926TIP3   OH272268   6.376   2.371   5.387 -0.0723 -0.3185 -0.5401
16926TIP3    H172269   6.429   2.290   5.389 -0.8829 -0.8284  0.5907
16926TIP3    H272270   6.429   2.435   5.434 -0.3205 -0.7562  0.3508
16927TIP3   OH272271   0.136   1.926   5.686 -0.7860  0.4518  0.3864
16927TIP3    H172272   0.179   1.998   5.640 -2.3922  0.2323 -1.5394
16927TIP3    H272273   0.083   1.968   5.754 -0.0608  0.9373  0.6467
16928TIP3   OH272274   7.076   6.860   4.897 -0.5771 -0.5167  0.1940
16928TIP3    H172275   6.996   6.896   4.934 -1.2139 -0.5178 -1.1492
16928TIP3    H272276   7.095   6.783   4.951  0.1246  1.0937  2.3172
16929TIP3   OH272277   2.051   1.627   4.989  0.8701 -0.5332 -0.2978
16929TIP3    H172278   2.105   1.597   5.063  0.3353  0.8635  0.6747
16929TIP3    H272279   2.080   1.717   4.973 -1.1393  0.2185  0.2097
16930TIP3   OH272280   0.415   1.124   2.647  0.0478  0.0271 -0.0998
16930TIP3    H172281   0.365   1.120   2.729 -0.3917  0.3060 -0.3501
16930TIP3    H272282   0.450   1.036   2.635 -0.1812 -0.1050  0.2066
16931TIP3   OH272283   4.820   1.537   5.341 -0.1245 -0.2292 -0.5471
16931TIP3    H172284   4.741   1.561   5.388  0.2917 -1.6733  0.9668
16931TIP3    H272285   4.890   1.584   5.385  0.3468 -2.0534  0.7362
16932TIP3   OH272286   3.338   1.117   3.900 -0.1641 -0.5448 -0.1649
16932TIP3    H172287   3.265   1.158   3.854 -0.5396 -0.8216  0.1866
16932TIP3    H272288   3.298   1.069   3.972  0.3780 -0.5681  0.1239
16933TIP3   OH272289   5.613   1.168   4.235 -0.1465 -0.6462 -0.0035
16933TIP3    H172290   5.645   1.079   4.246 -0.6686 -1.0522 -1.6514
16933TIP3    H272291   5.617   1.184   4.140  2.3033  1.9573  0.4866
16934TIP3   OH272292   1.128   0.685   4.922  0.5546 -0.3367 -0.1280
16934TIP3    H172293   1.036   0.658   4.909  0.4560 -0.7307  1.3154
16934TIP3    H272294   1.125   0.781   4.924  0.2429 -0.3346 -0.5457
16935TIP3   OH272295   2.354   0.524   5.364  0.4828  0.5076 -0.1261
16935TIP3    H172296   2.320   0.436   5.380  1.3520  0.1418 -0.2497
16935TIP3    H272297   2.377   0.557   5.451  1.8886 -0.1090 -0.2541
16936TIP3   OH272298   7.092   1.625   1.852  0.0235 -0.1309 -0.6270
16936TIP3    H172299   7.001   1.640   1.827 -1.0785 -0.3269  2.8963
16936TIP3    H272300   7.097   1.530   1.868 -0.3552  0.4197  3.2004
16937TIP3   OH272301   6.511   1.119   4.648 -0.1237  0.3480  0.4234
16937TIP3    H172302   6.573   1.053   4.679 -0.2648 -0.9131 -1.8319
16937TIP3    H272303   6.481   1.163   4.728  1.6371 -0.8107  1.7810
16938TIP3   OH272304   0.208   0.984   6.185 -0.5540 -0.1528  0.0868
16938TIP3    H172305   0.143   0.963   6.252  0.1637 -1.8683  0.2731
16938TIP3    H272306   0.253   1.061   6.220  0.3693 -1.5188  2.0094
16939TIP3   OH272307   0.335   1.032   4.279  0.0049  0.3915 -0.0693
16939TIP3    H172308   0.317   0.985   4.361  0.6555  1.9351  1.0030
16939TIP3    H272309   0.378   1.113   4.308 -0.5676  1.3631 -1.8992
16940TIP3   OH272310   1.441   1.216   5.042  0.2738 -0.1510  0.0380
16940TIP3    H172311   1.505   1.239   5.108 -0.0648 -0.8155  0.6043
16940TIP3    H272312   1.434   1.294   4.986  0.8677  0.2538  0.5285
16941TIP3   OH272313   2.170   1.522   5.297 -0.0982  0.0571 -0.2862
16941TIP3    H172314   2.174   1.428   5.280  0.1774  0.0813 -0.3501
16941TIP3    H272315   2.167   1.530   5.392  0.9857  0.0299 -0.2488
16942TIP3   OH272316   7.315   0.858   5.593 -0.8229  0.3380  0.4729
16942TIP3    H172317   7.383   0.847   5.528 -0.9086  2.7188 -0.0448
16942TIP3    H272318   7.354   0.912   5.661 -1.1760 -0.9707  1.7501
16943TIP3   OH272319   0.073   7.280   2.538 -0.5352  0.4493  0.1944
16943TIP3    H172320   0.128   7.266   2.615  0.3103  1.8111 -0.1488
16943TIP3    H272321   0.022   7.199   2.530  0.4131 -0.2747  1.3215
16944TIP3   OH272322   2.838   0.679   3.923  0.2644 -0.3058  0.3624
16944TIP3    H172323   2.930   0.679   3.947 -0.0280  0.9006  1.5291
16944TIP3    H272324   2.838   0.685   3.828  1.3811  1.1190  0.4328
16945TIP3   OH272325   1.223   3.571   5.360  0.8528 -0.3332  0.0883
16945TIP3    H172326   1.299   3.614   5.400  1.6482 -0.3377 -1.3755
16945TIP3    H272327   1.191   3.634   5.295  1.8966 -1.8132 -1.9229
16946TIP3   OH272328   6.567   3.097   4.079 -0.0024 -0.1446  0.5141
16946TIP3    H172329   6.559   3.127   4.170 -1.1980  0.4293  0.2274
16946TIP3    H272330   6.495   3.034   4.069  0.7715 -0.9996  0.2762
16947TIP3   OH272331   2.600   0.878   5.625 -0.1693  0.4119  0.1031
16947TIP3    H172332   2.567   0.885   5.715  0.7580 -1.5697  0.6261
16947TIP3    H272333   2.544   0.813   5.584  0.7564 -0.2530 -0.1135
16948TIP3   OH272334   1.118   1.416   5.375  0.1209  0.4288  0.4994
16948TIP3    H172335   1.164   1.486   5.330 -0.2161 -0.7198 -1.6875
16948TIP3    H272336   1.184   1.347   5.386 -0.7663 -0.7886 -1.6648
16949TIP3   OH272337   1.761   1.919   3.466  0.2246  0.1008 -0.0484
16949TIP3    H172338   1.692   1.971   3.506 -0.5766  1.1483 -2.7189
16949TIP3    H272339   1.814   1.982   3.417 -0.0117 -1.3979 -2.2936
16950TIP3   OH272340   2.239   1.223   4.941  0.4613  0.0916  0.3390
16950TIP3    H172341   2.321   1.174   4.942  0.1512 -0.4325  0.8352
16950TIP3    H272342   2.231   1.258   5.030 -0.0818 -0.2573  0.4345
16951TIP3   OH272343   6.249   1.850   4.982 -0.2075 -0.1939  0.3261
16951TIP3    H172344   6.258   1.937   5.020  0.5077 -0.5109  0.8987
16951TIP3    H272345   6.168   1.854   4.931  0.1351  0.9876 -0.1548
16952TIP3   OH272346   0.347   2.717   4.329  0.1257 -0.2356 -0.0087
16952TIP3    H172347   0.256   2.741   4.348 -0.0026 -1.2432  0.6898
16952TIP3    H272348   0.341   2.657   4.255  0.2261 -0.2778  0.0175
16953TIP3   OH272349   7.318   1.028   4.984  0.1559 -0.3634 -0.2799
16953TIP3    H172350   7.361   1.062   4.905 -1.4001 -3.0046 -2.3814
16953TIP3    H272351   7.255   1.096   5.008  1.2929  0.8809 -0.7415
16954TIP3   OH272352   1.149   2.432   3.454  0.7527 -0.1206 -0.2684
16954TIP3    H172353   1.164   2.462   3.544  2.8209 -1.3936 -0.1517
16954TIP3    H272354   1.233   2.443   3.410  0.0380 -0.4768 -1.7683
16955TIP3   OH272355   5.902   0.452   3.626 -0.3492  0.3966 -0.6383
16955TIP3    H172356   5.882   0.519   3.691 -0.1375 -1.4721  1.4222
16955TIP3    H272357   5.896   0.497   3.542 -0.9283  2.7996  0.6525
16956TIP3   OH272358   6.835   1.003   1.894 -0.3815 -0.2992  0.1152
16956TIP3    H172359   6.740   1.014   1.897 -0.2401  0.6627  1.4913
16956TIP3    H272360   6.855   0.935   1.959 -0.1268 -0.4855 -0.1535
16957TIP3   OH272361   3.244   5.917   5.567  0.2808  0.1421 -0.0209
16957TIP3    H172362   3.261   5.947   5.478  0.1758  0.8199  0.1819
16957TIP3    H272363   3.223   5.997   5.616 -0.6795 -0.3519  0.3768
16958TIP3   OH272364   6.685   2.729   4.276  0.7834 -0.0380  0.3198
16958TIP3    H172365   6.666   2.652   4.221 -0.4695 -0.3365  1.1401
16958TIP3    H272366   6.659   2.702   4.364 -0.2002  1.5274  0.5281
16959TIP3   OH272367   0.275   0.904   5.910  0.0547 -0.1342  0.1663
16959TIP3    H172368   0.274   0.930   6.002 -0.2496  0.8755 -0.1141
16959TIP3    H272369   0.202   0.952   5.870  0.7883  0.2162 -0.8008
16960TIP3   OH272370   1.041   0.851   3.867  0.6048 -0.2809  0.6202
16960TIP3    H172371   1.124   0.896   3.882 -0.7907  2.2640  0.9981
16960TIP3    H272372   0.977   0.902   3.917 -0.9221 -3.2040  1.7484
16961TIP3   OH272373   6.203   1.584   3.940 -0.3943 -0.6705  0.2943
16961TIP3    H172374   6.221   1.532   4.018  0.0329 -0.7017  0.1748
16961TIP3    H272375   6.210   1.521   3.868 -0.6069 -0.6025  0.2125
16962TIP3   OH272376   1.246   6.004   5.023  0.1862  0.7941 -0.2410
16962TIP3    H172377   1.205   6.057   5.090  0.9694  1.5660 -0.3673
16962TIP3    H272378   1.288   6.067   4.965 -1.1828  0.1960 -1.9366
16963TIP3   OH272379   6.063   2.386   4.039  0.3499  0.0664 -0.4752
16963TIP3    H172380   6.018   2.469   4.028 -1.6568 -0.8477  0.5230
16963TIP3    H272381   6.143   2.407   4.086 -1.5325  1.0653  2.3661
16964TIP3   OH272382   1.032   0.151   4.641 -0.1487 -0.4203 -0.2432
16964TIP3    H172383   1.070   0.108   4.718  1.0946  0.5295 -0.3041
16964TIP3    H272384   0.994   0.080   4.590 -1.4093 -1.0261  1.4566
16965TIP3   OH272385   0.171   0.549   5.196 -0.1485 -0.1671 -0.5205
16965TIP3    H172386   0.121   0.467   5.187  1.2655 -0.9228 -1.7984
16965TIP3    H272387   0.221   0.538   5.276  1.1414 -1.1907 -1.4451
16966TIP3   OH272388   1.053   2.584   4.985  0.0359 -0.5513 -0.2148
16966TIP3    H172389   0.971   2.599   5.032  0.8909 -1.4285  1.6198
16966TIP3    H272390   1.095   2.670   4.982 -0.1920 -0.4190  0.3140
16967TIP3   OH272391   1.736   0.949   5.661 -0.5919  0.1120 -0.5650
16967TIP3    H172392   1.828   0.933   5.678 -0.4279  1.1512 -0.4080
16967TIP3    H272393   1.703   0.986   5.744 -1.2609 -0.7224 -0.4550
16968TIP3   OH272394   6.563   3.008   5.508 -0.1757 -0.1722 -0.0086
16968TIP3    H172395   6.593   2.935   5.562 -1.5302  0.0852  1.1122
16968TIP3    H272396   6.615   3.083   5.538 -0.3632 -0.2029  0.3985
16969TIP3   OH272397   0.861   1.492   4.808  0.0380 -0.0188 -0.4895
16969TIP3    H172398   0.826   1.488   4.897 -1.2214  0.9599 -0.9245
16969TIP3    H272399   0.839   1.581   4.778  0.3056 -0.4009 -1.8304
16970TIP3   OH272400   2.193   7.276   4.619 -0.3707 -0.2870  0.2988
16970TIP3    H172401   2.212   7.185   4.642  0.3121  0.1056  1.2791
16970TIP3    H272402   2.107   7.293   4.659 -0.0478 -0.1914  0.9495
16971TIP3   OH272403   1.587   2.367   2.608  0.1560  0.0751 -0.3929
16971TIP3    H172404   1.516   2.397   2.664  0.8434  2.0001 -0.5213
16971TIP3    H272405   1.614   2.445   2.559  3.2269 -0.2445  0.6130
16972TIP3   OH272406   6.917   1.935   5.384 -0.5416  0.0640  0.4983
16972TIP3    H172407   6.936   2.018   5.428 -0.7214  0.4270 -0.1073
16972TIP3    H272408   6.833   1.949   5.341  0.2577  0.1578 -1.0597
16973TIP3   OH272409   0.973   2.963   3.820  0.5583 -0.0897  0.2448
16973TIP3    H172410   1.025   3.041   3.802  1.2306 -0.3005  1.2164
16973TIP3    H272411   0.981   2.910   3.740 -0.9410  1.3862 -0.9040
16974TIP3   OH272412   1.971   1.564   3.316  0.2961  1.0630 -0.3210
16974TIP3    H172413   2.025   1.620   3.261  0.9746  0.5584 -0.1880
16974TIP3    H272414   2.034   1.507   3.361 -0.3814  0.0924 -0.5698
16975TIP3   OH272415   6.810   1.571   4.283  0.2369  0.1398 -0.1519
16975TIP3    H172416   6.856   1.628   4.221  0.1028 -0.8388 -1.1711
16975TIP3    H272417   6.719   1.598   4.279  0.3706  0.6547  0.2691
16976TIP3   OH272418   0.880   6.374   5.512 -0.0108  0.3412  0.0621
16976TIP3    H172419   0.892   6.315   5.587 -0.1147 -3.8248 -3.0473
16976TIP3    H272420   0.785   6.377   5.499 -0.0067  1.2402  0.2264
16977TIP3   OH272421   2.503   1.544   2.196  0.2246 -0.3637  0.0963
16977TIP3    H172422   2.574   1.596   2.235  1.3780 -1.7154 -0.1404
16977TIP3    H272423   2.529   1.453   2.212  0.1174 -0.9440 -2.7557
16978TIP3   OH272424   0.193   2.659   5.570  0.0968  0.3008  0.2823
16978TIP3    H172425   0.133   2.619   5.508  2.5103 -0.7769 -1.4598
16978TIP3    H272426   0.188   2.604   5.648  0.4743 -1.1081 -0.6791
16979TIP3   OH272427   0.250   1.438   4.749 -0.1890  0.1361  0.2444
16979TIP3    H172428   0.180   1.447   4.814 -0.4776  0.4417 -0.1029
16979TIP3    H272429   0.330   1.435   4.800 -0.5833 -2.5464  0.8159
16980TIP3   OH272430   1.278   6.273   4.166  0.0258  0.4880 -0.4027
16980TIP3    H172431   1.190   6.271   4.129 -0.3785  0.1888  0.5650
16980TIP3    H272432   1.291   6.186   4.203  0.3900  0.8183  0.2454
16981TIP3   OH272433   7.016   5.918   4.573  0.0078 -0.0886 -0.7024
16981TIP3    H172434   7.059   5.857   4.633  0.6730 -0.2367 -1.3063
16981TIP3    H272435   6.977   5.861   4.506 -1.8452  0.0004  0.2729
16982TIP3   OH272436   2.610   3.076   2.929 -0.2271  0.4592  0.2578
16982TIP3    H172437   2.532   3.094   2.980 -1.1909 -1.6908 -0.4190
16982TIP3    H272438   2.620   2.981   2.932  0.2245  0.3664 -2.7612
16983TIP3   OH272439   1.758   2.145   3.101 -0.5826  0.4696 -0.2124
16983TIP3    H172440   1.726   2.228   3.066  0.0284  0.4501 -0.8027
16983TIP3    H272441   1.768   2.162   3.195  0.0389  1.2156 -0.4111
16984TIP3   OH272442   0.294   0.394   5.889  0.0538 -0.3005 -0.0844
16984TIP3    H172443   0.210   0.440   5.894  1.0098  1.3750  1.6766
16984TIP3    H272444   0.270   0.303   5.872 -2.1157  0.1820  0.1258
16985TIP3   OH272445   0.055   1.370   5.101 -0.5652 -0.0253 -0.1016
16985TIP3    H172446   0.101   1.286   5.107 -3.6763 -1.8443 -0.2475
16985TIP3    H272447   0.051   1.402   5.191  0.0125 -0.3846  0.0544
16986TIP3   OH272448   1.995   0.762   3.544  1.0046 -0.3476 -0.7712
16986TIP3    H172449   2.088   0.770   3.567  0.7869  0.5875 -0.1908
16986TIP3    H272450   1.962   0.694   3.604  1.3895 -0.9213 -1.2106
16987TIP3   OH272451   5.857   0.805   5.740 -0.2373  0.1688 -0.4358
16987TIP3    H172452   5.829   0.866   5.671  0.1162  1.0416  0.1814
16987TIP3    H272453   5.811   0.724   5.721 -0.8571  0.6904 -1.1689
16988TIP3   OH272454   0.850   0.869   5.120 -0.3989 -0.8167 -0.4830
16988TIP3    H172455   0.807   0.948   5.152 -0.0239 -0.4743 -0.8283
16988TIP3    H272456   0.917   0.900   5.060 -1.3785 -1.4617 -1.9515
16989TIP3   OH272457   1.588   1.378   3.499  0.1687 -0.7687  0.0913
16989TIP3    H172458   1.637   1.452   3.463  1.0876 -1.5384 -0.2631
16989TIP3    H272459   1.632   1.358   3.581  1.6481 -2.6371 -1.0997
16990TIP3   OH272460   0.846   0.518   4.422 -0.2528  0.1593 -0.2176
16990TIP3    H172461   0.776   0.542   4.483  0.1770 -0.9981  0.7283
16990TIP3    H272462   0.816   0.436   4.383  1.0018 -0.8400  0.8869
16991TIP3   OH272463   1.974   0.410   2.351  0.2533 -0.4306  0.1671
16991TIP3    H172464   1.958   0.328   2.398 -0.5288 -0.4521 -0.1174
16991TIP3    H272465   1.918   0.403   2.273 -2.0826  1.6138  1.5743
16992TIP3   OH272466   0.705   0.713   6.206  0.2176  0.6767  0.6683
16992TIP3    H172467   0.765   0.641   6.226 -0.4434  0.2218  1.0347
16992TIP3    H272468   0.753   0.768   6.144  0.0260 -1.0650 -1.0802
16993TIP3   OH272469   7.323   0.655   4.622  0.8777  0.4759 -0.3727
16993TIP3    H172470   7.390   0.587   4.617  0.9465  0.4800  0.4232
16993TIP3    H272471   7.365   0.727   4.668  0.2543  0.3840  0.3472
16994TIP3   OH272472   0.102   1.459   4.116 -0.4898  0.0925 -0.0142
16994TIP3    H172473   0.022   1.510   4.134 -1.7689 -0.2375 -4.1887
16994TIP3    H272474   0.070   1.380   4.072  2.0013 -1.1187  0.3161
16995TIP3   OH272475   2.723   6.927   5.793  0.0383 -0.0333 -0.2323
16995TIP3    H172476   2.695   7.001   5.846 -0.7902 -1.6090  1.6179
16995TIP3    H272477   2.649   6.909   5.735  0.2621  0.6181 -0.7210
16996TIP3   OH272478   0.910   3.311   3.622  0.6580  0.2937 -0.1666
16996TIP3    H172479   0.839   3.340   3.679 -1.8995 -3.0270 -1.4667
16996TIP3    H272480   0.979   3.284   3.682 -0.3302  0.8570  1.2488
16997TIP3   OH272481   0.861   2.904   2.934  0.3036 -0.7888 -1.0086
16997TIP3    H172482   0.869   2.952   3.016 -1.6940 -2.2850  0.1185
16997TIP3    H272483   0.769   2.911   2.910  0.4212 -2.1721 -1.9700
16998TIP3   OH272484   7.116   1.148   4.793 -0.2636 -0.9009  0.0738
16998TIP3    H172485   7.122   1.213   4.864  0.7279  1.0447 -1.7290
16998TIP3    H272486   7.039   1.175   4.743 -1.3401 -2.6531  0.7249
16999TIP3   OH272487   0.890   2.568   3.516 -0.1195  0.1116  0.1015
16999TIP3    H172488   0.960   2.508   3.489 -0.6017  0.1632 -1.2615
16999TIP3    H272489   0.880   2.551   3.610  1.2926 -0.3430  0.1853
17000TIP3   OH272490   1.727   1.294   6.213 -0.4675 -0.5328 -0.5583
17000TIP3    H172491   1.724   1.207   6.253  1.6467 -0.1455  0.5052
17000TIP3    H272492   1.660   1.291   6.145  0.8510 -3.6345 -1.8243
17001TIP3   OH272493   2.447   1.897   5.788  0.4381 -0.0793 -0.4863
17001TIP3    H172494   2.441   1.987   5.754  3.9480 -0.1906 -1.5667
17001TIP3    H272495   2.507   1.903   5.862 -2.0549 -1.0085  1.7131
17002TIP3   OH272496   0.680   1.437   5.656 -0.9137 -0.0332 -0.8028
17002TIP3    H172497   0.724   1.522   5.656 -1.8164  0.4348 -0.6048
17002TIP3    H272498   0.600   1.451   5.606  0.4381 -1.5680 -3.5464
17003TIP3   OH272499   4.013   6.014   4.649  0.3117  0.0811  0.5635
17003TIP3    H172500   4.035   6.101   4.681 -1.5969  0.8465 -0.1172
17003TIP3    H272501   4.097   5.973   4.630  1.1785  2.4893 -0.9727
17004TIP3   OH272502   0.415   2.644   5.826 -0.4403 -0.4138  0.0258
17004TIP3    H172503   0.439   2.684   5.910  0.3929  1.0133 -0.8583
17004TIP3    H272504   0.326   2.611   5.839  0.4435 -2.0501  2.0858
17005TIP3   OH272505   3.515   7.136   5.268  0.8552  0.4797 -0.0110
17005TIP3    H172506   3.457   7.161   5.197 -0.5471 -1.6869  0.3439
17005TIP3    H272507   3.561   7.058   5.236 -0.0234 -0.7039  1.5480
17006TIP3   OH272508   0.128   1.291   5.813 -0.4402 -0.4768  0.4312
17006TIP3    H172509   0.078   1.369   5.839 -0.0561 -0.1460  0.1852
17006TIP3    H272510   0.215   1.306   5.850  0.8180  1.1014 -2.9369
17007TIP3   OH272511   3.738   0.746   4.241  0.2301  0.2672 -0.2773
17007TIP3    H172512   3.742   0.804   4.165  1.6509 -0.7502 -0.9775
17007TIP3    H272513   3.700   0.665   4.209 -0.3254  0.2620  0.3723
17008TIP3   OH272514   3.990   2.357   3.775 -0.3546  0.1673  0.0752
17008TIP3    H172515   3.921   2.354   3.841 -1.6733  1.5283 -1.2140
17008TIP3    H272516   3.979   2.276   3.725 -0.9446  0.3338 -0.0652
17009TIP3   OH272517   6.605   0.857   5.485  0.1415 -0.0137 -0.0125
17009TIP3    H172518   6.579   0.822   5.400  0.3106 -0.0659 -0.0429
17009TIP3    H272519   6.528   0.844   5.541  0.0206  0.0428 -0.1624
17010TIP3   OH272520   1.525   1.006   6.266  0.1546 -0.2067  0.2761
17010TIP3    H172521   1.620   1.002   6.272  0.3348 -0.0480 -2.2330
17010TIP3    H272522   1.495   0.931   6.318  1.6545 -0.7589  0.3594
17011TIP3   OH272523   2.554   3.025   5.124  0.0408 -0.3144  0.2804
17011TIP3    H172524   2.543   2.962   5.195 -0.4190 -0.1510  0.3570
17011TIP3    H272525   2.473   3.019   5.073  0.4587 -0.5890 -0.3634
17012TIP3   OH272526   1.205   5.273   4.711  0.0049 -0.5484  0.2587
17012TIP3    H172527   1.240   5.362   4.718 -1.0453 -0.2398  1.8898
17012TIP3    H272528   1.122   5.277   4.758 -0.5136 -2.1548 -0.5108
17013TIP3   OH272529   6.853   0.947   3.684 -0.3152  0.3131 -0.0471
17013TIP3    H172530   6.786   0.879   3.679 -1.1489  1.1265 -0.1284
17013TIP3    H272531   6.803   1.029   3.686  0.6965  0.9918 -1.4994
17014TIP3   OH272532   1.723   1.557   4.777  0.7624  0.3620  0.4440
17014TIP3    H172533   1.643   1.572   4.727  0.7409 -2.9040 -0.5867
17014TIP3    H272534   1.786   1.618   4.740  0.5741 -1.5490 -3.2039
17015TIP3   OH272535   2.933   2.249   4.282 -0.0991  0.9008  0.8128
17015TIP3    H172536   2.850   2.246   4.233  0.4831 -2.5411 -0.0507
17015TIP3    H272537   2.977   2.327   4.249 -0.6133 -0.2274 -2.7406
17016TIP3   OH272538   1.920   1.704   3.937 -0.1987  0.1899 -0.1833
17016TIP3    H172539   1.903   1.759   3.860 -0.9571 -0.9460 -0.8552
17016TIP3    H272540   1.852   1.729   4.000  0.5167  1.2306  0.1891
17017TIP3   OH272541   7.295   6.974   5.416  0.1319  0.2843  0.1027
17017TIP3    H172542   7.355   7.042   5.446  2.7479 -2.4905  1.4276
17017TIP3    H272543   7.224   6.976   5.480  0.3923  1.4649  0.3810
17018TIP3   OH272544   1.494   0.922   4.967  0.3951  0.1404  0.0859
17018TIP3    H172545   1.541   0.951   4.889 -2.8671  0.6985 -1.7766
17018TIP3    H272546   1.449   1.001   4.999  1.0867 -0.2510  2.1312
17019TIP3   OH272547   6.826   0.564   1.485  0.1322  0.2437  0.4691
17019TIP3    H172548   6.919   0.551   1.502 -0.1524 -2.9056 -0.0437
17019TIP3    H272549   6.789   0.476   1.490 -2.5867  1.2807 -0.7409
17020TIP3   OH272550   0.269   7.097   5.821  0.4952 -0.5960 -0.1291
17020TIP3    H172551   0.275   7.153   5.744  1.1789  1.0485  1.0789
17020TIP3    H272552   0.196   7.134   5.871 -1.0562 -2.6872 -0.7841
17021TIP3   OH272553   1.768   1.730   4.446  0.1205  0.3368 -0.0699
17021TIP3    H172554   1.779   1.635   4.448 -0.0865  0.3080 -0.3052
17021TIP3    H272555   1.758   1.754   4.538  1.0353  0.2352  0.0570
17022TIP3   OH272556   6.788   6.969   4.650 -0.2156 -0.1251 -0.2390
17022TIP3    H172557   6.728   7.015   4.592  0.2872  0.7317 -0.0915
17022TIP3    H272558   6.861   7.029   4.662  0.6876 -1.1672 -0.4376
17023TIP3   OH272559   1.759   0.701   5.422  0.1918 -0.9102 -0.5959
17023TIP3    H172560   1.704   0.719   5.498  1.2913 -1.4787  0.3539
17023TIP3    H272561   1.716   0.746   5.349 -1.0872 -0.7028  0.2884
17024TIP3   OH272562   0.047   2.989   5.556  0.0703  0.0569 -0.2878
17024TIP3    H172563  -0.012   3.047   5.603  0.1812  1.4314 -1.8194
17024TIP3    H272564   0.135   3.020   5.581  0.1374  1.5695 -2.2870
17025TIP3   OH272565   0.157   5.526   4.578  0.3385  0.4090 -0.2570
17025TIP3    H172566   0.070   5.487   4.578  0.3606  0.3657  0.1608
17025TIP3    H272567   0.155   5.593   4.646  0.2173  1.3379 -1.1545
17026TIP3   OH272568   1.163   0.984   5.914 -0.0638 -0.4719 -0.0457
17026TIP3    H172569   1.253   1.012   5.896 -0.6796  0.1897 -2.1745
17026TIP3    H272570   1.137   1.035   5.991  1.0043  0.1297 -0.0825
17027TIP3   OH272571   1.020   3.291   0.577 -0.1238 -0.3454  0.1558
17027TIP3    H172572   1.101   3.272   0.624  0.2453 -0.6140 -0.5934
17027TIP3    H272573   1.041   3.278   0.485 -1.4002 -1.8614  0.0493
17028TIP3   OH272574   1.073   1.984   4.829 -0.3470 -0.4063  0.2774
17028TIP3    H172575   1.130   2.060   4.820  1.4588 -1.7002  0.4576
17028TIP3    H272576   1.022   2.001   4.908 -0.2961  0.8330  0.0510
17029TIP3   OH272577   2.598   3.002   5.805  0.0549  0.1390 -0.2083
17029TIP3    H172578   2.582   3.093   5.779 -0.1346  0.2381  0.2508
17029TIP3    H272579   2.517   2.955   5.782 -1.0424  0.7002  2.3964
17030TIP3   OH272580   3.636   2.874   5.220 -0.6174 -0.0244 -0.0167
17030TIP3    H172581   3.563   2.905   5.273 -1.4098 -0.1659 -1.0256
17030TIP3    H272582   3.605   2.792   5.182  0.3986 -0.5569  0.2808
17031TIP3   OH272583   1.048   1.418   3.236  0.0729 -0.2355 -0.0237
17031TIP3    H172584   1.022   1.488   3.176 -0.7329 -1.1965 -0.8168
17031TIP3    H272585   1.019   1.338   3.192  0.8349 -1.0489  0.9540
17032TIP3   OH272586   0.833   1.642   3.972  0.6382 -0.0746  0.0488
17032TIP3    H172587   0.819   1.646   3.878  0.5921 -0.6061  0.0358
17032TIP3    H272588   0.755   1.599   4.007  0.9619 -0.4958  0.2590
17033TIP3   OH272589   1.302   2.587   5.531 -0.0225  0.0819 -0.3544
17033TIP3    H172590   1.341   2.641   5.600  1.7155 -0.1124 -1.1560
17033TIP3    H272591   1.216   2.626   5.516 -0.1891  0.4995  1.4937
17034TIP3   OH272592   2.152   1.234   5.215 -0.1151 -0.6533 -0.6195
17034TIP3    H172593   2.075   1.232   5.160  0.1411 -0.0097 -1.0070
17034TIP3    H272594   2.149   1.152   5.264  0.0367 -1.5573 -2.0983
17035TIP3   OH272595   2.967   0.470   5.183 -0.4411 -0.1694  0.5636
17035TIP3    H172596   2.897   0.456   5.119 -0.6308 -0.8850  0.9209
17035TIP3    H272597   2.963   0.564   5.203 -0.5386  0.0073 -0.2867
17036TIP3   OH272598   0.814   0.781   5.362  0.3601 -0.4761  0.1281
17036TIP3    H172599   0.746   0.716   5.343 -0.8312  0.8654 -0.3265
17036TIP3    H272600   0.852   0.801   5.277 -1.0292  1.2826 -0.1045
17037TIP3   OH272601   6.277   1.058   5.674  0.1433  0.2140 -0.3201
17037TIP3    H172602   6.221   1.022   5.743  1.5733  1.4566  1.5183
17037TIP3    H272603   6.288   0.985   5.612 -1.2102 -0.8991  0.7049
17038TIP3   OH272604   2.284   7.257   1.704  0.0272 -0.1790  0.2546
17038TIP3    H172605   2.245   7.331   1.751  1.0710  0.6269 -0.1248
17038TIP3    H272606   2.247   7.263   1.616  2.0896  1.4816 -0.5476
17039TIP3   OH272607   6.003   1.411   4.431  0.2996  0.5947  0.7172
17039TIP3    H172608   5.910   1.409   4.456 -0.2007 -0.7440 -1.0677
17039TIP3    H272609   6.030   1.319   4.433  0.7300  0.6241 -1.6825
17040TIP3   OH272610   1.838   7.318   4.585  0.7928 -0.2046 -0.0269
17040TIP3    H172611   1.767   7.326   4.521  1.1169  1.2186 -0.2214
17040TIP3    H272612   1.904   7.381   4.556  2.0843 -1.4120  0.2338
17041TIP3   OH272613   3.205   0.516   2.160  0.5094  0.0888 -0.0840
17041TIP3    H172614   3.271   0.551   2.220  0.1192  0.5865  0.0701
17041TIP3    H272615   3.241   0.531   2.072  0.6346  0.2907  0.0017
17042TIP3   OH272616   0.323   1.109   1.773  0.3184 -0.1971 -0.4822
17042TIP3    H172617   0.259   1.162   1.725  0.1146  0.1028  0.1045
17042TIP3    H272618   0.275   1.079   1.851  1.0409  0.4787  0.2421
17043TIP3   OH272619   6.042   1.805   4.008 -0.0345 -0.1905 -0.6938
17043TIP3    H172620   6.090   1.725   3.989  1.3080  0.9875 -2.4359
17043TIP3    H272621   5.958   1.775   4.043  1.2708 -2.2961  0.7256
17044TIP3   OH272622   1.428   5.836   5.164  0.2535 -0.0930  0.0732
17044TIP3    H172623   1.496   5.890   5.205  1.3603 -1.3805 -0.0273
17044TIP3    H272624   1.380   5.897   5.108  0.1446  1.2250  1.5455
17045TIP3   OH272625   0.522   2.143   3.054 -0.4671  0.4799 -0.2371
17045TIP3    H172626   0.443   2.175   3.097 -0.0689  0.0437  0.8342
17045TIP3    H272627   0.592   2.158   3.117 -0.0697 -1.2847 -0.2299
17046TIP3   OH272628   3.132   0.862   0.253  0.3064  0.3606  0.3715
17046TIP3    H172629   3.207   0.841   0.197  0.5762 -1.4550  1.3622
17046TIP3    H272630   3.066   0.897   0.193  0.6977 -1.2578 -1.0641
17047TIP3   OH272631   1.254   0.108   5.019  0.2729 -0.4611 -0.7979
17047TIP3    H172632   1.306   0.161   4.959  1.0136 -0.0999  0.1706
17047TIP3    H272633   1.281   0.135   5.106  1.3423 -3.0947 -0.2744
17048TIP3   OH272634   0.710   0.060   5.731  0.5389 -0.3774 -0.4396
17048TIP3    H172635   0.628   0.101   5.758 -0.2015 -1.8541 -0.3763
17048TIP3    H272636   0.733   0.002   5.804  1.5654 -0.0845 -0.5203
17049TIP3   OH272637   6.744   3.231   1.291 -0.1684 -0.6648 -0.0275
17049TIP3    H172638   6.839   3.235   1.278 -0.3446  1.9377 -0.6288
17049TIP3    H272639   6.728   3.140   1.316  2.6292 -0.8668  1.2586
17050TIP3   OH272640   4.142   2.667   4.213  0.0403 -0.0900  0.2577
17050TIP3    H172641   4.151   2.751   4.168 -1.5490 -0.5512 -0.9566
17050TIP3    H272642   4.101   2.610   4.148  0.4677 -1.6124  1.3123
17051TIP3   OH272643   2.464   1.474   5.187  0.1042 -0.2769 -0.3801
17051TIP3    H172644   2.495   1.384   5.194 -1.1664 -0.6211  1.2001
17051TIP3    H272645   2.390   1.479   5.249  0.7983  2.1251  0.3150
17052TIP3   OH272646   1.557   0.874   3.214  0.1126  0.1833 -0.5415
17052TIP3    H172647   1.645   0.839   3.224 -0.4299 -0.7667  1.0736
17052TIP3    H272648   1.557   0.956   3.264 -0.2559 -0.4445  0.5125
17053TIP3   OH272649   4.171   2.757   4.729 -0.3325 -0.4443  0.1995
17053TIP3    H172650   4.147   2.765   4.821  0.2602 -1.9644  0.5091
17053TIP3    H272651   4.105   2.807   4.681  0.3901  1.8853  1.5601
17054TIP3   OH272652   1.655   3.585   3.442  0.2713 -0.0410 -0.1291
17054TIP3    H172653   1.650   3.518   3.374  1.1018  1.4707 -1.7184
17054TIP3    H272654   1.575   3.637   3.430  0.0258 -0.2553  0.5748
17055TIP3   OH272655   3.742   1.253   3.049  0.3795 -0.0952  0.4723
17055TIP3    H172656   3.768   1.323   2.990 -1.4667  0.7404  0.6028
17055TIP3    H272657   3.757   1.288   3.137 -1.4884  0.5576  0.5567
17056TIP3   OH272658   7.326   1.047   4.680  0.0826  0.5332 -0.1689
17056TIP3    H172659   7.325   1.089   4.594 -0.6479  1.4309  0.2700
17056TIP3    H272660   7.238   1.063   4.715 -0.6799 -2.5143 -0.5478
17057TIP3   OH272661   4.423   1.687   4.581 -0.2264  0.0399  0.0315
17057TIP3    H172662   4.478   1.703   4.505 -0.0923  1.3992  0.3910
17057TIP3    H272663   4.419   1.772   4.625  0.7168 -1.0273  2.2275
17058TIP3   OH272664   1.698   0.657   5.832  0.1103  0.4746 -0.5612
17058TIP3    H172665   1.775   0.645   5.778  0.8419  2.3669  0.0231
17058TIP3    H272666   1.728   0.641   5.921 -0.3191  0.6151 -0.3860
17059TIP3   OH272667   3.272   1.555   2.395 -0.3080 -0.7470 -0.0445
17059TIP3    H172668   3.330   1.630   2.379  1.3082 -1.5606  1.8468
17059TIP3    H272669   3.311   1.484   2.345 -0.4479 -0.9672  0.1612
17060TIP3   OH272670   2.915   6.374   4.896 -0.0021 -0.1024 -0.3156
17060TIP3    H172671   2.851   6.312   4.928 -0.4290  0.9209  0.8662
17060TIP3    H272672   2.975   6.322   4.843 -0.7039 -1.3951  0.1437
17061TIP3   OH272673   4.008   6.900   5.946  0.5451 -0.5707  0.0349
17061TIP3    H172674   4.073   6.860   6.004 -1.1324  1.1927  3.2074
17061TIP3    H272675   3.925   6.888   5.991 -0.5295  2.7549 -0.9646
17062TIP3   OH272676   3.802   0.639   5.234  0.0332 -0.1758  0.1520
17062TIP3    H172677   3.888   0.653   5.194 -0.1037  1.4758  0.4102
17062TIP3    H272678   3.819   0.637   5.328 -0.2402  0.4081  0.2161
17063TIP3   OH272679   1.269   2.158   4.838  0.3431 -0.3869 -0.5234
17063TIP3    H172680   1.336   2.139   4.771  2.2615 -0.3407  1.3361
17063TIP3    H272681   1.317   2.159   4.920 -1.7040  1.2100  0.6980
17064TIP3   OH272682   3.348   2.627   4.949  0.5283  0.4513  0.4639
17064TIP3    H172683   3.292   2.662   5.018  1.5666  0.0469  1.5265
17064TIP3    H272684   3.288   2.581   4.890 -0.2351 -0.0903  1.6654
17065TIP3   OH272685   1.047   6.759   5.054  0.6218 -0.1310 -0.0642
17065TIP3    H172686   0.982   6.690   5.066  0.4885 -0.0006 -0.0228
17065TIP3    H272687   1.127   6.726   5.094  0.4495 -0.0979  0.3052
17066TIP3   OH272688   4.043   2.715   3.339  0.5073 -0.3577  0.2902
17066TIP3    H172689   4.110   2.782   3.357 -0.0926 -0.6127  3.8878
17066TIP3    H272690   4.076   2.668   3.263  2.9363  1.4361  0.1576
17067TIP3   OH272691   3.842   0.599   5.522 -0.7517 -0.1540 -0.1881
17067TIP3    H172692   3.765   0.558   5.560  1.1177 -2.2313  1.4702
17067TIP3    H272693   3.871   0.663   5.588 -0.6669  0.1484 -0.5151
17068TIP3   OH272694   1.438   2.544   4.659  0.2637  0.1096 -0.3584
17068TIP3    H172695   1.501   2.484   4.699 -1.8405 -2.6616 -1.0471
17068TIP3    H272696   1.357   2.530   4.707 -0.5660  1.6505 -1.2398
17069TIP3   OH272697   2.713   0.676   5.316 -0.0342  0.1562 -0.2836
17069TIP3    H172698   2.787   0.700   5.260 -0.3932  0.9558 -0.4273
17069TIP3    H272699   2.750   0.666   5.403  0.5457 -1.1734 -0.6786
17070TIP3   OH272700   0.485   5.321   3.093  0.4183  0.1395 -0.1868
17070TIP3    H172701   0.444   5.400   3.128  0.8960  0.7133 -0.9032
17070TIP3    H272702   0.415   5.279   3.042  0.5535  0.8155 -0.9323
17071TIP3   OH272703   1.291   0.594   5.431  0.3474 -0.5254 -0.8626
17071TIP3    H172704   1.241   0.520   5.396  0.0424  0.4934 -2.6349
17071TIP3    H272705   1.383   0.569   5.418  0.2891 -1.3826  0.2577
17072TIP3   OH272706   0.978   7.263   5.189  0.4156 -0.2953 -0.4445
17072TIP3    H172707   0.902   7.317   5.209 -0.1851 -1.2709 -0.0273
17072TIP3    H272708   1.053   7.319   5.206 -0.1734  0.1202  0.8587
17073TIP3   OH272709   3.806   2.706   6.247 -0.4472 -0.5333 -0.3307
17073TIP3    H172710   3.732   2.708   6.307  0.3618  0.8329  0.6501
17073TIP3    H272711   3.849   2.622   6.264 -0.1144 -0.0798  1.1727
17074TIP3   OH272712   4.654   0.245   3.423  0.4272 -0.2942 -0.1598
17074TIP3    H172713   4.566   0.280   3.410  0.6477  0.3885  0.2074
17074TIP3    H272714   4.652   0.209   3.512  0.8777  0.7985  0.3023
17075TIP3   OH272715   2.272   5.255   4.323  0.1360  0.6331 -0.4662
17075TIP3    H172716   2.198   5.215   4.369 -0.2843  0.1382 -1.5586
17075TIP3    H272717   2.266   5.348   4.345 -0.6574  0.5556 -0.3442
17076TIP3   OH272718   3.637   1.026   4.542 -0.8039 -0.7177  0.3984
17076TIP3    H172719   3.660   1.095   4.481  0.9409 -1.4145  0.2332
17076TIP3    H272720   3.544   1.008   4.525 -0.7115  0.1164 -1.0000
17077TIP3   OH272721   4.300   0.721   2.898 -0.7967 -0.0233  0.2065
17077TIP3    H172722   4.321   0.813   2.882 -0.3203 -0.2190 -0.2946
17077TIP3    H272723   4.204   0.719   2.904 -0.8298  0.4417 -0.1441
17078TIP3   OH272724   3.208   0.110   4.467 -0.2874  0.1791  0.4278
17078TIP3    H172725   3.154   0.090   4.390  0.7137  0.4714 -0.3579
17078TIP3    H272726   3.298   0.099   4.436  0.1044 -0.7152  1.8382
17079TIP3   OH272727   3.011   1.845   5.158  0.3383 -0.2619  0.0235
17079TIP3    H172728   3.091   1.852   5.211 -0.0065 -2.0521  0.8345
17079TIP3    H272729   3.039   1.802   5.078  0.3256 -0.2288  0.0020
17080TIP3   OH272730   0.636   0.667   3.095 -0.9007  1.0550  0.2203
17080TIP3    H172731   0.729   0.646   3.088 -0.9525  0.4092  1.3554
17080TIP3    H272732   0.631   0.760   3.075 -0.2879  0.6716 -1.9180
17081TIP3   OH272733   5.412   7.309   3.049 -0.7709  0.0798 -0.6017
17081TIP3    H172734   5.487   7.253   3.070  0.2482  1.8360  0.6514
17081TIP3    H272735   5.350   7.294   3.120 -0.3810  0.7272 -0.1195
17082TIP3   OH272736   3.028   1.689   4.260  0.8363 -0.6202 -0.9050
17082TIP3    H172737   3.042   1.743   4.181 -2.2845  0.9463 -0.4611
17082TIP3    H272738   3.055   1.746   4.332 -2.1848  0.2970 -0.4517
17083TIP3   OH272739   4.856   1.251   3.458  0.1015 -0.3026 -0.8361
17083TIP3    H172740   4.769   1.268   3.424 -0.1630  2.8700  1.2015
17083TIP3    H272741   4.849   1.165   3.499 -2.4981  0.5068  0.5315
17084TIP3   OH272742   1.122   6.371   5.381 -0.2448  0.0089  0.3977
17084TIP3    H172743   1.046   6.385   5.438  0.2594  0.3915  0.9867
17084TIP3    H272744   1.196   6.402   5.432  0.2450  0.1632 -0.3935
17085TIP3   OH272745   0.405   2.250   4.418 -0.2797  0.3433 -0.1549
17085TIP3    H172746   0.442   2.193   4.486 -2.1354 -1.2947 -0.4700
17085TIP3    H272747   0.449   2.222   4.338 -0.0884  0.4029 -0.0729
17086TIP3   OH272748   3.111   1.077   4.322 -0.2218 -0.0631 -0.4314
17086TIP3    H172749   3.140   1.136   4.391 -1.0944  0.3953 -0.4542
17086TIP3    H272750   3.030   1.038   4.355 -0.6973  0.2282 -1.2202
17087TIP3   OH272751   3.254   2.479   3.262 -0.3534  0.0238 -0.5153
17087TIP3    H172752   3.313   2.481   3.337 -0.1928  0.4412 -0.6508
17087TIP3    H272753   3.265   2.391   3.225 -0.7494 -0.3245  0.1979
17088TIP3   OH272754   2.264   0.917   6.377 -0.0293  0.6057  0.7618
17088TIP3    H172755   2.277   0.987   6.314 -0.8062  2.4522  2.5937
17088TIP3    H272756   2.347   0.869   6.377  0.1763  0.9273 -1.2030
17089TIP3   OH272757   4.257   3.610   3.103  0.2480 -0.6371 -0.2227
17089TIP3    H172758   4.259   3.685   3.162  0.9715 -0.5784 -0.3274
17089TIP3    H272759   4.347   3.580   3.097 -0.2980 -2.6887  1.2809
17090TIP3   OH272760   1.772   1.536   5.086 -0.6201 -0.0451 -0.1233
17090TIP3    H172761   1.819   1.617   5.105  0.0820 -0.6140  0.5668
17090TIP3    H272762   1.739   1.548   4.997  2.6621 -0.5174 -1.4765
17091TIP3   OH272763   3.530   3.173   4.902 -0.0839  0.7368 -0.0785
17091TIP3    H172764   3.501   3.087   4.872 -1.7990  1.4251 -0.4720
17091TIP3    H272765   3.624   3.164   4.913 -0.5143 -1.8341  2.0047
17092TIP3   OH272766   1.451   0.079   2.800  0.0680 -0.3965  0.1231
17092TIP3    H172767   1.356   0.089   2.812  0.4631  1.8922  1.6762
17092TIP3    H272768   1.473   0.001   2.850 -0.5057  1.0730  2.7618
17093TIP3   OH272769   3.256   1.303   5.204 -0.3137  0.5024  0.1345
17093TIP3    H172770   3.331   1.358   5.227  0.3662 -0.3611 -0.0081
17093TIP3    H272771   3.231   1.333   5.116  0.0315  0.6079  0.0705
17094TIP3   OH272772   1.469   3.838   4.689 -0.2540 -0.7460  0.1685
17094TIP3    H172773   1.516   3.833   4.772  1.7152  0.4383 -0.8323
17094TIP3    H272774   1.385   3.794   4.705 -1.7900  3.2652  4.0824
17095TIP3   OH272775   5.333   1.988   4.029 -0.1468 -0.2324 -0.2974
17095TIP3    H172776   5.371   2.041   4.100 -0.9893 -0.3142  0.2203
17095TIP3    H272777   5.394   1.915   4.018  0.3287  0.1323 -0.1065
17096TIP3   OH272778   1.291   0.975   4.393 -0.5171 -0.2810  0.2534
17096TIP3    H172779   1.243   0.911   4.340 -1.5083  0.2346  0.5210
17096TIP3    H272780   1.267   0.954   4.483 -0.9888  0.5706  0.3319
17097TIP3   OH272781   2.726   2.185   5.337 -0.4414  0.4684 -0.1590
17097TIP3    H172782   2.762   2.122   5.273  1.7462  2.0123 -0.5154
17097TIP3    H272783   2.749   2.148   5.422 -1.8859 -0.7508 -0.2777
17098TIP3   OH272784   3.576   2.488   6.114 -0.4698  0.2753 -0.2237
17098TIP3    H172785   3.504   2.522   6.166 -1.2794  0.7154 -1.5953
17098TIP3    H272786   3.544   2.493   6.024  1.2568  0.4287 -0.8391
17099TIP3   OH272787   0.962   3.043   3.457 -0.6455 -0.1046 -0.1341
17099TIP3    H172788   0.877   3.039   3.501 -1.1812  0.7892 -1.0812
17099TIP3    H272789   1.011   3.110   3.506 -0.6560 -0.2618  0.0956
17100TIP3   OH272790   2.942   1.783   3.382  0.3468 -0.7530  0.1190
17100TIP3    H172791   2.951   1.754   3.291  2.1163  0.4320 -0.1107
17100TIP3    H272792   3.024   1.757   3.424 -0.2227 -0.7684  1.2422
17101TIP3   OH272793   3.347   3.562   2.889 -0.4455 -0.1447 -0.0402
17101TIP3    H172794   3.318   3.600   2.806  0.4682 -0.5394 -0.5419
17101TIP3    H272795   3.381   3.476   2.865  0.9064  0.2136  0.5845
17102TIP3   OH272796   3.413   6.295   4.480 -0.8663  0.2267  0.0594
17102TIP3    H172797   3.430   6.295   4.574  0.2401  1.4581 -0.1161
17102TIP3    H272798   3.443   6.210   4.449 -3.6522 -1.2276  1.2044
17103TIP3   OH272799   2.603   1.233   3.201 -0.1717 -0.7009 -0.2674
17103TIP3    H172800   2.534   1.181   3.242 -1.8934  1.0655 -0.8267
17103TIP3    H272801   2.584   1.323   3.228  2.4855 -0.2697  0.3210
17104TIP3   OH272802   3.055   1.880   4.474  0.1915  0.4364  0.5563
17104TIP3    H172803   2.989   1.904   4.409  1.1637  1.5211 -0.0580
17104TIP3    H272804   3.107   1.960   4.486  0.5517 -0.0102  2.0311
17105TIP3   OH272805   3.160   7.023   5.494  0.1476 -0.3618  0.3681
17105TIP3    H172806   3.157   7.106   5.448  0.6612 -0.9634 -0.7739
17105TIP3    H272807   3.077   7.020   5.543 -0.6303  0.0807 -0.8911
17106TIP3   OH272808   2.051   0.099   6.211 -0.0759 -0.6174 -0.5875
17106TIP3    H172809   1.961   0.103   6.177 -0.7625 -0.5716  1.1653
17106TIP3    H272810   2.093   0.030   6.160 -1.9213 -2.5339  0.3699
17107TIP3   OH272811   3.652   6.897   5.160 -0.1543 -0.4982  0.6802
17107TIP3    H172812   3.633   6.895   5.066  1.8047 -1.5719  0.2936
17107TIP3    H272813   3.619   6.814   5.193 -0.4184 -0.3194  0.8718
17108TIP3   OH272814   1.662   0.944   5.952 -0.4989 -0.4239  0.4216
17108TIP3    H172815   1.748   0.976   5.979  0.7601 -0.7533 -2.9666
17108TIP3    H272816   1.643   0.873   6.014 -0.3020  2.3345  3.8286
17109TIP3   OH272817   3.985   1.711   2.134 -0.6208  0.6442  0.1276
17109TIP3    H172818   3.922   1.742   2.199 -0.2213 -0.0565  0.8588
17109TIP3    H272819   4.025   1.634   2.174  0.8703  1.2091 -0.2235
17110TIP3   OH272820   0.855   6.830   4.157  0.5663 -0.8028  0.4165
17110TIP3    H172821   0.937   6.863   4.194  1.6684 -3.3624  0.3640
17110TIP3    H272822   0.804   6.800   4.232 -0.5454  1.1972  0.4889
17111TIP3   OH272823   3.531   0.951   3.686 -0.1256 -0.7479 -0.1743
17111TIP3    H172824   3.535   0.910   3.772 -0.9772 -1.4996 -0.4819
17111TIP3    H272825   3.437   0.957   3.666 -0.0472  1.5900 -0.0374
17112TIP3   OH272826   1.937   2.421   4.942 -0.6838 -0.0524  0.1366
17112TIP3    H172827   1.868   2.462   4.995 -1.4581  1.1737 -1.7924
17112TIP3    H272828   1.891   2.353   4.892 -0.5431  0.8926 -1.2952
17113TIP3   OH272829   3.151   2.241   4.814  0.1938 -0.2321  0.6293
17113TIP3    H172830   3.106   2.160   4.790  0.6949 -0.0878 -0.8328
17113TIP3    H272831   3.219   2.214   4.875  0.2430 -0.8875  0.2849
17114TIP3   OH272832   2.955   1.745   3.738  0.5118  0.1509 -0.2512
17114TIP3    H172833   2.911   1.698   3.809  2.0445  0.6687  1.0913
17114TIP3    H272834   2.989   1.677   3.681  0.2749 -0.2990  0.1445
17115TIP3   OH272835   1.800   1.279   4.768 -0.7058 -0.2469  0.1831
17115TIP3    H172836   1.886   1.314   4.790 -0.5316 -0.7539  0.3027
17115TIP3    H272837   1.746   1.357   4.751 -0.3554  0.0818  0.5842
17116TIP3   OH272838   3.147   1.291   4.532  0.5476  0.0020 -0.2775
17116TIP3    H172839   3.167   1.247   4.615 -2.7581 -0.8232  0.1173
17116TIP3    H272840   3.093   1.366   4.556 -0.5986 -0.3422 -1.7064
17117TIP3   OH272841   3.399   0.120   3.870 -0.8819  0.4089 -0.2139
17117TIP3    H172842   3.434   0.064   3.800 -0.3269  0.3420  0.1097
17117TIP3    H272843   3.352   0.190   3.824 -1.8395 -0.4844 -0.6188
17118TIP3   OH272844   3.542   2.120   3.891 -0.6457  0.4839 -0.6127
17118TIP3    H172845   3.530   2.027   3.913 -0.4496  0.0796 -2.1372
17118TIP3    H272846   3.516   2.126   3.799 -0.1103  1.8346 -0.6800
17119TIP3   OH272847   1.400   0.633   3.971  0.0778 -0.3977 -0.1399
17119TIP3    H172848   1.378   0.605   4.060  1.0208  1.3993  0.7057
17119TIP3    H272849   1.362   0.721   3.964 -1.7780 -1.3368 -2.2672
17120TIP3   OH272850   3.619   0.889   5.038  0.2724  0.4806  0.0103
17120TIP3    H172851   3.537   0.940   5.031 -0.4104 -0.4777  0.8750
17120TIP3    H272852   3.663   0.904   4.955 -0.1746  2.0589  0.0373
17121TIP3   OH272853   1.930   6.831   4.649 -0.0767  0.5953  0.3042
17121TIP3    H172854   1.949   6.832   4.743 -1.3441  3.2310  0.5840
17121TIP3    H272855   1.874   6.907   4.636 -0.3726 -0.0741 -2.5149
17122TIP3   OH272856   6.823   0.905   5.191 -0.4710 -0.5049  0.9925
17122TIP3    H172857   6.894   0.847   5.217 -0.1303 -0.6921 -0.3005
17122TIP3    H272858   6.748   0.847   5.180 -1.2508 -0.0977  3.8688
17123TIP3   OH272859   4.283   3.854   3.250 -0.2702 -0.1852  0.2509
17123TIP3    H172860   4.290   3.942   3.214  0.9552 -0.6309 -0.6375
17123TIP3    H272861   4.337   3.856   3.329  0.2205 -0.2971 -0.0814
17124TIP3   OH272862   1.017   0.270   4.371  0.4609  0.6471  0.2407
17124TIP3    H172863   1.102   0.231   4.350 -0.1193  0.3775 -1.7241
17124TIP3    H272864   1.010   0.262   4.466  1.5240 -1.6538  0.1580
17125TIP3   OH272865   5.155   2.681   2.579 -0.0212  0.4519  0.0403
17125TIP3    H172866   5.088   2.685   2.646 -1.7362  0.5224 -1.6387
17125TIP3    H272867   5.171   2.772   2.554 -0.7734  0.3058 -0.9858
17126TIP3   OH272868   3.003   2.874   5.630 -0.2037  0.4451  0.5452
17126TIP3    H172869   3.010   2.789   5.586  1.1046 -0.2153  1.9778
17126TIP3    H272870   2.956   2.930   5.568 -2.3489 -1.7183  0.1559
17127TIP3   OH272871   3.101   1.389   4.961  0.4915 -0.1646  0.0768
17127TIP3    H172872   3.138   1.321   4.903  0.0801  1.4661 -2.1677
17127TIP3    H272873   3.031   1.344   5.008 -0.2451 -1.1505 -1.8925
17128TIP3   OH272874   1.816   1.828   4.711  0.1458  0.6528 -0.4270
17128TIP3    H172875   1.829   1.921   4.695  1.7415  0.7203  1.0588
17128TIP3    H272876   1.838   1.816   4.803 -2.0861 -0.8517 -0.0586
17129TIP3   OH272877   3.730   1.976   3.502  0.4161  0.1130  0.1427
17129TIP3    H172878   3.803   1.967   3.563 -0.9560 -1.2409  1.6068
17129TIP3    H272879   3.676   1.898   3.516 -0.8192  0.6167 -1.6013
17130TIP3   OH272880   3.997   1.489   3.547  0.6342  0.0918  0.3957
17130TIP3    H172881   4.082   1.519   3.515 -0.1936  0.8328 -1.1655
17130TIP3    H272882   3.944   1.569   3.552  0.2450 -0.2606  2.0691
17131TIP3   OH272883   3.803   0.587   4.839 -0.3359  0.7140 -0.0706
17131TIP3    H172884   3.766   0.503   4.868  1.4144  0.4999  1.6824
17131TIP3    H272885   3.755   0.653   4.889 -0.6393  0.6463 -0.2767
17132TIP3   OH272886   4.095   1.119   5.541 -0.5921  0.3580  0.2327
17132TIP3    H172887   4.190   1.116   5.528 -0.2510  0.6861  2.5229
17132TIP3    H272888   4.084   1.165   5.624 -2.8032  1.1316 -0.4710
17133TIP3   OH272889   4.822   2.658   3.389 -0.1667 -0.0686  0.3241
17133TIP3    H172890   4.832   2.710   3.309  1.0992 -0.3322  0.3021
17133TIP3    H272891   4.742   2.607   3.374  1.1438 -1.6282 -1.6587
17134TIP3   OH272892   3.598   2.415   4.504 -0.1440  0.0046 -0.2369
17134TIP3    H172893   3.546   2.465   4.567 -0.5668 -0.5567 -0.1417
17134TIP3    H272894   3.688   2.446   4.517 -0.6945  2.4672 -1.7880
17135TIP3   OH272895   4.714   2.263   3.297  0.1320  0.7541 -0.1404
17135TIP3    H172896   4.677   2.175   3.297 -0.4159  0.9644 -1.5136
17135TIP3    H272897   4.783   2.260   3.231  1.3343  0.8753  1.0927
17136TIP3   OH272898   2.000   0.857   4.399  0.2578 -0.2911 -0.6343
17136TIP3    H172899   2.094   0.850   4.387  0.4174  1.7812 -0.6842
17136TIP3    H272900   1.987   0.861   4.493  0.4116  1.6460 -0.6771
17137TIP3   OH272901   2.333   0.951   2.042  0.2362 -0.0296 -0.3301
17137TIP3    H172902   2.350   0.970   2.134 -0.6787 -0.4887 -0.0636
17137TIP3    H272903   2.385   0.872   2.023  3.9180  2.4970 -1.3986
17138TIP3   OH272904   0.199   1.590   5.635 -0.0898 -0.1272  0.5209
17138TIP3    H172905   0.212   1.577   5.728 -1.6159  0.0948  0.7899
17138TIP3    H272906   0.139   1.665   5.629  1.0821  0.7331 -0.6781
17139TIP3   OH272907   1.901   6.171   5.005 -0.7866  0.3292  0.0163
17139TIP3    H172908   1.975   6.232   5.001 -0.1552 -0.5502 -2.7347
17139TIP3    H272909   1.928   6.105   5.068  1.0006 -0.1968 -1.2480
17140TIP3   OH272910   3.441   2.064   6.107 -0.0415 -0.1600  0.4071
17140TIP3    H172911   3.405   2.135   6.054  1.6800  0.7705  0.4413
17140TIP3    H272912   3.504   2.021   6.050 -1.0006 -1.6232  0.4253
17141TIP3   OH272913   2.917   7.048   4.878  0.7663 -0.2704 -0.7985
17141TIP3    H172914   2.827   7.015   4.885  0.5594  0.0865 -1.7956
17141TIP3    H272915   2.970   6.980   4.920  0.1005 -0.7845 -0.7714
17142TIP3   OH272916   3.924   1.694   5.761  0.3365  0.2589  0.3091
17142TIP3    H172917   3.892   1.737   5.840  1.3284  0.9777  0.3191
17142TIP3    H272918   3.949   1.606   5.791  0.8685  0.5811  0.8356
17143TIP3   OH272919   1.440   0.459   5.677 -0.7396 -0.3879 -0.3276
17143TIP3    H172920   1.405   0.544   5.650 -0.9932 -1.3467 -3.2010
17143TIP3    H272921   1.385   0.432   5.750 -1.2231  1.5003  0.0430
17144TIP3   OH272922   3.881   0.958   5.106  0.4801 -0.3779 -0.0358
17144TIP3    H172923   3.958   0.902   5.110  0.9719  0.2347 -0.9177
17144TIP3    H272924   3.809   0.898   5.084  0.6818 -0.9465  0.8037
17145TIP3   OH272925   2.333   1.038   5.961 -0.3135  0.3130 -0.1994
17145TIP3    H172926   2.283   1.090   6.024  0.7176  1.5210 -0.3593
17145TIP3    H272927   2.288   1.050   5.878 -1.0421 -0.4061  0.0808
17146TIP3   OH272928   3.239   2.857   4.065 -0.2163 -0.4602 -0.8627
17146TIP3    H172929   3.305   2.881   4.001  0.2908  1.0146  0.1689
17146TIP3    H272930   3.187   2.937   4.077 -0.1858 -0.6510  0.6875
17147TIP3   OH272931   3.809   3.814   5.195 -0.0126 -0.0807  0.7575
17147TIP3    H172932   3.859   3.819   5.276  1.1638 -0.2311  0.0476
17147TIP3    H272933   3.843   3.736   5.150 -0.6834 -0.0282  0.1365
17148TIP3   OH272934   1.441   1.046   5.801 -0.0179  0.4520 -0.1282
17148TIP3    H172935   1.490   1.059   5.882 -0.6982 -1.2165  0.5651
17148TIP3    H272936   1.452   0.953   5.781 -0.6064  0.6592 -1.4745
17149TIP3   OH272937   4.600   1.230   5.598  0.0860 -0.1018  0.6678
17149TIP3    H172938   4.656   1.233   5.521  0.6436  0.0170  1.0714
17149TIP3    H272939   4.623   1.308   5.648 -0.0333 -0.3522  1.1172
17150TIP3   OH272940   2.140   7.045   5.267 -0.1430 -0.0753 -0.8054
17150TIP3    H172941   2.069   7.084   5.215  0.0865  1.2592 -0.1490
17150TIP3    H272942   2.211   7.033   5.205 -0.5210 -0.2859 -1.2047
17151TIP3   OH272943   5.621   1.172   3.956 -0.6728 -0.1609  0.2432
17151TIP3    H172944   5.529   1.161   3.935 -0.7048 -0.0266  0.3127
17151TIP3    H272945   5.658   1.216   3.880 -0.6262 -0.3841  0.1359
17152TIP3   OH272946   3.225   1.420   6.091 -0.1500  0.0593  0.5241
17152TIP3    H172947   3.235   1.400   6.184  1.3685  0.8221  0.5435
17152TIP3    H272948   3.273   1.350   6.047 -0.5648 -0.1023  0.3304
17153TIP3   OH272949   3.613   2.660   3.555 -0.2926  0.5157  0.1586
17153TIP3    H172950   3.698   2.654   3.510 -0.6942  0.2304 -0.5832
17153TIP3    H272951   3.575   2.573   3.544 -1.0754  0.9173 -0.3195
17154TIP3   OH272952   1.459   0.159   4.240 -0.0925  0.3861 -0.6255
17154TIP3    H172953   1.391   0.127   4.299  1.1724 -0.0574  0.6420
17154TIP3    H272954   1.497   0.235   4.286  1.9338 -0.8871 -0.1194
17155TIP3   OH272955   3.094   0.685   5.529  0.0636  0.4583  0.0682
17155TIP3    H172956   2.999   0.683   5.518 -0.0910 -1.9294  1.3415
17155TIP3    H272957   3.109   0.749   5.599 -0.6853  0.2635  0.4111
17156TIP3   OH272958   0.383   0.385   4.655  0.0940  0.1101 -0.4301
17156TIP3    H172959   0.289   0.369   4.641  0.2412 -0.9068 -0.3184
17156TIP3    H272960   0.387   0.436   4.736 -0.3872  0.5145 -0.6584
17157TIP3   OH272961   1.214   1.976   0.855  0.0631  0.2027  0.0166
17157TIP3    H172962   1.173   1.943   0.935  1.2658  0.7676  0.8665
17157TIP3    H272963   1.168   2.059   0.837 -0.1021  0.1512  0.1963
17158TIP3   OH272964   3.542   1.895   2.184 -0.2688 -0.1569 -0.6779
17158TIP3    H172965   3.519   1.884   2.277 -0.6188 -0.0492 -0.7538
17158TIP3    H272966   3.617   1.955   2.185  0.4062 -0.9914 -0.3915
17159TIP3   OH272967   1.794   7.041   4.341 -0.3605 -0.3750  0.0180
17159TIP3    H172968   1.764   7.118   4.292 -1.0785 -1.6415 -1.5786
17159TIP3    H272969   1.784   7.066   4.433 -0.8065  1.3488 -0.4794
17160TIP3   OH272970   7.052   0.501   5.086 -0.5645 -0.2014  0.3686
17160TIP3    H172971   7.089   0.582   5.120 -2.2524  0.3093  1.0559
17160TIP3    H272972   7.008   0.461   5.161 -2.0564 -0.3880 -0.5741
17161TIP3   OH272973   2.639   1.854   3.030 -0.0543 -0.3110 -0.3359
17161TIP3    H172974   2.552   1.869   3.069 -1.0482 -0.4754 -2.4421
17161TIP3    H272975   2.652   1.760   3.035  0.8519 -0.1082  1.6930
17162TIP3   OH272976   2.214   6.862   3.430 -0.2506 -0.0529  0.1249
17162TIP3    H172977   2.189   6.792   3.369  1.7995 -0.4353 -0.3239
17162TIP3    H272978   2.214   6.941   3.376  0.6789 -0.2469 -0.1658
17163TIP3   OH272979   2.245   4.973   5.782  0.0759 -0.2012 -0.4815
17163TIP3    H172980   2.187   4.911   5.738 -1.1241  0.8735 -0.4679
17163TIP3    H272981   2.186   5.028   5.834  1.3029 -0.3478  1.1222
17164TIP3   OH272982   2.507   1.868   4.068  0.2571  0.8268 -0.4688
17164TIP3    H172983   2.431   1.837   4.018  1.7148  0.4237 -2.4546
17164TIP3    H272984   2.555   1.924   4.007  1.7989  0.7260  0.6338
17165TIP3   OH272985   3.178   1.186   4.796 -0.2066 -0.1632  0.0113
17165TIP3    H172986   3.086   1.159   4.799  0.4062 -2.2781  0.0998
17165TIP3    H272987   3.227   1.105   4.804  1.6819  0.8438 -1.1545
17166TIP3   OH272988   3.847   3.671   4.039  0.3856 -0.2726 -0.0218
17166TIP3    H172989   3.895   3.705   4.115 -2.0034  1.9889  0.5346
17166TIP3    H272990   3.891   3.711   3.964  0.9854 -0.2768  0.3181
17167TIP3   OH272991   3.473   1.177   3.106 -0.1698 -0.5086 -0.4790
17167TIP3    H172992   3.553   1.229   3.102  1.1805 -2.4832  0.5059
17167TIP3    H272993   3.472   1.127   3.025 -1.1250  0.4940 -1.1117
17168TIP3   OH272994   3.296   0.299   5.651  0.8358 -0.1571  0.2896
17168TIP3    H172995   3.247   0.348   5.586  0.0822  0.3380  1.2096
17168TIP3    H272996   3.299   0.357   5.727  3.4751  0.1229  0.0237
17169TIP3   OH272997   5.228   2.261   3.591 -0.2101 -0.7371  0.0434
17169TIP3    H172998   5.176   2.185   3.563 -0.0207 -0.9880  0.3598
17169TIP3    H272999   5.187   2.288   3.673 -0.6533 -0.1177 -0.3825
17170TIP3   OH273000   2.351   0.238   4.780 -0.1838 -0.2583 -0.6998
17170TIP3    H173001   2.278   0.285   4.739  0.4037  0.1852 -1.2461
17170TIP3    H273002   2.429   0.284   4.750  0.3196 -0.6860 -0.0519
17171TIP3   OH273003   2.233   0.871   4.861 -0.3859  0.2998  0.0109
17171TIP3    H173004   2.255   0.955   4.820  0.8009 -0.6795 -1.4191
17171TIP3    H273005   2.160   0.891   4.919 -0.2327  2.2894 -0.4365
17172TIP3   OH273006   2.307   1.796   4.294  0.1584 -0.1029 -0.0299
17172TIP3    H173007   2.399   1.773   4.289  0.4003  1.0741 -1.2908
17172TIP3    H273008   2.293   1.817   4.387  1.4321  0.7848 -0.0300
17173TIP3   OH273009   1.610   2.751   3.627  0.0980  0.1816  0.0208
17173TIP3    H173010   1.667   2.698   3.683 -0.3084  0.4557  0.7072
17173TIP3    H273011   1.625   2.718   3.539  2.4977  1.2953 -0.0281
17174TIP3   OH273012   2.201   2.057   4.149 -0.7545 -0.2201 -0.0289
17174TIP3    H173013   2.258   1.989   4.187  0.2481  0.4585 -0.3040
17174TIP3    H273014   2.207   2.042   4.054  2.2808  2.4345 -0.3221
17175TIP3   OH273015   2.543   6.574   5.023  0.2321 -0.3302  0.2373
17175TIP3    H173016   2.544   6.530   5.108 -0.2387  1.7029  1.3051
17175TIP3    H273017   2.537   6.667   5.043 -1.6638  0.1016 -2.0445
17176TIP3   OH273018   4.099   1.402   3.284  0.0556 -0.2748  0.2887
17176TIP3    H173019   4.150   1.466   3.333 -0.6087 -0.3452  1.0921
17176TIP3    H273020   4.148   1.320   3.292  0.8545  0.1087 -0.6594
17177TIP3   OH273021   2.597   7.282   5.722  0.2789  0.0274 -0.0218
17177TIP3    H173022   2.610   7.259   5.814  0.1362  0.5371  0.1280
17177TIP3    H273023   2.656   7.355   5.707  0.0801  0.1401 -0.2551
17178TIP3   OH273024   2.834   1.249   5.518 -0.1261 -0.0385 -0.3465
17178TIP3    H173025   2.775   1.188   5.473  0.4862 -1.1487  0.3106
17178TIP3    H273026   2.906   1.263   5.456  0.4407 -1.1272  0.0516
17179TIP3   OH273027   4.277   1.238   0.637 -0.1513  0.2164 -0.1958
17179TIP3    H173028   4.203   1.200   0.590 -0.9550  1.0808  0.3507
17179TIP3    H273029   4.324   1.288   0.571 -1.6016  1.9068  0.0113
17180TIP3   OH273030   2.925   0.555   4.535 -0.2458  0.5275 -0.2293
17180TIP3    H173031   2.978   0.475   4.533 -1.4795 -0.3223  0.3757
17180TIP3    H273032   2.949   0.596   4.618 -0.3778  0.2501 -0.0519
17181TIP3   OH273033   2.270   0.830   4.423  0.2109  0.1081  0.1319
17181TIP3    H173034   2.253   0.795   4.511  0.1831  0.2041  0.1639
17181TIP3    H273035   2.298   0.920   4.438  2.3945 -0.5584  0.2030
17182TIP3   OH273036   3.724   1.205   4.359  0.1701  0.1207 -0.0234
17182TIP3    H173037   3.783   1.276   4.385 -0.9474  0.5816  1.3658
17182TIP3    H273038   3.671   1.243   4.289  0.7627  0.0754 -0.4963
17183TIP3   OH273039   3.561   0.621   5.093 -0.4890  0.0055 -0.5501
17183TIP3    H173040   3.597   0.708   5.080  1.3796 -0.7374 -0.4287
17183TIP3    H273041   3.618   0.580   5.158 -1.6781 -1.1211 -0.1787
17184TIP3   OH273042   1.212   0.072   2.939  0.0985 -0.7044 -0.4337
17184TIP3    H173043   1.125   0.112   2.931 -0.2764 -1.7493 -1.6922
17184TIP3    H273044   1.224   0.061   3.034 -1.5295 -1.3715 -0.2921
17185TIP3   OH273045   2.402   0.491   4.517 -0.4259  0.3186 -0.0103
17185TIP3    H173046   2.372   0.563   4.571 -0.1433  1.1986 -1.0058
17185TIP3    H273047   2.492   0.476   4.546 -1.0172 -0.7313  1.3221
17186TIP3   OH273048   2.327   4.525   4.643 -0.4613  0.1564 -0.4959
17186TIP3    H173049   2.416   4.552   4.663 -1.2761  2.3121  0.3023
17186TIP3    H273050   2.280   4.530   4.726 -1.2867 -1.2391 -0.8488
17187TIP3   OH273051   1.331   0.871   5.538 -0.0421  0.5150  0.2858
17187TIP3    H173052   1.295   0.790   5.502  1.0219 -0.2283  0.8407
17187TIP3    H273053   1.372   0.844   5.620  1.0920  1.4618  0.0501
17188TIP3   OH273054   3.337   2.156   4.174  0.7153  0.0735  0.2431
17188TIP3    H173055   3.323   2.062   4.188 -0.0132 -0.2476 -2.3606
17188TIP3    H273056   3.259   2.185   4.127  2.1664  1.4038 -1.4004
17189TIP3   OH273057   2.881   1.571   3.936 -0.0168  0.8985 -0.7044
17189TIP3    H173058   2.935   1.523   3.998  0.6452  0.0926 -1.8941
17189TIP3    H273059   2.792   1.543   3.955  0.4004 -1.2286 -1.7252
17190TIP3   OH273060   5.625   0.021   4.431  0.8327 -0.5853 -0.4166
17190TIP3    H173061   5.559   0.058   4.490  2.1816  0.3140  0.5527
17190TIP3    H273062   5.580  -0.052   4.387 -1.3517  1.1420 -1.1258
17191TIP3   OH273063   6.594   2.206   3.365  0.3890  0.1481 -0.5639
17191TIP3    H173064   6.598   2.172   3.276  1.5915 -0.0379 -0.4494
17191TIP3    H273065   6.668   2.266   3.372 -1.0403  1.9352 -0.3905
17192TIP3   OH273066   4.125   1.756   6.107  0.0869  0.2764 -0.2246
17192TIP3    H173067   4.070   1.741   6.184 -1.5640 -1.1381 -1.6336
17192TIP3    H273068   4.076   1.820   6.056 -0.0963 -0.7162 -1.3099
17193TIP3   OH273069   0.322   6.520   4.598 -0.1809 -0.3169 -0.2060
17193TIP3    H173070   0.313   6.582   4.670  0.8665  0.2602 -0.5744
17193TIP3    H273071   0.233   6.509   4.565 -0.5225  0.1768  0.5393
17194TIP3   OH273072   2.307   0.046   6.021 -0.2048 -0.0932 -0.4719
17194TIP3    H173073   2.347  -0.041   6.012 -0.1315  0.0645 -1.7022
17194TIP3    H273074   2.221   0.037   5.980 -1.3307 -0.3232  1.8287
17195TIP3   OH273075   3.420   5.577   5.286  0.4041  0.0990  0.2634
17195TIP3    H173076   3.367   5.636   5.231  1.8512  0.8774 -0.3542
17195TIP3    H273077   3.508   5.615   5.282  1.2713 -1.8623  0.2415
17196TIP3   OH273078   4.040   2.009   4.935  0.2660  0.0248  0.3736
17196TIP3    H173079   3.997   1.927   4.959  2.1336 -1.0978 -0.0288
17196TIP3    H273080   4.111   1.983   4.877  1.2980  1.8644  0.7647
17197TIP3   OH273081   2.654   0.870   3.973 -0.7741 -0.3254 -0.8458
17197TIP3    H173082   2.719   0.805   3.947  0.7100 -0.0194  1.8727
17197TIP3    H273083   2.576   0.819   3.994 -0.5872 -0.9439 -1.6472
17198TIP3   OH273084   1.313   7.284   5.550 -0.1145 -0.1942  0.9604
17198TIP3    H173085   1.373   7.274   5.475  0.0515 -1.7358  1.2869
17198TIP3    H273086   1.295   7.378   5.553  0.0202 -0.0772 -0.9084
17199TIP3   OH273087   2.726   0.796   6.119  0.4959 -0.2728 -0.4491
17199TIP3    H173088   2.680   0.726   6.074 -1.4213  0.6710 -0.0153
17199TIP3    H273089   2.706   0.875   6.069  0.5038  0.3644  0.5225
17200TIP3   OH273090   3.301   0.771   3.890  0.1439 -0.1977  0.6680
17200TIP3    H173091   3.262   0.828   3.957  0.1051 -0.2946  0.7266
17200TIP3    H273092   3.333   0.696   3.938  0.6987  0.0351  0.6609
17201TIP3   OH273093   2.003   2.300   5.336  0.1103  0.2459  0.3207
17201TIP3    H173094   1.957   2.217   5.325  1.7634 -0.5659 -0.6593
17201TIP3    H273095   1.938   2.367   5.313 -0.4744 -0.8933 -1.4561
17202TIP3   OH273096   1.104   0.579   4.423 -0.0266 -0.3369  0.0622
17202TIP3    H173097   1.127   0.613   4.509  1.0091 -0.4226 -0.1688
17202TIP3    H273098   1.016   0.544   4.433 -0.3721  0.7180  0.7799
17203TIP3   OH273099   2.243   0.920   5.602  0.7109 -0.3019 -0.2394
17203TIP3    H173100   2.214   0.989   5.662  0.0134 -0.7804 -0.0121
17203TIP3    H273101   2.198   0.938   5.520  0.5810 -0.4450 -0.2005
17204TIP3   OH273102   2.434   2.619   3.138  0.5002  0.2337  0.5100
17204TIP3    H173103   2.519   2.589   3.105  0.0034 -0.4742 -0.1747
17204TIP3    H273104   2.371   2.582   3.076 -0.1239  3.0533 -0.5893
17205TIP3   OH273105   1.776   2.164   4.058 -0.1184 -0.4627  0.7278
17205TIP3    H173106   1.853   2.137   4.107  0.8510  2.2442  0.7602
17205TIP3    H273107   1.779   2.260   4.058 -2.6545 -0.3284 -0.5734
17206TIP3   OH273108   5.761   1.007   4.664  0.2169 -0.1002 -0.5617
17206TIP3    H173109   5.742   0.927   4.614  1.0362 -1.2376  0.8788
17206TIP3    H273110   5.816   0.976   4.737  1.7725  2.0065 -0.8122
17207TIP3   OH273111   4.972   2.046   5.085  0.0246 -0.0485  0.8084
17207TIP3    H173112   4.918   2.066   5.008 -2.0787 -1.9215  1.7247
17207TIP3    H273113   4.916   2.070   5.159  2.7443  3.5792  1.8439
17208TIP3   OH273114   3.327   3.680   4.464  0.0042 -0.2752  0.1061
17208TIP3    H173115   3.265   3.613   4.437 -0.1804 -0.3658  0.7418
17208TIP3    H273116   3.311   3.691   4.558  0.3955  0.2771  0.1117
17209TIP3   OH273117   3.777   1.024   3.586  0.2534  0.6613  0.8599
17209TIP3    H173118   3.707   0.977   3.631 -0.6159  2.2813  1.2331
17209TIP3    H273119   3.784   0.980   3.501 -0.9947  0.2721  0.9451
17210TIP3   OH273120   3.864   7.231   5.922 -0.1346 -0.3892  0.0497
17210TIP3    H173121   3.834   7.175   5.994 -1.9519 -0.1526 -0.5157
17210TIP3    H273122   3.845   7.181   5.843  2.6565 -1.0306 -0.2859
17211TIP3   OH273123   3.679   0.110   1.841 -0.4755  0.0331  0.0440
17211TIP3    H173124   3.701   0.171   1.771  0.2835 -0.1174  0.1443
17211TIP3    H273125   3.691   0.023   1.802 -1.1271 -0.0527  0.0306
17212TIP3   OH273126   5.721   1.500   2.854  0.8646 -0.9964 -0.1740
17212TIP3    H173127   5.668   1.483   2.932 -0.3111 -1.3589 -1.0252
17212TIP3    H273128   5.785   1.429   2.853  1.4514 -0.4987  0.9274
17213TIP3   OH273129   3.176   1.711   4.681 -0.0163 -0.1903 -0.1813
17213TIP3    H173130   3.270   1.720   4.664  0.0018  2.4236  1.0051
17213TIP3    H273131   3.136   1.776   4.623 -1.2402 -2.3347 -1.7932
17214TIP3   OH273132   2.574   1.160   5.201  0.3825 -0.0805  0.5270
17214TIP3    H173133   2.509   1.201   5.260  0.2183  0.3915  0.0234
17214TIP3    H273134   2.623   1.101   5.258 -1.1669 -1.2223  0.7006
17215TIP3   OH273135   3.815   0.073   4.748  0.2274 -0.2834 -0.4503
17215TIP3    H173136   3.843   0.025   4.671 -0.6306 -2.3520  0.4986
17215TIP3    H273137   3.807   0.007   4.817 -1.5401  1.1085  0.7362
17216TIP3   OH273138   3.342   6.885   5.142 -0.1455  0.0453  0.4099
17216TIP3    H173139   3.276   6.869   5.210 -0.9064  0.8925 -0.1125
17216TIP3    H273140   3.338   6.980   5.127 -0.1897 -0.1767 -1.0258
17217TIP3   OH273141   2.254   2.065   5.509  0.3297 -0.4905  0.1318
17217TIP3    H173142   2.173   2.048   5.461  0.7869 -2.7270  0.0865
17217TIP3    H273143   2.232   2.137   5.568 -1.2614 -0.1025 -0.9014
17218TIP3   OH273144   1.677   0.063   5.423  0.4822 -0.2529 -0.3083
17218TIP3    H173145   1.604   0.119   5.450 -0.5527 -1.9185  0.4453
17218TIP3    H273146   1.698   0.091   5.334 -0.3709  0.9607 -0.1357
17219TIP3   OH273147   2.360   7.144   3.047 -0.2672  0.4762  0.0591
17219TIP3    H173148   2.443   7.103   3.026 -0.8147 -0.2574 -0.7067
17219TIP3    H273149   2.375   7.238   3.032  0.1774  0.2610 -0.8627
17220TIP3   OH273150   3.477   3.017   2.984  0.3591 -0.6226  0.3105
17220TIP3    H173151   3.512   3.031   3.072 -0.8191  0.1561  0.6770
17220TIP3    H273152   3.544   2.966   2.938  0.4196 -2.1352  2.0475
17221TIP3   OH273153   1.625   0.746   6.120 -0.1282  0.3285  0.7481
17221TIP3    H173154   1.582   0.738   6.206 -1.1935  0.9512  0.2882
17221TIP3    H273155   1.577   0.686   6.063  1.7360 -1.4601  0.9926
17222TIP3   OH273156   2.934   0.246   4.846 -0.1476  0.2705  0.4342
17222TIP3    H173157   2.937   0.158   4.882 -1.1907 -0.0074 -0.1288
17222TIP3    H273158   3.010   0.291   4.884  1.1507 -1.2652 -0.3247
17223TIP3   OH273159   0.658   6.412   4.399  0.4923 -0.1545 -0.0182
17223TIP3    H173160   0.740   6.371   4.370  0.6311  0.4453 -0.4964
17223TIP3    H273161   0.679   6.452   4.483  0.7877  0.3034 -0.3088
17224TIP3   OH273162   6.061   0.967   5.832 -0.5406 -0.1108 -0.0231
17224TIP3    H173163   6.003   0.900   5.795 -2.2866  1.6118 -0.4558
17224TIP3    H273164   6.003   1.039   5.856  0.8464 -0.1120  3.6744
17225TIP3   OH273165   4.270   0.970   4.535 -0.0166  0.0103 -0.9455
17225TIP3    H173166   4.236   1.058   4.528  0.2814  0.0806 -1.5850
17225TIP3    H273167   4.198   0.913   4.508 -0.6029 -0.0143  0.6474
17226TIP3   OH273168   4.029   4.034   4.215 -1.1022  0.4680 -0.6504
17226TIP3    H173169   3.956   4.045   4.154 -0.4692  3.4293 -0.9482
17226TIP3    H273170   4.082   4.113   4.203  2.2272 -1.6801 -0.5424
17227TIP3   OH273171   0.766   1.191   5.757 -0.6508  0.3370  0.5219
17227TIP3    H173172   0.730   1.269   5.714 -1.0150  0.3783  0.8976
17227TIP3    H273173   0.848   1.174   5.711 -0.1408  1.4531  0.9758
17228TIP3   OH273174   5.072   1.385   4.225 -0.1305 -0.3622  0.1022
17228TIP3    H173175   5.011   1.369   4.153  0.2927  0.6821 -0.4814
17228TIP3    H273176   5.074   1.480   4.235 -0.1090 -0.4863  1.4290
17229TIP3   OH273177   0.600   2.024   2.821  0.1972 -0.1032 -0.8332
17229TIP3    H173178   0.677   2.080   2.823  0.7494 -0.8825  0.0344
17229TIP3    H273179   0.564   2.028   2.909  0.1933 -1.0376 -0.7855
17230TIP3   OH273180   0.320   1.227   4.554  0.3323 -0.1281 -0.1006
17230TIP3    H173181   0.278   1.277   4.625 -0.9173  1.5556 -1.9652
17230TIP3    H273182   0.413   1.228   4.576 -0.0671  0.0734  1.6820
17231TIP3   OH273183   2.271   1.648   5.729 -0.1044 -0.1757 -0.5089
17231TIP3    H173184   2.263   1.586   5.802  1.8556  0.1431  0.0247
17231TIP3    H273185   2.313   1.724   5.768 -0.9325  0.8116 -1.5382
17232TIP3   OH273186   2.513   0.534   6.199  0.4753 -0.3256  0.0458
17232TIP3    H173187   2.537   0.444   6.178  0.3883 -0.5714  0.9706
17232TIP3    H273188   2.540   0.585   6.123  2.5890 -0.7992  0.4375
17233TIP3   OH273189   2.812   2.807   5.843  0.1741  0.0097  0.0109
17233TIP3    H173190   2.881   2.825   5.779  0.4801 -0.1449  0.2934
17233TIP3    H273191   2.741   2.865   5.819 -0.3303 -1.1906 -1.4644
17234TIP3   OH273192   3.604   6.802   3.764 -0.1183 -0.6239 -0.8511
17234TIP3    H173193   3.595   6.876   3.823  1.2232 -1.4684  0.4340
17234TIP3    H273194   3.520   6.799   3.717 -0.7465  0.7808  0.1433
17235TIP3   OH273195   1.148   2.164   6.061  0.1026  0.5210 -0.0034
17235TIP3    H173196   1.220   2.168   5.998 -0.0681 -1.0548 -0.3090
17235TIP3    H273197   1.081   2.112   6.018 -0.2486 -0.0962  1.2499
17236TIP3   OH273198   3.563   1.150   6.088 -0.4278  0.0561 -0.8528
17236TIP3    H173199   3.472   1.121   6.076 -1.2153  2.0399  0.0521
17236TIP3    H273200   3.582   1.130   6.179  0.8611 -2.4112 -1.6041
17237TIP3   OH273201   2.692   0.169   5.589  0.5034 -0.2481 -0.0126
17237TIP3    H173202   2.750   0.167   5.513  2.8793 -1.6501  1.7412
17237TIP3    H273203   2.736   0.228   5.651 -0.8518  0.0599  0.6810
17238TIP3   OH273204   2.926   2.561   5.911 -0.3155 -0.3536 -0.3496
17238TIP3    H173205   2.894   2.648   5.884  0.8914 -0.1952 -1.3523
17238TIP3    H273206   2.962   2.575   5.998 -0.8956 -0.0382 -0.1531
17239TIP3   OH273207   2.691   2.731   3.703  0.3551 -0.2725 -0.0164
17239TIP3    H173208   2.656   2.742   3.792 -0.3946  1.3246 -0.4715
17239TIP3    H273209   2.621   2.686   3.656  0.4048 -0.3622 -0.0032
17240TIP3   OH273210   1.452   0.461   4.623  0.0662  0.1676 -0.0717
17240TIP3    H173211   1.458   0.458   4.528 -0.8641  0.6885 -0.1504
17240TIP3    H273212   1.380   0.522   4.641  1.7942  1.9876  0.9863
17241TIP3   OH273213   0.717   7.244   2.615  0.0530  0.1970  0.0183
17241TIP3    H173214   0.728   7.206   2.702  1.6091 -1.1357 -0.7302
17241TIP3    H273215   0.806   7.261   2.585 -0.2956 -1.6766 -2.2870
17242TIP3   OH273216   3.066   1.104   5.953 -0.4019  0.1121  0.3733
17242TIP3    H173217   3.105   1.021   5.981 -1.1169 -0.2954  0.1720
17242TIP3    H273218   2.995   1.120   6.015 -0.6732  0.2524  0.0282
17243TIP3   OH273219   1.653   1.356   3.852  0.1085  0.2643 -0.3723
17243TIP3    H173220   1.728   1.347   3.910 -0.0334  1.2398 -0.0280
17243TIP3    H273221   1.600   1.278   3.869 -0.0431  0.6562  0.9824
17244TIP3   OH273222   4.756   5.894   5.873 -0.4615  0.2086  0.4468
17244TIP3    H173223   4.849   5.904   5.891 -0.3866 -1.2487  0.9325
17244TIP3    H273224   4.720   5.853   5.952 -1.2618 -0.4330 -0.2322
17245TIP3   OH273225   5.234   5.162   5.394 -0.0504 -0.1677 -0.7045
17245TIP3    H173226   5.325   5.159   5.422  0.2333 -1.6908 -1.7207
17245TIP3    H273227   5.187   5.112   5.461 -0.3580  1.8276  0.5815
17246TIP3   OH273228   2.536   0.996   4.391 -0.1490 -0.0490 -0.3984
17246TIP3    H173229   2.527   0.974   4.483 -0.8795  0.8406 -0.2559
17246TIP3    H273230   2.619   0.955   4.364 -1.2045 -2.5157 -0.0046
17247TIP3   OH273231   0.752   0.243   4.402 -0.3140  0.1075  0.1451
17247TIP3    H173232   0.707   0.243   4.317  0.0839 -1.3300 -0.0785
17247TIP3    H273233   0.838   0.206   4.384  0.2620  1.0250  0.9445
17248TIP3   OH273234   2.618   6.123   5.386 -0.0404 -0.5272  0.3973
17248TIP3    H173235   2.613   6.218   5.383  0.7059 -0.5315 -0.9484
17248TIP3    H273236   2.649   6.104   5.475  2.8043  0.6247 -0.2908
17249TIP3   OH273237   3.328   0.513   5.828  0.3377  0.0254  0.0463
17249TIP3    H173238   3.295   0.534   5.915  1.0445  2.0780 -0.1592
17249TIP3    H273239   3.418   0.544   5.828  0.4304 -0.2020 -1.3288
17250TIP3   OH273240   4.527   0.883   4.427  0.1823  0.7191 -0.2735
17250TIP3    H173241   4.522   0.797   4.469  1.7460  0.5609 -0.3966
17250TIP3    H273242   4.454   0.932   4.466  0.4155 -0.0556  1.1873
17251TIP3   OH273243   0.540   2.459   4.674 -0.5451 -0.3444 -0.1915
17251TIP3    H173244   0.525   2.528   4.608 -0.2730  1.1302  1.2554
17251TIP3    H273245   0.487   2.386   4.644 -2.5180  1.2168 -0.6692
17252TIP3   OH273246   3.248   0.943   3.658 -0.2567  0.2405 -0.0836
17252TIP3    H173247   3.200   0.862   3.639 -0.5103  0.2460  0.5292
17252TIP3    H273248   3.250   0.948   3.754  1.3501  0.0114 -0.0886
17253TIP3   OH273249   1.638   0.333   5.822  0.0558  0.2403 -0.7060
17253TIP3    H173250   1.578   0.357   5.892  0.3695 -0.5305 -0.1759
17253TIP3    H273251   1.600   0.374   5.744 -1.3478 -0.5027 -0.4375
17254TIP3   OH273252   3.468   4.836   3.336 -0.1797  0.3040  0.3897
17254TIP3    H173253   3.499   4.781   3.408 -0.3907  1.9678  1.7940
17254TIP3    H273254   3.478   4.926   3.369 -1.0013  1.0581 -1.3668
17255TIP3   OH273255   3.708   1.998   5.416 -0.1442  0.1741 -0.3480
17255TIP3    H173256   3.758   1.919   5.391  1.7913  1.4453 -0.6084
17255TIP3    H273257   3.668   1.975   5.500  0.2529 -1.1476 -0.5021
17256TIP3   OH273258   3.766   0.133   5.369 -0.2433  0.2592 -0.0433
17256TIP3    H173259   3.820   0.062   5.403  0.3545  0.1061 -1.2991
17256TIP3    H273260   3.681   0.092   5.351 -0.7984  0.4907  1.8829
17257TIP3   OH273261   0.726   5.482   3.741  0.0910  0.0430 -0.0255
17257TIP3    H173262   0.728   5.551   3.675 -0.2816 -0.7560 -0.8947
17257TIP3    H273263   0.661   5.511   3.804 -0.3521  0.3053 -0.5959
17258TIP3   OH273264   0.209   1.991   6.027  0.3817  0.0305  0.0216
17258TIP3    H173265   0.288   2.041   6.048  1.8585 -2.4501  0.5941
17258TIP3    H273266   0.201   1.928   6.099 -1.9733  0.0635 -0.1729
17259TIP3   OH273267   3.156   1.697   6.208 -0.3998 -0.6826  0.0722
17259TIP3    H173268   3.130   1.633   6.142 -1.5754  0.2226 -0.3312
17259TIP3    H273269   3.094   1.684   6.280 -0.2154 -0.4481  0.2743
17260TIP3   OH273270   3.479   0.337   4.216 -0.2736  0.4972  0.1920
17260TIP3    H173271   3.487   0.245   4.190 -1.0753  0.3279  0.5317
17260TIP3    H273272   3.567   0.362   4.243  0.0328 -0.0551 -0.2883
17261TIP3   OH273273   6.185   0.561   3.707  0.1466  0.1525 -0.2742
17261TIP3    H173274   6.161   0.500   3.637 -1.4164  1.4682 -0.9151
17261TIP3    H273275   6.270   0.595   3.680  0.8942 -1.4687 -0.0670
17262TIP3   OH273276   3.171   0.448   6.057  0.3986 -0.1028 -0.5872
17262TIP3    H173277   3.219   0.484   6.132  0.0123 -0.2904 -0.2432
17262TIP3    H273278   3.079   0.466   6.077 -0.0396 -3.5106  0.8609
17263TIP3   OH273279   5.368   0.394   5.470  0.1159  0.7898  0.3292
17263TIP3    H173280   5.455   0.384   5.432  0.6048 -0.3425  1.7137
17263TIP3    H273281   5.312   0.418   5.396  1.2210 -0.4523 -0.9425
17264TIP3   OH273282   4.348   7.188   5.429 -0.0297 -0.0956 -0.2873
17264TIP3    H173283   4.269   7.138   5.450 -1.2237  1.7075 -0.3870
17264TIP3    H273284   4.400   7.184   5.509 -0.6307 -0.5542  0.0891
17265TIP3   OH273285   4.836   0.601   3.096 -0.3484  0.2146  0.1900
17265TIP3    H173286   4.779   0.630   3.167 -0.3294 -1.6072  0.9786
17265TIP3    H273287   4.784   0.615   3.016 -1.5450 -0.4959  0.8164
17266TIP3   OH273288   2.163   1.490   5.556 -0.0410 -0.1400 -0.0929
17266TIP3    H173289   2.202   1.409   5.589 -0.3088 -0.5288 -0.7417
17266TIP3    H273290   2.193   1.557   5.618  0.5550 -0.6554  0.1846
17267TIP3   OH273291   4.206   3.318   4.915  0.4738  0.3641  0.0429
17267TIP3    H173292   4.274   3.298   4.979  0.3605  0.0898  0.0768
17267TIP3    H273293   4.129   3.272   4.947  0.1283  1.0889  0.2894
17268TIP3   OH273294   1.617   0.552   4.820  0.1476 -0.1098 -0.2871
17268TIP3    H173295   1.671   0.628   4.796 -1.9075  1.9712  1.5094
17268TIP3    H273296   1.565   0.535   4.742  0.1694  0.7412 -0.4978
17269TIP3   OH273297   7.021   1.301   5.404  0.1898  0.6789  0.1662
17269TIP3    H173298   6.948   1.240   5.403  1.2217 -0.5808  0.6902
17269TIP3    H273299   6.996   1.369   5.341 -0.5584 -0.7422 -1.1096
17270TIP3   OH273300   6.086   2.495   3.363  0.1921 -0.1335 -0.3576
17270TIP3    H173301   6.054   2.473   3.450  1.5777  0.4870  0.3362
17270TIP3    H273302   6.145   2.423   3.341  0.6621  0.2297 -0.3131
17271TIP3   OH273303   5.417   1.265   4.646  0.0854 -0.4534 -0.3412
17271TIP3    H173304   5.359   1.198   4.682 -0.6567 -0.0705 -0.8254
17271TIP3    H273305   5.499   1.253   4.694 -0.5131 -0.7352  0.6247
17272TIP3   OH273306   2.972   7.045   6.102  0.0343 -0.3693  0.3368
17272TIP3    H173307   3.016   7.123   6.068  1.7056 -1.0396  0.9004
17272TIP3    H273308   2.898   7.078   6.152  1.4027  0.9048  1.5310
17273TIP3   OH273309   2.820   0.993   5.774 -0.1410 -0.0276  0.1802
17273TIP3    H173310   2.760   0.967   5.703  2.0605 -2.5661 -0.8341
17273TIP3    H273311   2.771   0.975   5.854 -2.1450  1.5672 -0.6341
17274TIP3   OH273312   5.882   0.876   4.867 -0.0329 -0.4359  0.1477
17274TIP3    H173313   5.963   0.924   4.848  0.5167 -2.2882 -2.4205
17274TIP3    H273314   5.904   0.822   4.943  1.5430 -1.7806 -1.2258
17275TIP3   OH273315   6.526   1.109   3.671  0.6477  0.0487  0.7076
17275TIP3    H173316   6.612   1.136   3.704  1.1070 -0.6089  0.0513
17275TIP3    H273317   6.478   1.082   3.749  1.0234  0.4571  1.0823
17276TIP3   OH273318   4.495   3.642   4.601  0.2677  0.4501 -0.8364
17276TIP3    H173319   4.439   3.701   4.551  1.5366  0.1115 -2.7157
17276TIP3    H273320   4.577   3.690   4.612  0.2024  0.2930  0.4539
17277TIP3   OH273321   4.891   0.927   5.506  0.0936 -0.4894  0.6833
17277TIP3    H173322   4.963   0.869   5.531  1.9601  1.4208 -0.0502
17277TIP3    H273323   4.900   1.002   5.565 -1.3336 -0.2245  0.5847
17278TIP3   OH273324   4.235   6.889   5.006 -0.0131  0.5415 -0.1321
17278TIP3    H173325   4.315   6.866   4.959 -0.5894  0.8671 -1.2842
17278TIP3    H273326   4.221   6.816   5.067  0.6816  0.0624 -0.5452
17279TIP3   OH273327   3.000   0.282   4.593  0.0340  0.6056  0.1441
17279TIP3    H173328   2.974   0.297   4.684  1.8376 -0.7244  0.8925
17279TIP3    H273329   3.067   0.214   4.598 -0.0952  0.2807 -2.2160
17280TIP3   OH273330   2.948   2.742   5.213  0.5389  0.1325 -0.3584
17280TIP3    H173331   2.905   2.823   5.187  0.7745  0.0694 -0.9684
17280TIP3    H273332   2.888   2.701   5.275 -0.0117  0.3239 -0.7604
17281TIP3   OH273333   2.324   2.683   4.740  0.1534 -0.5608 -0.2949
17281TIP3    H173334   2.399   2.720   4.694  0.3311 -1.5676 -0.8078
17281TIP3    H273335   2.253   2.745   4.723  1.3342  1.4560  1.8295
17282TIP3   OH273336   2.078   0.731   5.721 -0.3112 -0.1327 -0.5952
17282TIP3    H173337   2.101   0.747   5.812  0.5652 -0.8710 -0.6798
17282TIP3    H273338   2.131   0.794   5.671 -0.0020 -0.4336 -0.6540
17283TIP3   OH273339   6.115   2.741   5.402  0.7402  0.6263 -0.3657
17283TIP3    H173340   6.027   2.736   5.364  0.3433  1.1528  0.4788
17283TIP3    H273341   6.168   2.780   5.332  0.2177  0.6963 -0.7331
17284TIP3   OH273342   5.320   5.658   4.708  0.3395  0.0066 -0.0741
17284TIP3    H173343   5.367   5.741   4.697  0.3716  0.2121  1.5223
17284TIP3    H273344   5.281   5.641   4.622 -2.6894  3.5087  0.4788
17285TIP3   OH273345   4.406   1.917   2.719  0.0159  0.0955  0.0199
17285TIP3    H173346   4.364   1.931   2.804 -1.3298  1.9269 -0.8991
17285TIP3    H273347   4.450   2.000   2.700  0.6714 -0.4505 -0.8696
17286TIP3   OH273348   3.892   4.311   4.054  0.1999 -0.2242  0.4787
17286TIP3    H173349   3.855   4.225   4.075  0.5511 -0.4896  0.0235
17286TIP3    H273350   3.816   4.369   4.046  0.0106 -0.3207  1.5588
17287TIP3   OH273351   5.649   7.004   4.076  0.0720  0.0468  0.1696
17287TIP3    H173352   5.676   6.912   4.078 -0.8607 -0.2221  1.2341
17287TIP3    H273353   5.729   7.053   4.092  0.3029 -0.6527  1.1845
17288TIP3   OH273354   4.250   1.024   5.168 -0.7995 -0.1413  0.4212
17288TIP3    H173355   4.325   0.987   5.216 -2.4087 -2.5764  1.1632
17288TIP3    H273356   4.222   1.099   5.221  0.0129 -0.2952  1.0856
17289TIP3   OH273357   5.483   7.247   4.763 -0.1507  0.6499  0.2489
17289TIP3    H173358   5.454   7.157   4.778  0.3341  0.0932 -1.9710
17289TIP3    H273359   5.557   7.259   4.824 -1.0774  0.0249  1.5225
17290TIP3   OH273360   3.779   4.017   4.107  0.5525  0.0332 -0.2185
17290TIP3    H173361   3.716   3.984   4.043 -0.4038  1.5112 -0.0440
17290TIP3    H273362   3.748   3.982   4.191  0.1848  0.4424 -0.1838
17291TIP3   OH273363   3.801   7.181   4.918 -0.0752 -0.1938 -0.2826
17291TIP3    H173364   3.871   7.133   4.964 -0.5166 -0.5949 -0.0205
17291TIP3    H273365   3.755   7.229   4.987  0.3014  0.5324 -0.5320
17292TIP3   OH273366   5.315   0.363   5.029  0.1257  0.3374 -0.4501
17292TIP3    H173367   5.285   0.390   5.115 -1.0639 -0.4757 -0.5912
17292TIP3    H273368   5.237   0.370   4.973  0.5749 -0.3325 -1.1752
17293TIP3   OH273369   4.882   0.774   6.043 -0.1472  0.0293  0.2979
17293TIP3    H173370   4.925   0.834   5.982  2.3288 -1.2918  0.6810
17293TIP3    H273371   4.879   0.822   6.126  0.5886  0.1292  0.2663
17294TIP3   OH273372   6.983   0.744   3.073 -0.3861 -0.0537  0.2955
17294TIP3    H173373   6.965   0.835   3.049 -1.0762  0.3023  2.0881
17294TIP3    H273374   6.946   0.693   3.001 -0.9203  1.0462 -0.2196
17295TIP3   OH273375   5.766   2.104   5.449 -0.1556  0.0723 -0.4616
17295TIP3    H173376   5.802   2.017   5.468  1.7620  0.7594 -0.8332
17295TIP3    H273377   5.825   2.141   5.383 -0.1815  2.1782  0.6532
17296TIP3   OH273378   4.432   1.236   3.927  0.6174 -0.4774  0.7162
17296TIP3    H173379   4.366   1.244   3.996  0.8829  1.2482  0.8075
17296TIP3    H273380   4.383   1.246   3.846  0.4654 -1.3626  0.6980
17297TIP3   OH273381   4.166   0.711   4.135  0.3393 -0.8915 -0.3305
17297TIP3    H173382   4.190   0.804   4.125  0.2073 -0.8825 -0.5688
17297TIP3    H273383   4.193   0.689   4.224 -1.2981 -0.1233  0.3877
17298TIP3   OH273384   5.819   1.106   5.172  0.1247 -0.5256 -0.1363
17298TIP3    H173385   5.886   1.148   5.226  0.6500  0.8762 -1.8727
17298TIP3    H273386   5.738   1.117   5.223  0.3700  1.9841 -0.2021
17299TIP3   OH273387   4.723   2.361   3.004 -0.6059  0.0628  0.1691
17299TIP3    H173388   4.644   2.329   3.048 -1.0525  0.8874 -0.0246
17299TIP3    H273389   4.747   2.292   2.943 -0.4784 -0.7218  1.0871
17300TIP3   OH273390   5.710   2.020   6.012 -0.1001 -0.2428 -0.1555
17300TIP3    H173391   5.750   2.055   5.933 -0.0449 -1.9321 -0.8909
17300TIP3    H273392   5.634   2.077   6.028  1.8084  2.2034  0.5502
17301TIP3   OH273393   2.370   4.201   4.082 -0.4196 -0.2063 -0.4136
17301TIP3    H173394   2.315   4.141   4.132 -1.8029  0.1121 -1.5283
17301TIP3    H273395   2.322   4.217   4.001  1.3096  0.1056 -1.4028
17302TIP3   OH273396   5.701   2.409   5.583 -0.0119  0.0541  0.3287
17302TIP3    H173397   5.789   2.391   5.616  0.7054  2.7953  0.0098
17302TIP3    H273398   5.715   2.450   5.498 -1.5254  2.1184  1.0501
17303TIP3   OH273399   3.999   5.642   3.443 -0.5003 -0.0837 -0.1965
17303TIP3    H173400   3.980   5.680   3.528  0.6925 -2.5107  1.2128
17303TIP3    H273401   3.918   5.599   3.417 -0.2355 -1.1383  0.7105
17304TIP3   OH273402   6.768   0.373   2.833 -0.2445 -0.3717  0.1235
17304TIP3    H173403   6.768   0.449   2.891  0.5870 -0.0340 -0.3179
17304TIP3    H273404   6.700   0.392   2.769 -0.1246 -0.0558  0.0890
17305TIP3   OH273405   6.131   3.578   4.331  0.2749 -0.2702  0.5288
17305TIP3    H173406   6.137   3.494   4.287 -0.3012 -0.1510  0.2182
17305TIP3    H273407   6.202   3.630   4.294 -2.1806  0.9470 -2.6943
17306TIP3   OH273408   4.092   0.229   5.413 -0.2922 -0.2698 -0.3169
17306TIP3    H173409   4.096   0.164   5.483  1.6029  0.3428  0.1637
17306TIP3    H273410   4.106   0.178   5.333  0.4523 -0.5669 -0.0024
17307TIP3   OH273411   3.809   0.330   4.623  0.8430 -0.0093  0.4036
17307TIP3    H173412   3.893   0.366   4.652  0.9441  0.9396 -0.9904
17307TIP3    H273413   3.790   0.261   4.685  2.7621 -0.3656  0.6380
17308TIP3   OH273414   6.288   0.785   5.232  0.4413  0.1322  0.3668
17308TIP3    H173415   6.371   0.756   5.195  0.5056 -0.6651  1.1310
17308TIP3    H273416   6.309   0.868   5.275  0.6468  0.3813 -0.2021
17309TIP3   OH273417   4.999   1.519   5.693  0.4126  0.0305  0.2087
17309TIP3    H173418   5.022   1.565   5.774  0.5946  0.7911 -0.2791
17309TIP3    H273419   4.948   1.582   5.643 -2.7272 -1.6063  1.2448
17310TIP3   OH273420   5.362   1.259   4.375 -0.0981 -0.3436  0.0983
17310TIP3    H173421   5.382   1.264   4.468 -1.5668 -0.0088  0.3937
17310TIP3    H273422   5.448   1.244   4.333  0.6199 -0.0598  1.4486
17311TIP3   OH273423   4.128   0.055   5.187  0.7251  0.7945  0.1535
17311TIP3    H173424   4.223   0.052   5.191  0.7368  0.0452 -0.6021
17311TIP3    H273425   4.107   0.031   5.097 -0.2359 -0.4020  0.6838
17312TIP3   OH273426   5.763   2.798   4.758  0.0706 -0.0339  0.0957
17312TIP3    H173427   5.774   2.844   4.675  1.3770 -0.4026  0.0595
17312TIP3    H273428   5.693   2.735   4.741 -0.3799  0.5885 -0.4168
17313TIP3   OH273429   5.426   2.880   5.606  0.4435 -0.3106 -0.2957
17313TIP3    H173430   5.445   2.926   5.688 -2.0777 -1.3269  0.9041
17313TIP3    H273431   5.491   2.810   5.602  0.2751 -0.5587  1.0888
17314TIP3   OH273432   4.465   0.343   4.346  0.2187 -0.0659 -0.2428
17314TIP3    H173433   4.453   0.427   4.303  0.0781 -1.1586 -2.3905
17314TIP3    H273434   4.390   0.290   4.319  0.2969 -0.8977  1.0831
17315TIP3   OH273435   4.370   1.101   5.547  0.1671 -0.0299 -0.5992
17315TIP3    H173436   4.405   1.012   5.542 -0.2552 -0.2471  0.2721
17315TIP3    H273437   4.447   1.157   5.543  0.5907 -0.4965  0.8862
17316TIP3   OH273438   5.700   2.160   3.679  0.1657  0.0745 -0.1032
17316TIP3    H173439   5.684   2.148   3.773  0.0111  0.9906 -0.0063
17316TIP3    H273440   5.755   2.086   3.655  1.7342  0.8052  1.1065
17317TIP3   OH273441   4.086   0.506   5.460 -0.2654 -0.5131  0.4403
17317TIP3    H173442   3.998   0.527   5.491 -0.4149 -1.1813  0.4648
17317TIP3    H273443   4.073   0.439   5.394  0.0550  0.8870 -1.0758
17318TIP3   OH273444   5.213   0.971   5.626  0.2155 -0.3521  0.0843
17318TIP3    H173445   5.294   0.944   5.583  2.2369  1.6712  2.5080
17318TIP3    H273446   5.172   0.889   5.653  1.3041 -1.4195 -1.4131
17319TIP3   OH273447   4.043   7.121   4.745 -0.2801 -0.1662 -0.2337
17319TIP3    H173448   4.045   7.034   4.786 -1.7486 -0.2871 -0.4119
17319TIP3    H273449   4.075   7.180   4.813 -1.2757 -0.5618  0.5935
17320TIP3   OH273450   4.899   3.637   3.078 -0.0913 -0.1781  0.4958
17320TIP3    H173451   4.982   3.681   3.060 -1.0735  1.7290  0.4619
17320TIP3    H273452   4.923   3.561   3.132  1.7119  0.0502  0.0574
17321TIP3   OH273453   4.184   0.923   5.910  0.2987 -0.3445  0.5454
17321TIP3    H173454   4.271   0.962   5.906  0.3387 -0.4193  0.6611
17321TIP3    H273455   4.200   0.830   5.929  0.1639 -0.1959  1.4425
17322TIP3   OH273456   5.783   2.088   3.328  0.3476  0.0214  0.1054
17322TIP3    H173457   5.688   2.082   3.320  0.2577 -1.6234  2.0990
17322TIP3    H273458   5.797   2.169   3.377  0.0705  0.9767 -1.3552
17323TIP3   OH273459   0.538   7.136   2.983 -0.4397  0.1329  0.7216
17323TIP3    H173460   0.523   7.226   2.953 -1.0415 -0.7665 -1.7881
17323TIP3    H273461   0.476   7.084   2.933  2.6734 -2.1790 -0.9015
17324TIP3   OH273462   6.624   6.324   5.275  0.3534  0.4889 -0.0668
17324TIP3    H173463   6.562   6.388   5.310 -1.5221 -0.4139 -1.6736
17324TIP3    H273464   6.607   6.244   5.324 -0.5476 -0.0687 -1.2547
17325TIP3   OH273465   4.453   0.830   5.212 -0.6631  0.1172 -0.8008
17325TIP3    H173466   4.519   0.843   5.280  1.3439 -2.8782 -2.0665
17325TIP3    H273467   4.408   0.749   5.238 -1.8830  0.5531 -1.5111
17326TIP3   OH273468   5.595   1.868   3.557 -0.4072 -0.1083 -0.1054
17326TIP3    H173469   5.528   1.935   3.546  1.1136  1.3079 -0.9973
17326TIP3    H273470   5.597   1.822   3.474  1.4318  1.5102 -1.0107
17327TIP3   OH273471   7.010   1.116   3.289 -0.1029  0.1642  0.1111
17327TIP3    H173472   7.004   1.073   3.374 -0.9458 -0.3131 -0.1932
17327TIP3    H273473   7.072   1.188   3.303 -1.6240  1.2186  1.6083
17328TIP3   OH273474   4.208   1.744   5.355  0.0867 -0.3501 -0.5236
17328TIP3    H173475   4.270   1.678   5.321 -1.0621 -1.1373 -1.1293
17328TIP3    H273476   4.206   1.728   5.449  1.7934  0.5452 -0.3178
17329TIP3   OH273477   4.980   0.476   4.502  0.5175  0.1465 -0.0456
17329TIP3    H173478   4.965   0.523   4.584  0.2975 -0.0577  0.0305
17329TIP3    H273479   5.065   0.509   4.471  1.0586 -0.4704  0.7484
17330TIP3   OH273480   5.992   1.255   5.337 -0.5229  0.9599 -0.4750
17330TIP3    H173481   6.002   1.350   5.344 -1.0558  0.8445  2.2031
17330TIP3    H273482   6.014   1.221   5.424 -1.9972 -1.2209 -0.9014
17331TIP3   OH273483   5.487   0.759   3.080 -0.0379 -0.6024 -0.7227
17331TIP3    H173484   5.447   0.810   3.151 -1.8304 -1.0792 -1.3763
17331TIP3    H273485   5.428   0.770   3.006  1.0111 -1.3855 -1.6959
17332TIP3   OH273486   3.427   1.112   4.208  0.0310 -0.0946  0.1597
17332TIP3    H173487   3.431   1.023   4.172 -0.8260  0.1687 -0.6232
17332TIP3    H273488   3.503   1.156   4.170 -0.9120  0.2078 -1.4546
17333TIP3   OH273489   4.640   2.169   5.394 -0.2021 -0.0461  0.0106
17333TIP3    H173490   4.565   2.188   5.450  0.0549  1.9149 -0.2835
17333TIP3    H273491   4.688   2.252   5.388  0.2351 -0.4362 -2.4238
17334TIP3   OH273492   4.946   7.321   5.752  0.2857 -0.2766  0.5140
17334TIP3    H173493   4.936   7.387   5.822  0.0584  0.4498 -0.1968
17334TIP3    H273494   4.866   7.269   5.757 -0.9982  1.5225 -1.0095
17335TIP3   OH273495   5.876   1.509   3.818 -0.4532 -0.6610  0.4517
17335TIP3    H173496   5.857   1.541   3.906 -0.0582 -0.3203  0.4144
17335TIP3    H273497   5.813   1.438   3.804 -0.5967 -0.6342  0.9594
17336TIP3   OH273498   5.820   0.797   4.476 -0.0837  0.3223 -0.9395
17336TIP3    H173499   5.785   0.709   4.493  1.1625 -0.1837 -1.0022
17336TIP3    H273500   5.901   0.801   4.527  0.0029  1.3393 -1.1546
17337TIP3   OH273501   4.432   1.581   5.247  0.1622 -0.1668  0.0470
17337TIP3    H173502   4.488   1.647   5.290 -1.5412  0.5631  1.2072
17337TIP3    H273503   4.475   1.564   5.164  1.0290  1.9065  0.0351
17338TIP3   OH273504   2.778   3.355   4.890 -0.2202 -0.2600 -0.4394
17338TIP3    H173505   2.788   3.292   4.819  3.4018 -0.6340  0.3196
17338TIP3    H273506   2.767   3.439   4.846  0.9313 -0.6330 -1.4577
17339TIP3   OH273507   3.991   6.254   4.079  0.5352 -0.3512 -0.5316
17339TIP3    H173508   4.034   6.218   4.156  1.6253 -0.5306 -1.2099
17339TIP3    H273509   4.051   6.235   4.007 -0.5924 -0.4259 -1.4675
17340TIP3   OH273510   6.312   7.116   5.902 -0.0958 -0.2322 -0.2558
17340TIP3    H173511   6.319   7.210   5.919 -1.1676 -0.2763  0.4442
17340TIP3    H273512   6.268   7.109   5.818  0.3485 -0.1057 -0.5006
17341TIP3   OH273513   4.907   2.327   5.133  0.0808 -0.8025  0.4559
17341TIP3    H173514   4.992   2.338   5.090 -0.4805 -1.3399 -0.8126
17341TIP3    H273515   4.852   2.284   5.067 -1.7321  1.2254  0.6018
17342TIP3   OH273516   3.723   2.854   5.785 -0.4164 -0.6911  0.0717
17342TIP3    H173517   3.752   2.868   5.875  0.3575  0.6705 -0.3659
17342TIP3    H273518   3.799   2.815   5.742 -0.6832 -1.0569 -0.0696
17343TIP3   OH273519   6.479   2.667   2.842  0.1611 -0.2691  0.5437
17343TIP3    H173520   6.541   2.612   2.890 -0.8382 -1.5908  0.3349
17343TIP3    H273521   6.425   2.606   2.793 -0.5556  0.9371 -0.2002
17344TIP3   OH273522   4.449   0.527   6.168 -0.2521  0.0352  0.2261
17344TIP3    H173523   4.445   0.550   6.261  0.2974  0.8856  0.0418
17344TIP3    H273524   4.385   0.456   6.159 -2.0333  1.5166  0.8080
17345TIP3   OH273525   4.308   6.365   4.274 -0.2381 -0.1562 -0.3250
17345TIP3    H173526   4.393   6.337   4.240 -0.5140  0.4748 -1.5873
17345TIP3    H273527   4.326   6.449   4.316 -0.0087 -0.6361  0.5371
17346TIP3   OH273528   5.296   1.552   5.733  0.7617 -0.0359  0.4403
17346TIP3    H173529   5.214   1.514   5.701  1.4535 -0.1971 -1.2089
17346TIP3    H273530   5.289   1.645   5.711  1.0819 -0.0823  0.1279
17347TIP3   OH273531   0.132   3.696   4.290  0.1089 -0.7203  0.2389
17347TIP3    H173532   0.107   3.707   4.198  2.4918  0.1368 -0.3314
17347TIP3    H273533   0.095   3.773   4.334  1.0338  0.1481 -0.4616
17348TIP3   OH273534   4.433   1.986   4.703  0.1246 -0.0702  0.3061
17348TIP3    H173535   4.365   2.048   4.730 -0.3062  0.5553 -2.0513
17348TIP3    H273536   4.425   1.983   4.607  4.6315  1.4665 -0.2614
17349TIP3   OH273537   4.803   1.156   5.068  0.0868 -0.0996 -0.0821
17349TIP3    H173538   4.897   1.151   5.050  0.0415 -0.3965 -0.2360
17349TIP3    H273539   4.780   1.247   5.051  0.5698  0.2380  1.0304
17350TIP3   OH273540   3.115   2.342   5.856 -0.0901  0.0214 -0.4400
17350TIP3    H173541   3.075   2.289   5.787 -0.0306 -0.2823 -0.2396
17350TIP3    H273542   3.043   2.396   5.890 -0.1274  0.1449 -0.7133
17351TIP3   OH273543   4.700   6.883   1.626  0.5193  0.3523 -0.1530
17351TIP3    H173544   4.745   6.898   1.710  0.7048 -1.0169  0.0035
17351TIP3    H273545   4.750   6.812   1.585 -1.3179 -1.0023 -0.1119
17352TIP3   OH273546   4.832   0.282   5.241 -0.3997 -0.3591  0.4262
17352TIP3    H173547   4.752   0.266   5.190 -0.6285 -1.0296  0.9849
17352TIP3    H273548   4.847   0.201   5.288  2.3650 -1.3600 -2.0234
17353TIP3   OH273549   4.330   0.980   2.817 -0.3549  0.4734  0.0869
17353TIP3    H173550   4.341   1.056   2.874 -1.3160  0.8019 -0.1468
17353TIP3    H273551   4.363   1.009   2.732 -1.2251  0.8320 -0.1425
17354TIP3   OH273552   6.236   0.141   3.078  0.5558  0.3911 -0.1225
17354TIP3    H173553   6.283   0.163   3.158  1.0362 -0.4655 -0.1647
17354TIP3    H273554   6.247   0.218   3.022 -1.6370  1.8993  1.4447
17355TIP3   OH273555   2.627   2.489   5.073 -0.2004 -0.0252  0.9125
17355TIP3    H173556   2.633   2.559   5.009  2.2105  0.5353  1.6989
17355TIP3    H273557   2.654   2.411   5.026  0.9184  0.2709  1.0497
17356TIP3   OH273558   3.460   1.854   3.696  0.3031  0.2848  0.1764
17356TIP3    H173559   3.473   1.829   3.788 -0.3421 -0.4659  0.0635
17356TIP3    H273560   3.524   1.803   3.647  1.8099  1.9266  0.3632
17357TIP3   OH273561   4.487   6.628   5.477 -0.2546  0.0310  0.2569
17357TIP3    H173562   4.569   6.590   5.445  0.3010  0.1933  1.4602
17357TIP3    H273563   4.493   6.721   5.454  0.2798  0.2067  1.0598
17358TIP3   OH273564   5.208   0.656   5.850  0.2481 -0.0690 -0.3011
17358TIP3    H173565   5.176   0.724   5.909  0.5840 -1.0032  0.9870
17358TIP3    H273566   5.303   0.667   5.850  0.2689 -0.2367 -0.4665
17359TIP3   OH273567   5.125   1.329   3.406 -0.4034 -0.2446  0.3371
17359TIP3    H173568   5.031   1.311   3.410 -0.3599 -0.9152 -1.2103
17359TIP3    H273569   5.163   1.274   3.474 -1.0347 -0.7337  0.3035
17360TIP3   OH273570   4.688   1.810   3.727  0.3468  0.1600  0.0864
17360TIP3    H173571   4.694   1.867   3.804  1.3969 -1.4317  1.2132
17360TIP3    H273572   4.655   1.727   3.761 -1.1072  0.0512 -1.5294
17361TIP3   OH273573   0.352   0.613   2.352 -0.0157 -0.4953  0.7429
17361TIP3    H173574   0.317   0.524   2.346  1.7049 -1.1293 -0.1912
17361TIP3    H273575   0.443   0.605   2.323 -0.7166  2.1410 -2.4163
17362TIP3   OH273576   5.017   0.821   4.385  0.2343 -0.1998  0.3737
17362TIP3    H173577   4.928   0.840   4.412  0.6231  2.3949 -0.0003
17362TIP3    H273578   5.062   0.906   4.388  2.1248 -1.0643 -1.5026
17363TIP3   OH273579   5.130   2.430   4.718 -0.0610 -0.9489  0.0893
17363TIP3    H173580   5.051   2.459   4.762  0.1548 -0.4015  0.1238
17363TIP3    H273581   5.101   2.359   4.660 -0.6844 -0.3146 -0.3815
17364TIP3   OH273582   5.341   0.298   3.606 -0.0791 -1.0412  0.7119
17364TIP3    H173583   5.347   0.309   3.701 -1.5683 -1.4819  0.8645
17364TIP3    H273584   5.259   0.250   3.592  0.2402 -1.1843 -0.7811
17365TIP3   OH273585   0.168   2.730   3.030 -0.1645  0.2521 -0.7399
17365TIP3    H173586   0.261   2.744   3.014 -0.2071  0.7462 -0.5585
17365TIP3    H273587   0.163   2.643   3.071  0.2907  0.5972  0.0469
17366TIP3   OH273588   4.923   0.500   6.044 -0.0461 -0.4963 -0.7685
17366TIP3    H173589   4.912   0.594   6.038  0.8067 -0.3974 -0.7791
17366TIP3    H273590   4.986   0.487   6.115 -2.2871 -1.1882  1.1752
17367TIP3   OH273591   5.074   1.355   1.810 -0.0269 -0.0604 -0.7160
17367TIP3    H173592   5.030   1.425   1.859 -0.7162 -0.0225 -1.3751
17367TIP3    H273593   5.022   1.346   1.730  0.2251 -1.1328 -0.7619
17368TIP3   OH273594   4.120   1.998   5.408  0.4078 -0.4083  0.0874
17368TIP3    H173595   4.073   1.972   5.487  1.9624 -0.1326  1.1204
17368TIP3    H273596   4.171   1.920   5.383  0.3169 -0.3296 -0.3599
17369TIP3   OH273597   4.170   2.090   4.666  0.5728 -0.1628 -0.1635
17369TIP3    H173598   4.146   2.161   4.725  0.1366  0.0499 -0.5867
17369TIP3    H273599   4.196   2.135   4.585  0.9991 -0.4543 -0.1848
17370TIP3   OH273600   5.244   0.536   5.253 -0.4934 -0.3401  0.0588
17370TIP3    H173601   5.293   0.612   5.283  1.7687 -1.1433 -1.4615
17370TIP3    H273602   5.152   0.562   5.262  0.2206  2.5782 -0.3968
17371TIP3   OH273603   5.681   6.003   5.695  0.6303 -0.3755 -0.2297
17371TIP3    H173604   5.768   5.964   5.683  0.1833 -1.2380 -0.6544
17371TIP3    H273605   5.622   5.929   5.703  0.0921  0.1970  1.3504
17372TIP3   OH273606   5.185   4.127   4.666  0.5436  0.1364 -0.0884
17372TIP3    H173607   5.169   4.075   4.745  3.0912  0.0400  0.4334
17372TIP3    H273608   5.149   4.074   4.595 -0.9028 -0.2272  0.9005
17373TIP3   OH273609   4.438   2.300   2.942 -0.0383  0.5288  0.3094
17373TIP3    H173610   4.353   2.293   2.985  0.3628  1.6990  1.3204
17373TIP3    H273611   4.485   2.222   2.971  0.3252  1.4398  2.2598
17374TIP3   OH273612   5.819   0.608   5.032 -0.0731 -0.2221  0.5246
17374TIP3    H173613   5.879   0.672   5.071 -1.3344  0.0526  2.0901
17374TIP3    H273614   5.734   0.627   5.073 -0.8878 -1.6383 -0.4522
17375TIP3   OH273615   3.228   0.899   4.716  0.0887 -0.2708 -0.4350
17375TIP3    H173616   3.247   0.943   4.633  0.0423  1.5599  0.5123
17375TIP3    H273617   3.298   0.834   4.724  0.3066 -0.2211 -1.7266
17376TIP3   OH273618   6.775   1.206   3.769 -0.3950 -0.7281  0.4692
17376TIP3    H173619   6.777   1.204   3.865 -0.2833  0.3079  0.4926
17376TIP3    H273620   6.797   1.297   3.746 -2.1500 -0.5148 -0.4793
17377TIP3   OH273621   3.950   0.875   5.613 -0.2024  0.8168 -0.0672
17377TIP3    H173622   4.016   0.820   5.655  0.6717  1.6616 -0.3142
17377TIP3    H273623   3.998   0.954   5.587 -1.4948  1.8331  0.5876
17378TIP3   OH273624   5.996   5.127   4.902 -0.1763 -0.3089 -0.1795
17378TIP3    H173625   5.901   5.129   4.915 -0.1377  0.6119 -0.0444
17378TIP3    H273626   6.011   5.185   4.827  0.1013 -1.8026 -1.2963
17379TIP3   OH273627   3.574   2.150   4.462 -0.1974 -0.3594 -0.0222
17379TIP3    H173628   3.583   2.245   4.470 -1.0452 -0.3920  1.5200
17379TIP3    H273629   3.661   2.116   4.484 -0.2694  0.0058  0.8803
17380TIP3   OH273630   5.365   1.172   3.853  0.7817  0.0371 -0.0322
17380TIP3    H173631   5.368   1.094   3.797 -0.2022 -0.8580  1.1359
17380TIP3    H273632   5.328   1.240   3.797 -1.2073 -1.1280 -0.1827
17381TIP3   OH273633   3.387   3.987   2.501 -0.0607 -0.1585  0.3896
17381TIP3    H173634   3.322   4.021   2.563 -0.3560  0.7816 -0.4160
17381TIP3    H273635   3.424   4.065   2.460  0.7476 -0.7394 -0.0027
17382TIP3   OH273636   4.814   1.647   4.702  0.1744 -0.0449 -0.4765
17382TIP3    H173637   4.811   1.740   4.677 -0.2712 -0.5745 -2.4241
17382TIP3    H273638   4.897   1.638   4.750  0.3990  1.2687 -0.5857
17383TIP3   OH273639   2.040   2.210   4.479  0.1549 -0.6564  0.4995
17383TIP3    H173640   2.100   2.281   4.503  0.0654 -0.1923 -0.6107
17383TIP3    H273641   1.981   2.202   4.554 -0.5654  1.2244  0.1599
17384TIP3   OH273642   4.958   1.465   3.761 -0.1909 -0.0324 -0.0483
17384TIP3    H173643   4.957   1.487   3.854 -0.2622  0.7302 -0.2224
17384TIP3    H273644   4.893   1.395   3.752 -1.1169  0.7776  0.2671
17385TIP3   OH273645   3.901   1.765   5.402 -0.0633 -0.0444  0.4031
17385TIP3    H173646   3.847   1.692   5.432  1.3836 -1.3756 -0.1710
17385TIP3    H273647   3.991   1.733   5.408  0.7008  2.1754  1.4412
17386TIP3   OH273648   4.227   2.836   2.555  0.1889 -0.4195 -0.0382
17386TIP3    H173649   4.197   2.909   2.502 -0.0259 -0.7891 -0.4278
17386TIP3    H273650   4.178   2.844   2.637 -0.2977 -0.4903 -0.3199
17387TIP3   OH273651   7.004   0.472   4.431  0.0053 -0.7076 -0.5901
17387TIP3    H173652   7.012   0.509   4.518  1.8232  2.4674 -2.0148
17387TIP3    H273653   7.038   0.383   4.439  1.0785 -0.1166  1.7365
17388TIP3   OH273654   5.053   2.469   3.719  0.2978 -0.1141  0.2979
17388TIP3    H173655   4.959   2.449   3.716  0.7040 -2.0723 -0.1744
17388TIP3    H273656   5.072   2.507   3.634  0.2099 -1.0846 -0.1648
17389TIP3   OH273657   5.125   0.727   5.609 -0.3824  0.2348  0.0510
17389TIP3    H173658   5.154   0.692   5.694 -0.8990 -1.6538 -0.5370
17389TIP3    H273659   5.041   0.685   5.592 -1.1123  1.9029 -0.6190
17390TIP3   OH273660   2.771   4.309   3.343  0.0124  0.3384 -0.5803
17390TIP3    H173661   2.739   4.310   3.433 -0.3174 -2.6731 -0.6279
17390TIP3    H273662   2.866   4.305   3.351 -0.0836 -1.8846 -0.3163
17391TIP3   OH273663   3.748   2.614   3.202 -0.3634  0.0079  0.2462
17391TIP3    H173664   3.799   2.563   3.266 -2.4551 -0.3998  1.6354
17391TIP3    H273665   3.770   2.705   3.222 -0.3714 -0.1517  1.0154
17392TIP3   OH273666   6.523   3.076   3.095  0.7614  0.4778  0.3371
17392TIP3    H173667   6.559   3.075   3.006 -0.2760  0.8842 -0.1055
17392TIP3    H273668   6.599   3.071   3.152  1.3741 -1.2393 -0.5836
17393TIP3   OH273669   3.898   1.201   4.630 -0.1299  0.0029  0.0562
17393TIP3    H173670   3.892   1.203   4.725 -0.5301 -0.4527  0.0460
17393TIP3    H273671   3.812   1.232   4.600  0.4868  1.5853 -0.1723
17394TIP3   OH273672   3.734   1.319   5.648  0.0442 -0.2647 -0.2617
17394TIP3    H173673   3.819   1.351   5.677  0.3690  0.1514 -1.6247
17394TIP3    H273674   3.717   1.242   5.703  0.6113  0.5056  1.0213
17395TIP3   OH273675   6.427   6.772   5.211 -0.4846  0.2210 -0.0164
17395TIP3    H173676   6.400   6.859   5.239 -2.4897 -0.4537  0.2180
17395TIP3    H273677   6.371   6.752   5.136  1.9382  0.2934 -1.9246
17396TIP3   OH273678   4.135   6.699   4.566 -0.1703  0.0592  0.1571
17396TIP3    H173679   4.133   6.746   4.483  0.8855 -0.2766 -0.0638
17396TIP3    H273680   4.069   6.630   4.556 -0.1418  0.1040 -0.3493
17397TIP3   OH273681   2.410   6.126   2.841 -0.7137  0.2308 -0.5755
17397TIP3    H173682   2.339   6.100   2.782  1.0819 -1.8633 -1.8972
17397TIP3    H273683   2.430   6.046   2.891  0.0301  1.0732  0.4966
17398TIP3   OH273684   4.388   1.904   6.160  0.5493 -0.3607  0.8459
17398TIP3    H173685   4.361   1.983   6.113  0.8131 -0.2468  0.8774
17398TIP3    H273686   4.307   1.858   6.180  0.4843 -0.8266 -0.4309
17399TIP3   OH273687   4.928   3.761   2.472  0.2415  0.7549  0.1485
17399TIP3    H173688   4.888   3.846   2.493  2.5340  1.6951  0.8936
17399TIP3    H273689   4.890   3.700   2.534 -0.9391  1.3826  0.0442
17400TIP3   OH273690   3.909   0.407   2.961 -0.0181 -0.1217  0.4991
17400TIP3    H173691   3.904   0.424   3.055  0.7879 -0.7872  0.6781
17400TIP3    H273692   3.819   0.390   2.934 -0.0546 -1.6695  1.5123
17401TIP3   OH273693   2.914   6.304   3.980 -0.2999 -0.4157 -0.0875
17401TIP3    H173694   2.850   6.245   3.940  0.7694 -2.2085  0.7711
17401TIP3    H273695   2.861   6.372   4.021 -1.5494 -0.6176 -1.3155
17402TIP3   OH273696   4.840   0.497   4.743  0.4558 -0.2064  0.0332
17402TIP3    H173697   4.758   0.538   4.772 -0.2259  0.2307 -2.4065
17402TIP3    H273698   4.821   0.403   4.748 -0.1581 -0.1118 -0.4085
17403TIP3   OH273699   5.094   0.007   3.390 -0.2189  0.3251 -0.1126
17403TIP3    H173700   5.102   0.076   3.456 -1.2568  0.3908 -0.0369
17403TIP3    H273701   5.169  -0.051   3.405 -0.1020  0.6846  0.7089
17404TIP3   OH273702   4.601   6.306   5.320  0.4970  0.2604  0.0048
17404TIP3    H173703   4.652   6.336   5.396 -1.4602  0.5722  1.2233
17404TIP3    H273704   4.593   6.211   5.333 -1.3684  0.5477  1.1855
17405TIP3   OH273705   3.783   0.422   6.361 -0.8098  0.7236 -0.2418
17405TIP3    H173706   3.848   0.352   6.362 -1.6657 -0.1134 -1.0618
17405TIP3    H273707   3.826   0.494   6.315  0.2488  0.9287  1.0318
17406TIP3   OH273708   4.801   5.989   5.284  0.2800  0.2423  0.0632
17406TIP3    H173709   4.711   5.982   5.316 -0.1788  1.3661 -0.9705
17406TIP3    H273710   4.846   6.041   5.350  0.2894 -0.6753  0.7953
17407TIP3   OH273711   4.696   0.787   5.719 -0.2334  0.2002  0.4087
17407TIP3    H173712   4.755   0.856   5.749  0.0441 -0.6805  2.0016
17407TIP3    H273713   4.671   0.741   5.800 -0.2921 -1.6390 -0.6268
17408TIP3   OH273714   5.706   0.078   5.619  0.4807 -0.1868  0.6710
17408TIP3    H173715   5.724   0.134   5.694  0.5717 -0.8915  1.1824
17408TIP3    H273716   5.612   0.086   5.605  0.4149 -0.2844  1.0508
17409TIP3   OH273717   6.291   1.052   5.369 -0.3026 -0.3834 -0.3278
17409TIP3    H173718   6.256   1.140   5.363 -1.7789 -0.9874 -0.9538
17409TIP3    H273719   6.379   1.057   5.330  1.0181  1.5083  2.7741
17410TIP3   OH273720   4.102   0.763   5.143 -0.0413  0.4920  0.2523
17410TIP3    H173721   4.186   0.776   5.187  0.2309 -1.2698  0.2840
17410TIP3    H273722   4.100   0.669   5.123 -2.7603  0.1611  1.8098
17411TIP3   OH273723   3.540   6.668   5.169  0.1500 -0.4103  0.5717
17411TIP3    H173724   3.485   6.745   5.154  1.1874  0.5494  1.5651
17411TIP3    H273725   3.559   6.635   5.081 -0.4024  0.3993  0.1390
17412TIP3   OH273726   7.197   2.117   3.464 -0.3258  0.4869 -0.3375
17412TIP3    H173727   7.147   2.083   3.390  0.3785 -0.4112 -0.4237
17412TIP3    H273728   7.153   2.197   3.489 -1.7964 -0.2971 -0.4014
17413TIP3   OH273729   5.369   4.732   2.661  0.2112  0.0850 -0.2130
17413TIP3    H173730   5.444   4.790   2.651 -1.1020  1.8804 -0.0767
17413TIP3    H273731   5.341   4.714   2.571  1.8792 -2.0764 -0.3226
17414TIP3   OH273732   3.927   0.266   5.162 -0.1275 -0.1500  0.1953
17414TIP3    H173733   3.858   0.233   5.219  1.1116 -1.7374  0.8086
17414TIP3    H273734   4.008   0.254   5.213  1.0075 -1.6353 -1.8827
17415TIP3   OH273735   3.304   1.717   5.621  0.3309  0.1384  0.0896
17415TIP3    H173736   3.244   1.670   5.564 -0.8683  0.3761  1.1257
17415TIP3    H273737   3.370   1.753   5.562  0.1896 -1.2355 -0.9176
17416TIP3   OH273738   4.756   1.278   3.822 -0.6162 -0.1549  0.4103
17416TIP3    H173739   4.743   1.195   3.776  0.7755  0.5692 -1.3379
17416TIP3    H273740   4.721   1.262   3.910 -1.5443 -2.1770 -0.2892
17417TIP3   OH273741   4.161   1.530   4.886  0.0014  0.2842  0.4303
17417TIP3    H173742   4.218   1.607   4.890 -0.0220  0.2348  1.8277
17417TIP3    H273743   4.219   1.456   4.902 -0.5515  0.2817  2.4766
17418TIP3   OH273744   4.971   3.023   5.315 -0.1551  0.2855  0.4278
17418TIP3    H173745   5.065   3.019   5.333  0.1126 -0.6780 -1.0723
17418TIP3    H273746   4.961   3.100   5.260 -0.1190 -0.0911 -0.1065
17419TIP3   OH273747   5.125   1.957   3.602  0.1449  0.1605  0.4129
17419TIP3    H173748   5.076   1.888   3.646  1.1065 -2.4691 -2.4876
17419TIP3    H273749   5.058   2.007   3.554 -0.1088 -1.3719 -0.8654
17420TIP3   OH273750   6.196   6.734   4.618  0.1334  0.9209  0.2048
17420TIP3    H173751   6.199   6.640   4.599  2.8548  1.2988 -1.5203
17420TIP3    H273752   6.258   6.747   4.689  0.6784  1.5752 -0.3820
17421TIP3   OH273753   6.845   0.541   5.296  0.1332 -0.3635  0.6887
17421TIP3    H173754   6.904   0.610   5.327  0.4815 -1.1639  1.8305
17421TIP3    H273755   6.771   0.589   5.258  1.0037  0.6383  0.2347
17422TIP3   OH273756   3.887   1.506   5.103  0.0246  0.0237 -0.5504
17422TIP3    H173757   3.943   1.581   5.089 -2.3963  1.4733 -3.0742
17422TIP3    H273758   3.866   1.475   5.015 -1.9904 -1.2861  0.3396
17423TIP3   OH273759   5.621   1.278   1.678 -0.1706 -0.0564  0.1595
17423TIP3    H173760   5.604   1.303   1.587  1.0628  1.5266  0.3511
17423TIP3    H273761   5.664   1.192   1.672  0.0989  0.1422 -0.7732
17424TIP3   OH273762   5.791   0.991   5.516  0.2254  0.1456 -0.4081
17424TIP3    H173763   5.874   0.985   5.469  0.4339  0.2263 -0.0454
17424TIP3    H273764   5.797   1.073   5.565  0.8395 -0.9710  1.3860
17425TIP3   OH273765   3.145   0.868   6.028  0.3305  0.1028  0.0521
17425TIP3    H173766   3.190   0.845   6.110  1.8049 -2.0930 -1.3099
17425TIP3    H273767   3.082   0.797   6.014  0.5398  0.1182 -1.0390
17426TIP3   OH273768   6.482   1.218   4.969  0.2693  0.1877  0.2417
17426TIP3    H173769   6.567   1.175   4.978 -0.4851 -1.1977  0.8952
17426TIP3    H273770   6.461   1.248   5.058 -0.2522 -0.1094  0.2206
17427TIP3   OH273771   5.838   0.046   4.722  0.3488 -0.2047  0.8270
17427TIP3    H173772   5.811  -0.018   4.656  0.2865  0.0340  0.6190
17427TIP3    H273773   5.917   0.008   4.760 -1.1896 -1.7074  2.6146
17428TIP3   OH273774   3.526   0.082   2.614  0.2034 -0.4095 -0.3547
17428TIP3    H173775   3.473   0.097   2.693 -1.6644 -0.2199 -1.6220
17428TIP3    H273776   3.559   0.169   2.591 -2.0200  0.1060 -1.6922
17429TIP3   OH273777   4.415   0.198   3.589  0.1173  0.3525  0.0209
17429TIP3    H173778   4.358   0.161   3.521 -1.1191 -1.0973  1.7951
17429TIP3    H273779   4.366   0.273   3.623  1.0330  1.4912 -1.0956
17430TIP3   OH273780   1.939   0.995   4.695  0.3577  0.4355 -0.5024
17430TIP3    H173781   1.985   0.999   4.779 -0.2196  0.0834 -0.1717
17430TIP3    H273782   1.875   1.066   4.699  0.4594  0.5395 -0.7199
17431TIP3   OH273783   5.975   0.180   3.349 -0.0105 -0.3600  0.1100
17431TIP3    H173784   5.919   0.252   3.378 -1.5050 -2.1252  1.6793
17431TIP3    H273785   5.960   0.174   3.254 -0.5420  0.7971  0.1151
17432TIP3   OH273786   3.953   6.906   3.949 -0.1599  0.2842  0.3085
17432TIP3    H173787   3.955   6.820   3.992  0.0712  0.3308  0.3911
17432TIP3    H273788   3.956   6.969   4.021  0.2675  0.3621  0.2279
17433TIP3   OH273789   4.883   6.784   5.419  0.0716 -0.1586 -0.4560
17433TIP3    H173790   4.833   6.703   5.424  1.3632 -0.9921 -0.6909
17433TIP3    H273791   4.832   6.848   5.469 -1.1392 -1.0167 -0.5828
17434TIP3   OH273792   6.659   2.456   4.865 -0.6621 -0.1488 -0.2762
17434TIP3    H173793   6.695   2.544   4.876  0.7725 -0.9535  1.8018
17434TIP3    H273794   6.580   2.456   4.920 -0.8784 -0.0548 -0.5835
17435TIP3   OH273795   4.393   1.701   2.540 -0.2774 -0.5213  0.2984
17435TIP3    H173796   4.487   1.703   2.521  0.1851 -3.3891  1.9924
17435TIP3    H273797   4.382   1.762   2.613  0.4339 -0.7818  0.6304
17436TIP3   OH273798   4.883   3.227   5.149 -0.3942 -0.1513  0.5579
17436TIP3    H173799   4.871   3.316   5.182  2.6413 -0.1240  1.6954
17436TIP3    H273800   4.881   3.236   5.054 -1.3977  0.9188  0.6653
17437TIP3   OH273801   5.658   0.430   5.384 -0.1664 -0.0297  0.8405
17437TIP3    H173802   5.734   0.472   5.343  0.8672  0.0367  2.7599
17437TIP3    H273803   5.654   0.343   5.343  0.8172  0.0437  0.5647
17438TIP3   OH273804   4.748   5.658   5.726  0.1805  0.1064 -0.5208
17438TIP3    H173805   4.724   5.747   5.754  1.0930  0.7381 -1.6785
17438TIP3    H273806   4.726   5.603   5.801 -0.5618  1.2849  0.1561
17439TIP3   OH273807   4.381   0.727   3.172 -0.2686 -0.1770  0.1484
17439TIP3    H173808   4.415   0.691   3.090 -3.2119 -0.7569 -0.8676
17439TIP3    H273809   4.363   0.819   3.153 -1.9636 -0.5600 -0.2383
17440TIP3   OH273810   6.466   1.140   4.226 -0.1299  0.3387 -0.0378
17440TIP3    H173811   6.516   1.060   4.244  1.4285  1.4927  0.8823
17440TIP3    H273812   6.405   1.147   4.300 -1.9808 -1.2787 -1.3581
17441TIP3   OH273813   2.917   1.436   4.362  0.3382  0.1440  0.1432
17441TIP3    H173814   2.956   1.449   4.448  0.1649  1.9310 -0.0300
17441TIP3    H273815   2.942   1.514   4.312  1.3782 -1.3680 -1.7842
17442TIP3   OH273816   4.985   1.298   4.797  0.7426  0.5956 -0.3291
17442TIP3    H173817   4.982   1.242   4.875  0.0586 -0.4589 -1.0998
17442TIP3    H273818   5.054   1.362   4.816 -1.0666  1.8991  2.1759
17443TIP3   OH273819   2.629   1.759   4.567  0.1296 -0.1146  0.1458
17443TIP3    H173820   2.667   1.832   4.518  0.3758 -0.0358  0.4497
17443TIP3    H273821   2.653   1.681   4.518 -2.1807  0.1629 -1.5110
17444TIP3   OH273822   3.472   4.292   5.476  0.4441 -0.4362  0.3528
17444TIP3    H173823   3.492   4.260   5.564 -0.3959 -0.9643  0.3532
17444TIP3    H273824   3.524   4.238   5.418  0.8191 -0.2440  0.5093
17445TIP3   OH273825   5.986   1.933   5.541  0.6492  0.0387 -0.3399
17445TIP3    H173826   5.905   1.910   5.586  1.2277  0.3487  0.8791
17445TIP3    H273827   6.021   2.007   5.591  0.2336  1.7482 -2.5398
17446TIP3   OH273828   0.326   0.950   4.539  0.4411  0.4945  0.4531
17446TIP3    H173829   0.279   0.897   4.603 -0.3460  0.7751  0.1149
17446TIP3    H273830   0.287   1.037   4.546 -1.9527 -0.2086 -2.6185
17447TIP3   OH273831   4.684   3.732   3.973  0.3896  0.1008 -0.3999
17447TIP3    H173832   4.763   3.692   4.011  0.8323  0.6216 -0.7559
17447TIP3    H273833   4.618   3.725   4.042  1.3163  1.4408  0.6554
17448TIP3   OH273834   3.075   1.551   5.871  0.0622 -0.1819 -0.1853
17448TIP3    H173835   3.048   1.478   5.815 -0.8128 -0.5956  0.7683
17448TIP3    H273836   3.108   1.509   5.951  0.1806  0.4452  0.0954
17449TIP3   OH273837   4.343   4.690   4.758  0.4711 -0.1324 -0.7080
17449TIP3    H173838   4.325   4.704   4.851 -0.3801 -0.0222 -0.8909
17449TIP3    H273839   4.260   4.662   4.721  0.4704  1.1426 -1.7117
17450TIP3   OH273840   3.359   2.129   5.644 -0.0149 -0.3193 -0.0911
17450TIP3    H173841   3.356   2.182   5.565  0.7316  0.9778  0.7372
17450TIP3    H273842   3.450   2.099   5.649 -0.1978 -0.8671 -0.0280
17451TIP3   OH273843   6.233   2.225   4.862  0.0161 -0.0260  0.4989
17451TIP3    H173844   6.215   2.236   4.956 -1.7136 -0.6718  0.2683
17451TIP3    H273845   6.183   2.295   4.820  0.8391  0.2966  0.0573
17452TIP3   OH273846   3.429   4.174   4.028 -0.7982 -0.2530 -0.2179
17452TIP3    H173847   3.454   4.101   4.084 -0.7877 -0.4555 -0.4901
17452TIP3    H273848   3.362   4.221   4.078 -1.8178 -1.2485 -0.6513
17453TIP3   OH273849   1.538   0.505   5.336 -0.2201  0.2278 -0.8052
17453TIP3    H173850   1.531   0.529   5.244 -1.1649  3.3609  0.0261
17453TIP3    H273851   1.625   0.537   5.362 -0.7630  1.1528 -0.1184
17454TIP3   OH273852   4.687   0.544   2.263  0.1263  0.0059  0.7532
17454TIP3    H173853   4.733   0.463   2.245  0.1780 -0.3682  2.4925
17454TIP3    H273854   4.742   0.613   2.226 -0.1698 -0.7795 -1.1777
17455TIP3   OH273855   4.609   2.519   3.345  0.0490 -0.2183  0.2829
17455TIP3    H173856   4.657   2.439   3.322  3.1638  1.7684 -0.4011
17455TIP3    H273857   4.547   2.531   3.273  0.7102 -1.1152 -0.4487
17456TIP3   OH273858   5.419   7.092   3.948  0.3601 -0.0031  0.3946
17456TIP3    H173859   5.494   7.079   4.006 -0.1219  0.5504  1.1490
17456TIP3    H273860   5.386   7.004   3.931 -1.6200  0.0199  3.8044
17457TIP3   OH273861   5.758   5.216   4.129  0.3948 -0.2721 -0.7328
17457TIP3    H173862   5.777   5.122   4.135  1.1227 -0.0721  0.3938
17457TIP3    H273863   5.715   5.236   4.212  2.4828  0.8776  0.1010
17458TIP3   OH273864   4.299   0.816   4.919 -0.0686  0.0954  0.1560
17458TIP3    H173865   4.376   0.785   4.967 -0.2900 -0.3639  0.2125
17458TIP3    H273866   4.257   0.878   4.978 -1.2001 -1.6195  1.1867
17459TIP3   OH273867   4.009   1.758   3.056 -0.4021  0.2100  0.0831
17459TIP3    H173868   3.925   1.730   3.094 -0.5825 -0.1157 -0.5415
17459TIP3    H273869   4.052   1.676   3.032  0.0611  0.3844  0.3261
17460TIP3   OH273870   5.090   0.154   3.849  0.6389  0.2659  0.5010
17460TIP3    H173871   5.028   0.125   3.916  0.5042 -1.0403 -0.1851
17460TIP3    H273872   5.146   0.078   3.833  3.0849  1.6990  1.8105
17461TIP3   OH273873   5.692   5.043   4.826 -0.1921  0.2582 -0.0796
17461TIP3    H173874   5.656   4.969   4.875 -1.0684  0.1450 -0.8722
17461TIP3    H273875   5.749   5.003   4.760 -0.7206  0.2750 -0.5533
17462TIP3   OH273876   6.713   4.484   2.964  0.7171  0.1028 -0.2174
17462TIP3    H173877   6.706   4.404   2.912 -0.7229  0.2538 -0.2795
17462TIP3    H273878   6.798   4.478   3.007  0.9727 -1.0599 -0.8864
17463TIP3   OH273879   4.569   6.227   4.306 -0.3805  0.2844 -0.1506
17463TIP3    H173880   4.570   6.265   4.394  1.4261 -2.6294  1.1737
17463TIP3    H273881   4.647   6.263   4.264  0.8410 -1.1804  0.7969
17464TIP3   OH273882   4.817   6.637   3.710 -0.8471 -0.1809 -0.4360
17464TIP3    H173883   4.898   6.586   3.708 -0.7878 -0.2134  2.1309
17464TIP3    H273884   4.839   6.718   3.665  0.6316 -0.1746  0.2722
17465TIP3   OH273885   5.307   7.191   3.505 -0.1685 -0.1491 -0.0893
17465TIP3    H173886   5.398   7.220   3.492  0.0966  0.2082  2.3033
17465TIP3    H273887   5.315   7.099   3.531 -0.5373 -0.3310 -0.6255
17466TIP3   OH273888   4.061   2.578   3.966  0.5250  0.3314 -0.0959
17466TIP3    H173889   3.968   2.565   3.946  0.5463 -0.1741  0.1346
17466TIP3    H273890   4.103   2.582   3.880  0.4439 -0.5917 -0.1880
17467TIP3   OH273891   7.159   1.798   4.783 -0.8587  0.5366 -0.6001
17467TIP3    H173892   7.229   1.784   4.847 -1.8862 -0.6699  0.2805
17467TIP3    H273893   7.196   1.861   4.720  1.3005 -0.6946 -0.6090
17468TIP3   OH273894   4.341   1.310   2.187  0.2333  0.3248 -0.5377
17468TIP3    H173895   4.266   1.262   2.223  0.1817  0.4024 -0.5428
17468TIP3    H273896   4.339   1.395   2.232  0.7924  0.0300  0.0714
17469TIP3   OH273897   5.470   2.076   5.266 -0.4210 -1.0399 -0.3288
17469TIP3    H173898   5.437   2.045   5.350 -0.9924 -0.3860 -0.3125
17469TIP3    H273899   5.497   2.166   5.281 -3.6269  0.2066 -1.6172
17470TIP3   OH273900   0.800   5.629   4.560 -0.4857  0.1997 -0.1660
17470TIP3    H173901   0.714   5.605   4.525 -0.2448  0.1523 -0.7305
17470TIP3    H273902   0.850   5.548   4.558 -0.6262  0.0901  0.7532
17471TIP3   OH273903   0.463   1.526   5.547  1.0067 -0.1970 -0.2949
17471TIP3    H173904   0.490   1.592   5.484 -0.8545 -1.5163 -2.5649
17471TIP3    H273905   0.377   1.554   5.577  1.9341  0.5026  1.8545
17472TIP3   OH273906   4.513   2.513   4.703 -0.0238  0.2651  0.1859
17472TIP3    H173907   4.474   2.574   4.766 -0.8465  1.0998 -1.1265
17472TIP3    H273908   4.585   2.562   4.664 -1.7449  1.0229 -2.1061
17473TIP3   OH273909   5.657   2.092   4.335  0.6029 -0.1029  0.2814
17473TIP3    H173910   5.714   2.166   4.355 -0.7268  0.7555  0.9079
17473TIP3    H273911   5.653   2.042   4.417  0.2736 -0.0422  0.3014
17474TIP3   OH273912   7.317   1.927   4.061 -0.0206 -0.1336 -0.0431
17474TIP3    H173913   7.385   1.936   4.128 -0.0079  0.3282 -0.1135
17474TIP3    H273914   7.330   2.002   4.003  1.3550 -1.7007 -1.8269
17475TIP3   OH273915   6.049   2.285   5.382  0.4724 -0.2405 -0.0095
17475TIP3    H173916   6.089   2.353   5.436  0.9277  0.2102 -0.9109
17475TIP3    H273917   6.085   2.203   5.416  1.4309  0.0963 -0.2027
17476TIP3   OH273918   4.845   1.029   3.593 -0.2469  0.0844  0.0591
17476TIP3    H173919   4.754   1.025   3.624 -0.7828 -0.8400 -1.6032
17476TIP3    H273920   4.877   0.939   3.602 -0.0972  0.0137 -1.1262
17477TIP3   OH273921   6.299   0.716   4.601 -1.0218  0.3027 -0.1385
17477TIP3    H173922   6.395   0.714   4.607 -1.1249  2.0844  3.0642
17477TIP3    H273923   6.271   0.635   4.643 -0.9556  0.0654 -0.5463
17478TIP3   OH273924   7.045   3.020   1.470 -0.1511 -0.5402 -0.1117
17478TIP3    H173925   7.053   2.929   1.499  2.1144  0.0473  1.2261
17478TIP3    H273926   7.116   3.032   1.407  0.0091  0.4813  0.2471
17479TIP3   OH273927   6.224   0.341   3.493 -0.4355  0.3474 -0.3546
17479TIP3    H173928   6.302   0.288   3.507 -0.0886  1.0575  0.3909
17479TIP3    H273929   6.151   0.280   3.509 -0.0644  0.6766  2.9550
17480TIP3   OH273930   0.773   0.652   3.732 -0.3827 -0.2235  0.4138
17480TIP3    H173931   0.775   0.617   3.821 -0.2314  0.3385  0.6283
17480TIP3    H273932   0.749   0.576   3.678 -2.7468 -0.0781  1.1795
17481TIP3   OH273933   0.714   1.428   4.303 -0.2031  0.2507  0.3323
17481TIP3    H173934   0.653   1.496   4.273 -0.2970  0.0567  0.0781
17481TIP3    H273935   0.752   1.394   4.222 -0.7117 -0.5153  0.4112
17482TIP3   OH273936   4.872   3.428   5.436  0.0390 -0.1245  0.2237
17482TIP3    H173937   4.803   3.371   5.469 -2.0511  1.7469 -0.8090
17482TIP3    H273938   4.935   3.433   5.508 -3.3238  2.0272  3.1944
17483TIP3   OH273939   5.471   3.237   3.610 -0.1407 -0.3033  0.0948
17483TIP3    H173940   5.488   3.329   3.628  0.2503  0.0040 -1.7344
17483TIP3    H273941   5.376   3.233   3.594  0.2407  0.2762 -2.4688
17484TIP3   OH273942   6.269   0.218   4.187  0.1439  0.0220  0.1750
17484TIP3    H173943   6.312   0.196   4.269 -1.8939 -1.5503  0.8720
17484TIP3    H273944   6.180   0.243   4.212 -0.1829  0.5741 -1.4512
17485TIP3   OH273945   3.937   1.739   4.838 -0.2449 -0.1843 -0.7450
17485TIP3    H173946   4.018   1.691   4.849  0.0002  0.5105  0.5969
17485TIP3    H273947   3.868   1.672   4.847  0.0948 -0.3410  0.9594
17486TIP3   OH273948   6.172   0.137   3.860 -0.5002 -0.0348  0.1987
17486TIP3    H173949   6.174   0.168   3.951  2.3082 -0.1735  0.2225
17486TIP3    H273950   6.252   0.174   3.821 -0.6492 -1.6404 -1.6619
17487TIP3   OH273951   6.284   0.065   4.720  0.0941 -0.3746  0.0113
17487TIP3    H173952   6.269   0.158   4.707  0.5688 -0.1095  1.3268
17487TIP3    H273953   6.263   0.025   4.635  0.6930  1.0048 -0.7922
17488TIP3   OH273954   5.921   7.074   5.429 -0.2914 -0.2427 -0.1100
17488TIP3    H173955   5.918   7.164   5.398  0.3900 -0.4884 -0.8959
17488TIP3    H273956   5.946   7.082   5.521 -2.0695  0.4659  0.3375
17489TIP3   OH273957   0.141   0.959   4.059  0.0252  0.3525  0.0908
17489TIP3    H173958   0.054   0.940   4.095 -0.5698 -0.4076 -1.6721
17489TIP3    H273959   0.172   1.034   4.109 -2.0045  1.1497  0.2026
17490TIP3   OH273960   6.003   5.078   4.246 -0.0582 -0.6510 -0.2379
17490TIP3    H173961   6.073   5.118   4.298  0.0992  0.8324 -1.5495
17490TIP3    H273962   5.935   5.055   4.310  0.7701 -0.2599  0.7925
17491TIP3   OH273963   3.785   1.443   4.855 -0.9980  0.2592  0.3571
17491TIP3    H173964   3.809   1.357   4.890  0.8138 -0.8218 -3.2327
17491TIP3    H273965   3.741   1.424   4.772 -1.4745  2.7603 -0.0166
17492TIP3   OH273966   5.876   1.544   4.231 -0.2640  0.7315  0.0587
17492TIP3    H173967   5.949   1.533   4.292  0.7785 -2.2932 -1.6556
17492TIP3    H273968   5.803   1.500   4.274 -0.2074  0.8191  0.2476
17493TIP3   OH273969   5.708   1.650   5.471  0.3233  0.5804  0.6318
17493TIP3    H173970   5.721   1.633   5.564  1.0203  1.5562  0.7148
17493TIP3    H273971   5.625   1.698   5.467  0.1782  0.3408  0.7206
17494TIP3   OH273972   6.444   0.141   5.180  0.2964 -0.0211  0.0312
17494TIP3    H173973   6.486   0.199   5.117 -0.3923 -0.7003 -1.0669
17494TIP3    H273974   6.516   0.109   5.235  0.9501  0.2767 -0.6492
17495TIP3   OH273975   7.184   3.553   4.848 -0.4883 -0.5154 -1.0330
17495TIP3    H173976   7.252   3.590   4.906 -0.1518 -1.3971 -0.8580
17495TIP3    H273977   7.205   3.589   4.762  0.7403 -1.4443 -1.1520
17496TIP3   OH273978   6.869   2.351   3.707  0.5959 -0.7699 -0.4128
17496TIP3    H173979   6.822   2.414   3.761 -0.3201 -0.9806 -0.9512
17496TIP3    H273980   6.896   2.282   3.769  2.0114  0.3713  0.2540
17497TIP3   OH273981   4.829   1.746   4.165 -0.2486 -0.0516  0.1491
17497TIP3    H173982   4.903   1.768   4.221 -0.1141  1.6996 -0.6870
17497TIP3    H273983   4.819   1.822   4.108 -0.5985 -1.6535 -1.9812
17498TIP3   OH273984   7.090   1.550   5.832 -0.1708  0.4535 -0.0456
17498TIP3    H173985   7.158   1.617   5.838 -0.0273  0.3710 -0.6447
17498TIP3    H273986   7.074   1.541   5.737 -1.0483  0.5143  0.0894
17499TIP3   OH273987   5.209   3.784   3.722 -0.2148  0.1251  1.1048
17499TIP3    H173988   5.227   3.866   3.676 -1.6228 -0.0962  0.1355
17499TIP3    H273989   5.128   3.801   3.771 -0.7942 -0.8371  0.4961
17500TIP3   OH273990   6.624   1.650   3.307  0.3069  0.0548 -0.7149
17500TIP3    H173991   6.621   1.729   3.254 -0.6902  0.4094 -0.1373
17500TIP3    H273992   6.697   1.663   3.367 -0.8163  1.2140  0.4232
17501TIP3   OH273993   5.961   1.616   5.138  0.1819  0.6555  0.1434
17501TIP3    H173994   5.904   1.547   5.172  1.0642 -0.0836  0.1398
17501TIP3    H273995   5.924   1.697   5.173 -1.5047  0.2820 -0.7290
17502TIP3   OH273996   5.758   3.043   3.264  0.4989 -0.1891 -0.4445
17502TIP3    H173997   5.734   3.041   3.171  0.7295 -0.6576 -0.4942
17502TIP3    H273998   5.686   2.998   3.308  0.4630 -0.1013 -0.4143
17503TIP3   OH273999   5.660   3.210   4.480  0.1333  0.4018  0.0067
17503TIP3    H174000   5.702   3.290   4.510 -1.1285  0.7815  0.7926
17503TIP3    H274001   5.648   3.223   4.386  1.0600  0.6058 -0.0877
17504TIP3   OH274002   4.825   2.525   4.551  0.3429  0.0511  0.4501
17504TIP3    H174003   4.891   2.538   4.483 -1.0934 -0.7264 -1.1313
17504TIP3    H274004   4.775   2.607   4.550 -1.0685 -0.7804 -1.0334
17505TIP3   OH274005   6.153   3.764   1.683 -0.0185  0.3731 -0.6765
17505TIP3    H174006   6.217   3.695   1.665 -1.2272 -0.8677 -0.2331
17505TIP3    H274007   6.181   3.801   1.766  0.1666 -0.1184 -0.5170
17506TIP3   OH274008   5.985   0.598   3.417 -0.1001 -0.2153 -0.5627
17506TIP3    H174009   6.078   0.582   3.406 -0.0254 -1.9431  2.0410
17506TIP3    H274010   5.946   0.575   3.333  1.3468 -3.8175 -0.3271
17507TIP3   OH274011   0.226   3.168   2.888 -0.0458 -0.3711 -0.2957
17507TIP3    H174012   0.210   3.159   2.982  2.1131  0.0475  0.1595
17507TIP3    H274013   0.311   3.127   2.874  0.2204  0.6386 -1.8456
17508TIP3   OH274014   5.404   7.279   5.920  0.4666  0.4582 -0.3065
17508TIP3    H174015   5.368   7.363   5.893 -1.8110  0.5919  2.9402
17508TIP3    H274016   5.336   7.216   5.901  0.7521 -0.1243  0.5511
17509TIP3   OH274017   2.088   2.107   3.472 -0.5971  0.0178  0.1371
17509TIP3    H174018   2.145   2.178   3.442  0.9918 -1.3658 -0.1563
17509TIP3    H274019   2.143   2.030   3.472 -2.1252 -1.1029  1.1612
17510TIP3   OH274020   6.774   3.094   4.576 -0.7733 -0.0931  0.0389
17510TIP3    H174021   6.821   3.024   4.622 -0.8629 -0.7849 -0.9144
17510TIP3    H274022   6.836   3.167   4.575 -1.1121  0.2339  2.0561
17511TIP3   OH274023   7.090   2.366   3.516 -0.4505 -0.7504 -0.3901
17511TIP3    H174024   7.015   2.369   3.575 -0.2605  1.9977 -0.2391
17511TIP3    H274025   7.059   2.407   3.435  0.6461 -0.3299 -0.6082
17512TIP3   OH274026   6.385   1.608   5.017 -0.3791  0.5062 -0.8736
17512TIP3    H174027   6.310   1.549   5.027  0.5187 -0.2140  2.2594
17512TIP3    H274028   6.345   1.694   5.004 -1.7130 -0.3765 -2.8625
17513TIP3   OH274029   5.339   2.833   2.107 -0.0714  0.6652  0.2285
17513TIP3    H174030   5.258   2.855   2.153 -0.6843 -2.4217  0.7040
17513TIP3    H274031   5.315   2.836   2.014 -0.7217 -0.1293  0.3647
17514TIP3   OH274032   5.268   2.824   6.094 -0.2158 -0.1439 -0.2956
17514TIP3    H174033   5.204   2.768   6.137 -1.1029 -0.5127 -2.0495
17514TIP3    H274034   5.217   2.900   6.065  0.2759 -0.1005 -1.0641
17515TIP3   OH274035   6.999   1.466   5.200  0.3536  0.6566 -0.4303
17515TIP3    H174036   6.916   1.510   5.177 -0.4943 -1.0198 -0.6075
17515TIP3    H274037   7.060   1.496   5.132 -1.3136 -1.6921 -3.0690
17516TIP3   OH274038   0.427   3.372   2.825  0.7568 -0.1307 -0.2891
17516TIP3    H174039   0.341   3.414   2.829  1.8214  2.2282 -0.9671
17516TIP3    H274040   0.454   3.364   2.916  0.0121 -0.4495 -0.0958
17517TIP3   OH274041   5.907   2.714   4.248  0.1986 -0.2196  0.1719
17517TIP3    H174042   5.924   2.683   4.337  1.2305  2.7872  1.0933
17517TIP3    H274043   5.815   2.740   4.248  0.8014  1.9987  1.1064
17518TIP3   OH274044   3.693   5.626   5.243  0.3950 -0.6281 -0.0085
17518TIP3    H174045   3.757   5.653   5.308 -1.2832 -0.6923  1.6952
17518TIP3    H274046   3.723   5.667   5.162 -0.3503  3.8594  1.8554
17519TIP3   OH274047   6.557   1.545   4.688  0.0999  0.1059 -0.1210
17519TIP3    H174048   6.576   1.637   4.706 -0.4883  0.1206  0.4595
17519TIP3    H274049   6.465   1.545   4.660 -0.0766 -0.3692  0.4330
17520TIP3   OH274050   0.440   0.744   5.748  0.5426 -0.2174  0.1578
17520TIP3    H174051   0.487   0.822   5.718  0.5949 -0.7086 -1.1044
17520TIP3    H274052   0.353   0.777   5.772  0.1635  0.0623 -1.5234
17521TIP3   OH274053   6.467   3.086   3.418  0.1315 -0.9428  0.3852
17521TIP3    H174054   6.401   3.037   3.467 -0.4309 -1.4223 -0.8288
17521TIP3    H274055   6.484   3.033   3.340  2.3841 -1.1127  0.9485
17522TIP3   OH274056   7.062   5.325   4.262  0.0226 -0.0895 -0.2012
17522TIP3    H174057   7.154   5.302   4.273 -0.5183 -2.3323 -0.0282
17522TIP3    H274058   7.062   5.420   4.251  2.3245 -0.0270  0.0290
17523TIP3   OH274059   5.610   0.993   4.973  0.0556 -0.3800  0.2246
17523TIP3    H174060   5.614   0.909   5.018  0.3464 -0.0482  0.8253
17523TIP3    H274061   5.697   1.032   4.987  0.4011 -0.5931 -1.2422
17524TIP3   OH274062   6.872   6.537   5.126  0.4022  0.3345 -0.3243
17524TIP3    H174063   6.900   6.537   5.035  2.5761 -1.2393  0.2944
17524TIP3    H274064   6.786   6.495   5.125  0.0034  1.1647 -1.7434
17525TIP3   OH274065   0.073   2.551   4.535  0.1516  0.2384  0.7971
17525TIP3    H174066   0.139   2.502   4.484  1.1773  0.3337  2.0166
17525TIP3    H274067   0.080   2.515   4.623 -2.8739 -1.2006  0.5218
17526TIP3   OH274068   3.700   7.097   4.670  0.2166  0.1092  0.1065
17526TIP3    H174069   3.737   7.123   4.754 -3.1948 -0.7791  1.9707
17526TIP3    H274070   3.763   7.130   4.605  1.3392  3.6555  2.8020
17527TIP3   OH274071   6.942   0.498   5.697 -0.2033  0.1006 -0.0559
17527TIP3    H174072   6.854   0.463   5.687  0.3954 -1.7155  0.8840
17527TIP3    H274073   6.932   0.571   5.759 -1.0691  0.0418 -0.1276
17528TIP3   OH274074   0.580   7.159   3.687  0.1823 -0.1406 -0.0509
17528TIP3    H174075   0.550   7.220   3.753 -1.7159  0.7786 -1.7096
17528TIP3    H274076   0.522   7.173   3.612  1.2171 -2.2896 -1.3337
17529TIP3   OH274077   0.529   5.269   6.133 -0.2321 -0.4388  0.0359
17529TIP3    H174078   0.609   5.294   6.088 -0.3940 -0.5894 -0.3408
17529TIP3    H274079   0.490   5.352   6.161  0.2301 -0.3855  0.5321
17530TIP3   OH274080   6.294   6.602   5.974 -0.9664  0.1979 -0.0364
17530TIP3    H174081   6.386   6.585   5.955 -0.7237 -0.5123  1.6949
17530TIP3    H274082   6.294   6.688   6.016 -1.0574  0.0882  0.1918
17531TIP3   OH274083   5.988   7.111   5.798 -0.4652 -0.1791  0.2792
17531TIP3    H174084   5.917   7.046   5.806 -1.4154  0.9751  1.4189
17531TIP3    H274085   6.014   7.129   5.889 -0.3368  1.1730 -0.0268
17532TIP3   OH274086   1.330   2.918   4.772 -0.6834 -0.3162 -0.3816
17532TIP3    H174087   1.287   2.952   4.693 -1.4193 -0.1726  0.0730
17532TIP3    H274088   1.268   2.936   4.843  1.2430  2.2373  0.7260
17533TIP3   OH274089   1.311   6.773   2.858 -0.0394  0.2501  0.4801
17533TIP3    H174090   1.271   6.688   2.841 -0.0984  0.2926  0.4090
17533TIP3    H274091   1.390   6.752   2.909 -0.4228  0.2118  1.0557
17534TIP3   OH274092   3.673   1.177   3.868  0.2674  0.0014  0.0202
17534TIP3    H174093   3.640   1.156   3.781 -0.2920 -2.1091  0.7178
17534TIP3    H274094   3.738   1.247   3.853 -1.0387  0.8471 -1.8740
17535TIP3   OH274095   4.232   1.243   2.631  0.1843 -0.5002  0.3326
17535TIP3    H174096   4.158   1.246   2.571  1.2254  0.3749 -0.9264
17535TIP3    H274097   4.290   1.176   2.595  0.2866 -0.7814  1.0006
17536TIP3   OH274098   2.039   1.105   2.947  0.6935 -0.4888 -0.1882
17536TIP3    H174099   2.063   1.167   3.017  0.3053 -0.6206  0.0582
17536TIP3    H274100   2.028   1.021   2.991 -2.0621 -0.0708  0.0033
17537TIP3   OH274101   5.108   0.531   4.175  0.9338 -0.3080 -0.3485
17537TIP3    H174102   5.109   0.548   4.269  0.2283  0.7328 -0.5149
17537TIP3    H274103   5.179   0.469   4.160  0.5048 -1.1289  0.9872
17538TIP3   OH274104   6.254   1.462   3.693 -0.4691  0.2018 -0.4141
17538TIP3    H174105   6.319   1.432   3.629 -1.1540 -0.3092 -0.8770
17538TIP3    H274106   6.242   1.555   3.673  1.5550  0.7825  0.9344
17539TIP3   OH274107   0.368   6.815   1.045 -0.0181  0.1451  0.2808
17539TIP3    H174108   0.420   6.792   0.968 -2.9333  0.1002 -1.7701
17539TIP3    H274109   0.387   6.745   1.108 -0.8264 -2.2589 -2.0131
17540TIP3   OH274110   0.550   0.673   5.342  0.9838  0.1841 -0.2682
17540TIP3    H174111   0.599   0.612   5.286 -0.3188  0.7851 -2.0825
17540TIP3    H274112   0.460   0.642   5.338  0.7430  0.7084  0.8947
17541TIP3   OH274113   0.620   0.951   3.066 -0.7548 -0.2220  0.1061
17541TIP3    H174114   0.676   0.975   2.993 -2.2144 -0.4462 -1.1109
17541TIP3    H274115   0.615   1.031   3.120 -0.7889  0.3703 -0.7727
17542TIP3   OH274116   0.709   2.761   5.610  0.3843  0.5456  0.0667
17542TIP3    H174117   0.671   2.820   5.675 -0.3262  1.5506 -1.2320
17542TIP3    H274118   0.651   2.685   5.611 -1.0479  1.5770 -1.0689
17543TIP3   OH274119   6.520   1.954   5.997  0.0045  0.0429  0.5360
17543TIP3    H174120   6.483   1.909   6.073  0.0583  0.6983  0.9563
17543TIP3    H274121   6.599   1.996   6.030  0.3354 -0.1411 -0.0186
17544TIP3   OH274122   6.540   1.684   4.256 -0.4115 -0.3718 -0.0006
17544TIP3    H174123   6.497   1.764   4.225  0.4849 -0.0470 -0.4024
17544TIP3    H274124   6.493   1.663   4.337 -0.8729  0.3790 -0.0620
17545TIP3   OH274125   6.119   0.436   4.438 -0.1068  0.2046  0.2573
17545TIP3    H174126   6.034   0.462   4.473  0.6888  0.3146  2.1414
17545TIP3    H274127   6.098   0.380   4.363 -1.8309  0.3036  0.6549
17546TIP3   OH274128   0.840   3.395   5.542 -0.1563  0.0228  0.5372
17546TIP3    H174129   0.772   3.461   5.553 -0.7582 -0.7366  1.4510
17546TIP3    H274130   0.919   3.436   5.576  0.4643  1.8680 -2.8580
17547TIP3   OH274131   6.393   0.280   3.721  0.4134  0.1737  0.3503
17547TIP3    H174132   6.439   0.355   3.683  0.4160 -0.1989 -0.3701
17547TIP3    H274133   6.414   0.206   3.664  0.6728 -0.4501  1.2338
17548TIP3   OH274134   0.556   1.901   5.159 -0.0166  0.0114  0.1380
17548TIP3    H174135   0.644   1.925   5.187 -0.0902  1.1480 -0.5248
17548TIP3    H274136   0.500   1.927   5.232  0.2353 -1.0919  0.7286
17549TIP3   OH274137   5.440   4.949   4.531 -0.2221 -0.0187 -0.5678
17549TIP3    H174138   5.429   4.956   4.437 -0.5944 -1.3873 -0.6446
17549TIP3    H274139   5.435   5.038   4.564  0.1654  0.4850 -1.8717
17550TIP3   OH274140   6.671   1.856   4.566  0.9005 -0.7839  0.1231
17550TIP3    H174141   6.589   1.855   4.615  0.7982 -1.1721 -0.0556
17550TIP3    H274142   6.659   1.925   4.501  1.8238  1.2034  1.9759
17551TIP3   OH274143   6.180   5.561   3.568  0.7576 -0.1899 -0.2306
17551TIP3    H174144   6.131   5.549   3.650  1.3776  0.0257  0.1747
17551TIP3    H274145   6.206   5.473   3.542  0.0304 -0.3224 -0.5283
17552TIP3   OH274146   6.048   2.168   4.336  0.4804 -0.3745  0.1352
17552TIP3    H174147   5.959   2.197   4.316 -0.1519 -2.5098 -0.3176
17552TIP3    H274148   6.105   2.234   4.297 -0.8598 -0.5574 -2.1781
17553TIP3   OH274149   5.567   2.618   4.656  0.0196 -0.5200 -0.0183
17553TIP3    H174150   5.503   2.667   4.604  1.1444  1.1338  0.1349
17553TIP3    H274151   5.514   2.568   4.718 -1.0682  2.4346  1.5320
17554TIP3   OH274152   6.319   3.788   3.773  0.1103  0.5674 -0.0873
17554TIP3    H174153   6.250   3.724   3.785  1.4694 -0.8174  0.4999
17554TIP3    H274154   6.378   3.748   3.708  0.7675  1.3702  0.0029
17555TIP3   OH274155   5.380   3.566   2.415  0.2678 -0.2175 -0.4707
17555TIP3    H174156   5.442   3.509   2.459 -1.3735 -1.8396 -0.2004
17555TIP3    H274157   5.430   3.608   2.345  2.8623  2.2154  2.6788
17556TIP3   OH274158   6.108   0.285   6.045  0.4477 -0.2146  0.2947
17556TIP3    H174159   6.070   0.264   5.960  0.1337 -0.0520  0.3968
17556TIP3    H274160   6.164   0.361   6.029  0.2936 -0.1085  0.2578
17557TIP3   OH274161   0.315   3.872   3.636 -0.4535  0.1874 -0.5062
17557TIP3    H174162   0.375   3.867   3.561 -0.5971 -2.6151 -0.4714
17557TIP3    H274163   0.372   3.873   3.712 -0.3642  1.3274 -0.5743
17558TIP3   OH274164   2.961   2.445   2.997 -0.6768  0.0943  0.0839
17558TIP3    H174165   2.990   2.362   3.033  2.3617  1.2944  0.5689
17558TIP3    H274166   3.013   2.456   2.917  0.0564  2.2148  0.8237
17559TIP3   OH274167   5.231   2.224   3.925 -0.5573  0.1396  0.1986
17559TIP3    H174168   5.300   2.290   3.920 -0.9391  0.3954 -2.6643
17559TIP3    H274169   5.277   2.142   3.946  0.2899  0.7376  0.7092
17560TIP3   OH274170   6.619   2.747   3.261  0.4900 -0.1508 -0.5131
17560TIP3    H174171   6.574   2.804   3.199  0.2984  0.1221 -0.1199
17560TIP3    H274172   6.680   2.805   3.308 -1.1447  0.1359  1.3100
17561TIP3   OH274173   4.540   3.393   5.407  0.4895 -0.0268  0.0112
17561TIP3    H174174   4.590   3.322   5.448 -0.6248 -0.5568  0.4484
17561TIP3    H274175   4.452   3.358   5.395  0.1651  0.9703 -0.5984
17562TIP3   OH274176   7.151   2.068   4.261 -0.0337  0.1383 -0.4188
17562TIP3    H174177   7.067   2.099   4.227  1.4749  3.9059 -0.8922
17562TIP3    H274178   7.180   2.002   4.199 -1.3239  0.8419 -1.7839
17563TIP3   OH274179   0.969   2.095   5.075 -0.1179  0.6181 -0.5446
17563TIP3    H174180   0.992   2.127   5.162  0.3166  1.0231 -0.8039
17563TIP3    H274181   0.999   2.164   5.015 -0.8176  0.5504 -0.9848
17564TIP3   OH274182   6.714   1.619   5.695 -0.4559 -0.5531 -0.0165
17564TIP3    H174183   6.734   1.530   5.722 -1.5183 -1.0233 -0.7906
17564TIP3    H274184   6.724   1.671   5.776  0.4832 -1.3001  0.3569
17565TIP3   OH274185   6.513   6.231   4.311 -0.1507  0.1314  0.2840
17565TIP3    H174186   6.605   6.211   4.295  0.0525  0.5027  0.9936
17565TIP3    H274187   6.497   6.313   4.263 -0.4334 -0.5776 -0.8502
17566TIP3   OH274188   7.210   2.744   5.582 -0.7691  0.1499 -0.4920
17566TIP3    H174189   7.286   2.801   5.592 -0.0446 -0.6017 -1.5793
17566TIP3    H274190   7.154   2.789   5.519  0.0614 -0.5744 -1.7752
17567TIP3   OH274191   5.356   0.311   4.695 -0.1940 -0.5978 -0.0330
17567TIP3    H174192   5.364   0.238   4.632 -1.9926 -0.1717 -0.7738
17567TIP3    H274193   5.273   0.296   4.739  0.4691 -0.1838  1.3987
17568TIP3   OH274194   5.822   2.324   4.341  0.3356 -0.0936  0.1366
17568TIP3    H174195   5.759   2.374   4.290 -0.3307  0.1964  1.2431
17568TIP3    H274196   5.872   2.390   4.389  1.2100 -0.3456 -0.3971
17569TIP3   OH274197   0.682   1.269   3.906  0.8560 -0.2947 -0.6032
17569TIP3    H174198   0.617   1.209   3.869 -1.3186  2.5795 -1.6628
17569TIP3    H274199   0.682   1.344   3.847  2.4565  1.3934  1.4345
17570TIP3   OH274200   4.796   3.363   4.280  0.0422 -0.2518  0.0821
17570TIP3    H174201   4.704   3.390   4.287  0.4305  1.5861 -1.5841
17570TIP3    H274202   4.795   3.269   4.299 -2.2783 -0.3988 -0.6659
17571TIP3   OH274203   5.967   2.383   5.688  0.7724  0.3652  0.6948
17571TIP3    H174204   6.054   2.423   5.685  0.4451  1.1634  1.3795
17571TIP3    H274205   5.979   2.296   5.651  2.2199 -0.1512  2.2742
17572TIP3   OH274206   6.027   1.244   5.603 -0.1482  0.5593 -0.2739
17572TIP3    H174207   6.077   1.183   5.657 -0.0815 -0.9328 -1.9967
17572TIP3    H274208   6.003   1.314   5.663  3.5828  1.1019  0.7409
17573TIP3   OH274209   5.715   0.323   3.239  0.5079 -0.1971  0.1434
17573TIP3    H174210   5.686   0.384   3.172  0.5174 -0.1732  0.1613
17573TIP3    H274211   5.636   0.273   3.262  0.7135 -0.8846 -0.5998
17574TIP3   OH274212   5.067   5.915   4.738 -0.1895  0.3588 -0.0114
17574TIP3    H174213   5.071   5.865   4.656  0.3602  0.2828  0.0597
17574TIP3    H274214   5.094   5.852   4.805 -1.4596  0.1816  0.3428
17575TIP3   OH274215   5.811   3.412   5.037  0.0964 -0.2667  0.1470
17575TIP3    H174216   5.894   3.456   5.055 -0.1559  0.1157  0.3664
17575TIP3    H274217   5.820   3.326   5.078 -0.2367  0.3731  1.5922
17576TIP3   OH274218   0.049   1.783   4.930  0.6687 -0.4910  0.3625
17576TIP3    H174219   0.142   1.783   4.954  1.0925 -0.1258 -1.2006
17576TIP3    H274220   0.037   1.866   4.883 -0.5328 -0.3728  0.8865
17577TIP3   OH274221   5.446   0.086   5.578 -0.1694 -0.1885 -0.5093
17577TIP3    H174222   5.371   0.107   5.634  0.5253 -0.7780  0.6616
17577TIP3    H274223   5.450   0.158   5.515 -0.9839  0.4634  0.1760
17578TIP3   OH274224   6.751   6.711   4.728  0.4312 -0.0886  0.0430
17578TIP3    H174225   6.770   6.791   4.680  1.2886 -0.4136 -0.1759
17578TIP3    H274226   6.711   6.740   4.809  1.7301  0.6211  0.4409
17579TIP3   OH274227   5.857   3.259   4.758  0.3893  0.2891  0.5325
17579TIP3    H174228   5.921   3.289   4.823  0.6553  1.8749 -0.4441
17579TIP3    H274229   5.827   3.339   4.715 -2.1221 -0.4391  0.8377
17580TIP3   OH274230   3.808   2.504   3.980  0.4167  0.4316 -0.5571
17580TIP3    H174231   3.782   2.570   4.044 -0.1701  0.8815 -1.2573
17580TIP3    H274232   3.726   2.467   3.948  0.7306 -0.4765 -0.3515
17581TIP3   OH274233   0.797   1.959   5.229 -0.0243  0.2312 -0.1192
17581TIP3    H174234   0.856   1.904   5.280  0.3674  1.4050  0.7363
17581TIP3    H274235   0.853   1.999   5.163  0.1737  1.3776  0.7175
17582TIP3   OH274236   0.943   1.031   4.499 -0.1153 -0.4989  0.1657
17582TIP3    H174237   0.935   0.953   4.554 -1.0832 -0.2590  0.3698
17582TIP3    H274238   0.926   1.104   4.558 -0.0610 -0.1824 -0.2109
17583TIP3   OH274239   5.861   3.252   2.925  0.4949 -0.1127  0.0641
17583TIP3    H174240   5.863   3.339   2.885 -0.8162  0.3316  0.9317
17583TIP3    H274241   5.769   3.228   2.926  0.9219 -1.8618 -0.8652
17584TIP3   OH274242   5.811   6.796   3.383  0.0686  0.5704 -0.3013
17584TIP3    H174243   5.734   6.764   3.334 -0.5039  2.1463 -0.4625
17584TIP3    H274244   5.864   6.718   3.397 -1.3894 -0.4970 -0.5098
17585TIP3   OH274245   0.617   2.963   5.116  0.1835  0.5048  0.0800
17585TIP3    H174246   0.655   2.896   5.173  0.6633  1.6442  1.1243
17585TIP3    H274247   0.527   2.972   5.148  0.3771  0.9664  0.4938
17586TIP3   OH274248   0.570   0.298   3.025 -0.3292  0.4639 -0.1401
17586TIP3    H174249   0.662   0.286   3.045 -0.2985  0.5289 -0.2416
17586TIP3    H274250   0.565   0.292   2.930 -0.1138  2.5414 -0.3042
17587TIP3   OH274251   0.882   1.233   4.099  0.3521 -0.1428 -0.0542
17587TIP3    H174252   0.814   1.249   4.034  0.7193  0.3724 -0.3088
17587TIP3    H274253   0.859   1.148   4.137 -0.4946  0.0780 -0.0628
17588TIP3   OH274254   5.633   1.865   4.501  0.0273  0.1572 -0.6325
17588TIP3    H174255   5.676   1.801   4.445 -0.0739 -0.7986  0.3555
17588TIP3    H274256   5.690   1.871   4.578 -0.6607  0.2391 -0.1252
17589TIP3   OH274257   6.546   2.547   5.512  0.2194  0.3998 -0.0896
17589TIP3    H174258   6.627   2.503   5.537  0.7898  0.3252 -1.9314
17589TIP3    H274259   6.516   2.590   5.591  0.2225 -2.4037  1.4878
17590TIP3   OH274260   6.752   1.798   5.902  0.0147  0.7214  0.6463
17590TIP3    H174261   6.672   1.839   5.934 -0.3099  0.6997 -0.1358
17590TIP3    H274262   6.815   1.870   5.895  0.3347  0.6081  2.0669
17591TIP3   OH274263   2.270   2.027   5.198  0.1295  0.6717  0.1017
17591TIP3    H174264   2.268   2.106   5.252 -2.2050  0.3844  0.5080
17591TIP3    H274265   2.212   2.047   5.125  0.1695 -0.3660 -0.2213
17592TIP3   OH274266   0.421   2.834   2.991 -0.2354 -0.7687 -0.1602
17592TIP3    H174267   0.425   2.895   2.917 -0.6702  1.8029  1.8515
17592TIP3    H274268   0.501   2.783   2.984  0.3128  0.2472 -1.7369
17593TIP3   OH274269   5.229   6.621   5.300 -0.0279  0.4045 -0.5531
17593TIP3    H174270   5.201   6.591   5.387  0.0412  1.0727 -0.2921
17593TIP3    H274271   5.299   6.683   5.319  1.3079 -0.8855 -1.1786
17594TIP3   OH274272   4.638   2.722   4.505 -0.5391 -0.5200  0.1333
17594TIP3    H174273   4.599   2.758   4.584  0.3170  0.9414 -0.0990
17594TIP3    H274274   4.594   2.767   4.433 -0.6850 -1.1986 -0.2146
17595TIP3   OH274275   6.369   7.029   5.225  0.5840 -0.0180  0.4449
17595TIP3    H174276   6.368   7.099   5.290  1.0154 -1.7209  2.3424
17595TIP3    H274277   6.402   7.070   5.145 -1.4506  2.4869  0.8353
17596TIP3   OH274278   6.099   2.757   3.578  0.4776  0.3188  0.6528
17596TIP3    H174279   6.034   2.755   3.507  0.7642  0.2778  0.3874
17596TIP3    H274280   6.093   2.670   3.618  1.0108 -0.0128  0.0348
17597TIP3   OH274281   7.264   1.737   5.764  0.6932  0.2330 -0.0774
17597TIP3    H174282   7.290   1.667   5.705  2.3747 -0.9308  1.9830
17597TIP3    H274283   7.342   1.793   5.770 -0.0283  1.2642 -0.2742
17598TIP3   OH274284   6.759   1.561   5.287  0.1760  0.1162 -0.0342
17598TIP3    H174285   6.685   1.599   5.335  0.6358 -0.3274  1.0202
17598TIP3    H274286   6.834   1.570   5.346  0.2163 -2.8644  0.4224
17599TIP3   OH274287   5.998   1.680   5.463 -0.3586 -0.5414  0.4317
17599TIP3    H174288   5.990   1.775   5.456  0.3462 -0.1311  3.9561
17599TIP3    H274289   5.908   1.649   5.476 -0.6155 -0.3827 -0.9782
17600TIP3   OH274290   0.987   2.347   5.289  0.3317  0.6144  0.2228
17600TIP3    H174291   1.034   2.431   5.284  0.6461  0.7512  3.7109
17600TIP3    H274292   0.895   2.371   5.292  0.2695  0.6461 -1.4896
17601TIP3   OH274293   6.751   0.302   2.412 -0.5104  0.0513 -0.2521
17601TIP3    H174294   6.784   0.283   2.325 -1.1587 -1.9635 -0.0762
17601TIP3    H274295   6.689   0.373   2.400  0.7571  1.0122 -1.1670
17602TIP3   OH274296   5.455   0.671   5.555 -0.0798 -0.0486 -0.6661
17602TIP3    H174297   5.483   0.662   5.646 -0.1507  0.1470 -0.6228
17602TIP3    H274298   5.392   0.600   5.542 -1.5322  1.0742  0.0189
17603TIP3   OH274299   0.144   0.426   4.541  0.4235 -0.0493  0.4785
17603TIP3    H174300   0.136   0.377   4.460 -0.2310  1.3252 -0.2971
17603TIP3    H274301   0.092   0.376   4.605  0.8208 -1.0465  0.0302
17604TIP3   OH274302   1.653   1.204   4.388 -0.4199 -0.2469  0.5706
17604TIP3    H174303   1.579   1.260   4.411 -0.1351 -0.7156  2.7288
17604TIP3    H274304   1.621   1.115   4.398 -0.1572 -0.4616 -0.4756
17605TIP3   OH274305   6.444   0.348   4.925 -0.0017  0.4538  0.1091
17605TIP3    H174306   6.449   0.296   4.845  0.0449  0.4127  0.1386
17605TIP3    H274307   6.355   0.334   4.957 -0.4096  1.4178 -0.5653
17606TIP3   OH274308   4.556   1.497   4.735  0.2431  0.2980 -0.8952
17606TIP3    H174309   4.630   1.551   4.764  1.2173 -1.3676 -0.1928
17606TIP3    H274310   4.502   1.556   4.682 -0.0399  2.6594  1.8888
17607TIP3   OH274311   6.443   0.098   5.854 -0.2274  0.2640 -0.5432
17607TIP3    H174312   6.508   0.144   5.907  1.0542 -0.7396 -1.2298
17607TIP3    H274313   6.363   0.102   5.906  0.7532  0.2361  0.9934
17608TIP3   OH274314   6.829   6.944   5.965 -0.0766  0.1790  0.1785
17608TIP3    H174315   6.812   7.036   5.986  0.8780  0.4313 -0.1429
17608TIP3    H274316   6.776   6.896   6.029 -1.6436  0.9374 -0.5057
17609TIP3   OH274317   6.512   0.060   6.213  0.2137 -0.7527  0.2166
17609TIP3    H174318   6.563   0.072   6.294 -1.7890  0.4506  1.3276
17609TIP3    H274319   6.554   0.119   6.150  0.6122 -0.2474  0.9401
17610TIP3   OH274320   6.934   2.857   5.653  0.2504  0.4556  0.1536
17610TIP3    H174321   6.967   2.891   5.570  0.4015 -0.8579 -0.3523
17610TIP3    H274322   6.840   2.843   5.638  0.8195 -2.6646 -0.8473
17611TIP3   OH274323   6.827   7.258   6.096 -0.4442  0.6483 -0.7882
17611TIP3    H174324   6.732   7.245   6.092 -0.1753 -1.4040 -0.8000
17611TIP3    H274325   6.854   7.264   6.004 -0.4943  0.6667 -0.8024
17612TIP3   OH274326   5.192   0.780   4.103 -0.3108 -0.3017 -0.1597
17612TIP3    H174327   5.143   0.698   4.116 -0.1050 -0.4777 -0.5012
17612TIP3    H274328   5.125   0.849   4.109 -0.2807 -0.3847  1.5602
17613TIP3   OH274329   5.746   1.899   5.652  0.3394 -0.5021 -0.4201
17613TIP3    H174330   5.741   1.969   5.718  1.4463 -0.5533 -0.2670
17613TIP3    H274331   5.728   1.819   5.701  0.8990 -0.5132 -0.2283
17614TIP3   OH274332   7.039   0.218   6.369  1.0181  0.0324 -0.0046
17614TIP3    H174333   7.128   0.243   6.345  0.1398 -0.0381 -3.5806
17614TIP3    H274334   7.037   0.123   6.357  0.1309  0.1899 -1.2098
17615TIP3   OH274335   5.095   2.429   4.375 -0.3882 -0.6362  0.1064
17615TIP3    H174336   5.156   2.482   4.427 -0.5814 -0.1277 -0.1861
17615TIP3    H274337   5.068   2.359   4.435  0.9630 -1.2294  0.0376
17616TIP3   OH274338   4.905   3.622   4.103  0.4877 -0.4484 -0.6893
17616TIP3    H174339   4.893   3.637   4.197 -1.5143 -2.5292 -0.5836
17616TIP3    H274340   4.994   3.588   4.095  0.6044 -0.4211  0.4743
17617TIP3   OH274341   5.152   3.688   5.557  0.5122  0.9249  0.1591
17617TIP3    H174342   5.200   3.606   5.569  0.2687  0.7075 -0.3378
17617TIP3    H274343   5.095   3.694   5.634  0.9170  0.8962  0.4621
17618TIP3   OH274344   5.447   1.700   5.425  0.2467 -0.1998  0.0020
17618TIP3    H174345   5.411   1.785   5.450  1.2579 -0.5338  2.8080
17618TIP3    H274346   5.373   1.650   5.392 -0.3684  1.7296 -1.6044
17619TIP3   OH274347   0.255   1.845   4.574 -0.0211  0.0855  0.5822
17619TIP3    H174348   0.217   1.758   4.561 -1.4078  0.3868  2.4215
17619TIP3    H274349   0.204   1.902   4.516 -0.0258 -0.0884  0.4137
17620TIP3   OH274350   6.971   3.325   5.794 -0.0267 -0.6133 -0.1722
17620TIP3    H174351   6.913   3.259   5.832  0.3029 -1.5428 -1.2292
17620TIP3    H274352   7.012   3.367   5.869 -1.9994  0.0071  0.5829
17621TIP3   OH274353   2.784   1.213   3.569  0.5041  0.4966 -0.0720
17621TIP3    H174354   2.733   1.262   3.504  0.2553 -0.5644 -0.6845
17621TIP3    H274355   2.875   1.239   3.552  0.4449  0.2185 -0.8680
17622TIP3   OH274356   0.596   1.770   5.426  0.0765 -0.2122 -0.2255
17622TIP3    H174357   0.663   1.762   5.493 -1.3721  2.1742  1.6151
17622TIP3    H274358   0.642   1.806   5.350  1.0193  0.6644  0.7491
17623TIP3   OH274359   6.540   0.530   5.466 -0.3450 -0.2733 -0.2239
17623TIP3    H174360   6.590   0.450   5.480  0.9232  0.4110 -0.7819
17623TIP3    H274361   6.583   0.573   5.392  0.1910  1.8714  1.2723
17624TIP3   OH274362   6.540   7.147   6.061  0.1925 -0.0288 -0.1777
17624TIP3    H174363   6.472   7.134   5.996 -0.9957 -2.3585  1.4491
17624TIP3    H274364   6.506   7.217   6.117  0.7689  1.2803 -1.4293
17625TIP3   OH274365   5.853   7.189   4.101  0.1409 -0.5546 -0.2021
17625TIP3    H174366   5.880   7.234   4.181 -1.0067 -2.1040  1.0843
17625TIP3    H274367   5.855   7.257   4.034 -0.8253  1.2468  1.5389
17626TIP3   OH274368   0.087   0.463   2.276  0.4474 -0.0539  0.5370
17626TIP3    H174369   0.071   0.548   2.235 -0.2545  0.0878  1.0843
17626TIP3    H274370   0.010   0.449   2.332  2.0685  0.4677  2.9712
17627TIP3   OH274371   6.945   1.830   3.775  0.3730  0.8390 -0.3111
17627TIP3    H174372   6.982   1.762   3.720 -1.2290 -1.1393  1.0040
17627TIP3    H274373   6.850   1.822   3.763  0.0622  1.2856  1.6601
17628TIP3   OH274374   0.707   6.535   5.921 -0.7157  0.5696 -0.0219
17628TIP3    H174375   0.630   6.478   5.927 -0.7702  0.5271 -1.1052
17628TIP3    H274376   0.720   6.548   5.827  0.3268  0.9525  0.1722
17629TIP3   OH274377   5.553   6.500   4.971  0.5306  0.2264  0.4058
17629TIP3    H174378   5.473   6.551   4.974  1.3420  1.5546  0.0794
17629TIP3    H274379   5.609   6.539   5.039  0.9463 -0.5963  0.5472
17630TIP3   OH274380   5.358   0.774   4.642 -0.0051 -0.4469 -0.0698
17630TIP3    H174381   5.387   0.857   4.680  2.0320  0.7201 -3.9013
17630TIP3    H274382   5.432   0.715   4.655  0.1987 -0.4113 -1.0342
17631TIP3   OH274383   4.704   7.192   5.807  0.4251 -0.3344  0.3890
17631TIP3    H174384   4.736   7.101   5.804 -1.0977 -0.8676  0.2225
17631TIP3    H274385   4.675   7.204   5.897 -1.2307 -0.6532 -0.1000
17632TIP3   OH274386   5.324   2.366   5.483  0.1708 -0.4943  0.0507
17632TIP3    H174387   5.413   2.360   5.449  0.4845  1.9956  0.3438
17632TIP3    H274388   5.276   2.298   5.435  1.8407 -0.7389 -1.3510
17633TIP3   OH274389   5.017   1.741   5.491  0.3537 -0.2824  0.2019
17633TIP3    H174390   5.067   1.773   5.566  0.6884  0.1777 -0.2045
17633TIP3    H274391   4.982   1.821   5.450 -0.7250 -0.5998  0.4843
17634TIP3   OH274392   1.832   2.674   4.331  0.0831 -0.0582  0.0508
17634TIP3    H174393   1.739   2.651   4.320 -0.6668  2.1459  1.4098
17634TIP3    H274394   1.855   2.717   4.249 -0.2564 -0.1245 -0.0833
17635TIP3   OH274395   3.906   5.209   5.429  0.6294  0.8440 -0.2656
17635TIP3    H174396   3.846   5.209   5.355  0.9053 -0.7060 -0.5147
17635TIP3    H274397   3.851   5.223   5.506  0.1302  0.8473 -0.6260
17636TIP3   OH274398   5.764   1.245   5.678 -0.0880  0.6359 -0.4405
17636TIP3    H174399   5.680   1.278   5.645 -0.3845  0.1403 -0.1801
17636TIP3    H274400   5.800   1.318   5.729 -1.3985  0.0691  1.3265
17637TIP3   OH274401   4.317   0.611   5.305 -0.5019  0.4423 -0.3423
17637TIP3    H174402   4.355   0.527   5.279  0.1285  0.3728  0.7847
17637TIP3    H274403   4.242   0.587   5.359 -0.5153  0.6056 -0.2892
17638TIP3   OH274404   7.063   0.752   5.237 -0.1929  0.0045 -0.0082
17638TIP3    H174405   7.135   0.813   5.220  0.9911 -1.0733  1.0854
17638TIP3    H274406   7.076   0.724   5.327 -2.6590  0.6579  0.5738
17639TIP3   OH274407   5.827   0.852   3.891  0.0297 -0.3487  0.1992
17639TIP3    H174408   5.815   0.942   3.922  0.0123 -0.1250 -0.4621
17639TIP3    H274409   5.872   0.861   3.808  0.6821 -0.9887  0.4774
17640TIP3   OH274410   4.822   1.933   4.668 -0.6170  0.0928  0.0760
17640TIP3    H174411   4.776   1.974   4.594  0.6246  0.6188 -0.4262
17640TIP3    H274412   4.913   1.962   4.658 -0.5396  0.6291  2.1302
17641TIP3   OH274413   1.576   1.106   4.683 -0.3564  0.7946  0.0303
17641TIP3    H174414   1.646   1.169   4.670 -0.8956  1.0977 -1.4812
17641TIP3    H274415   1.505   1.156   4.722 -0.5760  1.0031 -0.6312
17642TIP3   OH274416   4.123   2.589   5.309  0.0305 -0.4409 -0.0639
17642TIP3    H174417   4.031   2.590   5.337  0.0749  2.6647  0.1774
17642TIP3    H274418   4.123   2.642   5.229  1.5707 -0.6012 -0.1743
17643TIP3   OH274419   7.319   1.417   4.615  0.5790  0.3043 -0.3393
17643TIP3    H174420   7.225   1.403   4.605  0.2950  1.9401 -0.1232
17643TIP3    H274421   7.330   1.435   4.708  0.9922  0.9469 -0.5143
17644TIP3   OH274422   0.735   1.111   5.117 -0.4950 -1.0365  0.3002
17644TIP3    H174423   0.706   1.153   5.198  1.0281  1.2541 -0.2893
17644TIP3    H274424   0.663   1.124   5.056 -1.2157 -1.8378  0.9785
17645TIP3   OH274425   5.666   3.644   3.644 -0.5044  0.2077 -0.2095
17645TIP3    H174426   5.624   3.730   3.635 -0.3523  0.2143 -0.8207
17645TIP3    H274427   5.606   3.595   3.700  0.9165  1.7129  2.7429
17646TIP3   OH274428   7.272   4.323   4.572 -0.9654  0.2851  0.2039
17646TIP3    H174429   7.287   4.355   4.483  0.5436  0.9807  0.6898
17646TIP3    H274430   7.199   4.261   4.563 -1.3976  0.9888 -1.3669
17647TIP3   OH274431   5.886   3.471   3.543 -0.2383  0.0984  0.4962
17647TIP3    H174432   5.823   3.542   3.554  0.3287  0.6564  0.1676
17647TIP3    H274433   5.895   3.461   3.448 -0.1377 -0.2554  0.5415
17648TIP3   OH274434   0.036   1.519   4.887 -0.3089 -0.5438  0.6091
17648TIP3    H174435   0.044   1.615   4.894 -3.1316 -0.2765  0.9099
17648TIP3    H274436   0.051   1.487   4.976 -2.2722 -0.0734  1.1519
17649TIP3   OH274437   1.317   1.473   3.316  0.6714  0.0846 -0.3760
17649TIP3    H174438   1.242   1.432   3.272  0.7523 -0.0772 -0.3635
17649TIP3    H274439   1.388   1.467   3.251  0.9884 -0.7982  0.0412
17650TIP3   OH274440   5.337   7.018   4.396 -0.3286 -0.1172 -0.3944
17650TIP3    H174441   5.417   7.004   4.446 -0.2334 -0.2955 -0.5985
17650TIP3    H274442   5.313   6.931   4.364 -0.2514  0.0358 -0.8714
17651TIP3   OH274443   5.283   0.517   3.052 -0.4515 -0.2627 -0.2656
17651TIP3    H174444   5.281   0.439   2.996 -2.7398 -0.6098  0.2817
17651TIP3    H274445   5.337   0.492   3.127 -0.0967 -0.8756 -0.7251
17652TIP3   OH274446   0.867   5.246   4.382  0.2661 -0.5756 -0.3224
17652TIP3    H174447   0.961   5.249   4.399  0.0767  1.3965  0.5925
17652TIP3    H274448   0.858   5.279   4.292  0.4326 -0.4028 -0.2772
17653TIP3   OH274449   7.229   7.210   3.418  0.0989  0.6313  0.0184
17653TIP3    H174450   7.309   7.161   3.397 -0.0801  0.3532 -0.0155
17653TIP3    H274451   7.177   7.207   3.338  0.4475  1.5822 -0.2410
17654TIP3   OH274452   0.507   1.184   4.972 -0.3754  0.2378  0.1364
17654TIP3    H174453   0.543   1.273   4.974  0.1337  0.0507 -0.4063
17654TIP3    H274454   0.535   1.149   4.887 -0.5700 -0.4389  0.3488
17655TIP3   OH274455   3.508   2.419   4.220 -0.5644 -0.1820  0.1771
17655TIP3    H174456   3.444   2.367   4.268  1.5784 -2.1477  0.9652
17655TIP3    H274457   3.577   2.438   4.283 -1.5048  4.1735  0.0884
17656TIP3   OH274458   6.954   6.233   3.279  0.3730 -0.4605 -0.1633
17656TIP3    H174459   6.921   6.317   3.312 -0.3396 -0.8435  0.0965
17656TIP3    H274460   6.962   6.246   3.185  1.5485  0.3380  0.0263
17657TIP3   OH274461   1.239   0.069   4.413 -0.3423  0.6469 -0.0100
17657TIP3    H174462   1.268   0.060   4.504  0.2378 -0.0481 -0.2615
17657TIP3    H274463   1.171   0.003   4.403  1.2201 -0.8729 -0.7455
17658TIP3   OH274464   1.274   1.830   2.874  1.0026  0.0352  0.1243
17658TIP3    H174465   1.249   1.769   2.805 -0.1461 -0.5421  1.0262
17658TIP3    H274466   1.370   1.834   2.869  1.1211 -1.9317  0.1055
17659TIP3   OH274467   6.589   2.189   3.757  0.2805  0.2510 -0.1984
17659TIP3    H174468   6.605   2.102   3.719 -1.9340  0.3999 -1.6068
17659TIP3    H274469   6.508   2.179   3.806  1.4486  0.8871  1.9062
17660TIP3   OH274470   6.867   0.729   4.625 -0.1744  0.0143 -0.0627
17660TIP3    H174471   6.876   0.802   4.687  0.3336  0.0332 -0.1571
17660TIP3    H274472   6.922   0.660   4.662 -0.3374 -0.1796 -0.1862
17661TIP3   OH274473   4.602   1.640   4.984 -0.8125  0.1736 -0.7854
17661TIP3    H174474   4.681   1.586   4.992 -0.9424  0.2654  1.6463
17661TIP3    H274475   4.629   1.715   4.930  1.4385  1.3088  1.7601
17662TIP3   OH274476   0.033   0.851   6.344  0.1930  0.1229  0.1383
17662TIP3    H174477  -0.055   0.837   6.308  1.2180 -2.1398 -1.6088
17662TIP3    H274478   0.056   0.767   6.385  1.3011  0.8975  1.1310
17663TIP3   OH274479   1.029   0.957   4.915  0.1067 -0.0331 -0.5827
17663TIP3    H174480   1.076   0.999   4.987 -0.1996 -0.8705  0.1259
17663TIP3    H274481   0.994   1.029   4.863 -0.4964  0.5925  0.6688
17664TIP3   OH274482   1.342   1.886   4.782  0.6902  0.1617  0.1980
17664TIP3    H174483   1.252   1.905   4.809  0.1757 -1.4676 -0.3458
17664TIP3    H274484   1.340   1.892   4.686  1.3296  0.8128  0.2197
17665TIP3   OH274485   2.752   3.670   4.695  0.0367  0.1344  0.3879
17665TIP3    H174486   2.669   3.714   4.715 -0.5190 -0.6946 -0.0628
17665TIP3    H274487   2.819   3.734   4.718 -0.7495  1.0752  0.1019
17666TIP3   OH274488   4.908   2.608   5.834  0.0444 -0.0297 -0.0791
17666TIP3    H174489   4.904   2.566   5.920 -0.7224 -0.3829 -0.2745
17666TIP3    H274490   5.001   2.611   5.813  0.2289 -0.0948  0.6894
17667TIP3   OH274491   1.096   2.493   4.025  0.3106 -0.2529 -0.0220
17667TIP3    H174492   1.015   2.443   4.030  0.6179 -0.8294 -0.8079
17667TIP3    H274493   1.070   2.577   3.985  0.1212 -0.4872 -0.3943
17668TIP3   OH274494   2.295   3.178   5.174  0.2272  0.6009  0.0916
17668TIP3    H174495   2.244   3.211   5.248 -1.7024 -0.0029 -0.9127
17668TIP3    H274496   2.323   3.256   5.127 -0.7929  0.9361  0.0227
17669TIP3   OH274497   2.046   4.010   5.547 -0.2239 -0.4046 -0.4905
17669TIP3    H174498   1.986   4.081   5.525 -0.8299 -0.6277  0.4112
17669TIP3    H274499   2.052   3.958   5.466  1.1244  1.2866 -1.5162
17670TIP3   OH274500   2.287   2.527   5.077  0.1919 -0.0760 -0.4315
17670TIP3    H174501   2.284   2.616   5.114 -0.3294  0.1342 -0.9781
17670TIP3    H274502   2.378   2.499   5.091 -0.3003 -0.4783  2.0905
17671TIP3   OH274503   3.014   5.585   5.427 -0.1404 -0.4281  0.0643
17671TIP3    H174504   3.016   5.532   5.347 -0.3698 -0.1514 -0.1218
17671TIP3    H274505   3.040   5.524   5.496 -1.1245 -0.9688 -0.0471
17672TIP3   OH274506   1.188   1.911   5.134 -0.7396 -0.7198  0.6401
17672TIP3    H174507   1.268   1.961   5.117 -1.2463  0.6884  2.2747
17672TIP3    H274508   1.120   1.957   5.085 -0.9225 -0.6898  0.9194
17673TIP3   OH274509   1.644   3.813   5.293  0.1042 -0.1541  0.5507
17673TIP3    H174510   1.718   3.789   5.350  1.2267 -3.1558 -2.0270
17673TIP3    H274511   1.682   3.877   5.231  0.3206 -0.9607 -0.1613
17674TIP3   OH274512   0.923   3.421   4.675  0.0844 -0.1205  0.1859
17674TIP3    H174513   0.908   3.423   4.769  0.3192 -0.2833  0.2283
17674TIP3    H274514   1.014   3.392   4.666  0.1405  0.1384 -0.0826
17675TIP3   OH274515   6.269   1.321   4.820 -0.0308 -0.0691  0.3455
17675TIP3    H174516   6.227   1.327   4.906  1.6356  0.0816  1.1671
17675TIP3    H274517   6.362   1.319   4.839  0.4512  2.2170 -1.5962
17676TIP3   OH274518   2.560   1.562   4.942  0.1394 -0.1154 -0.2377
17676TIP3    H174519   2.553   1.651   4.977  0.3968 -0.2316  0.1095
17676TIP3    H274520   2.556   1.505   5.019  0.0408 -0.4010 -0.4547
17677TIP3   OH274521   0.617   2.992   3.239 -0.5452  0.1439 -0.3465
17677TIP3    H174522   0.565   3.071   3.252 -0.0891  0.3393  0.3135
17677TIP3    H274523   0.557   2.920   3.258 -0.6387  0.3608  0.1951
17678TIP3   OH274524   1.161   3.317   5.352 -0.2547 -0.4866 -0.0544
17678TIP3    H174525   1.217   3.395   5.343 -1.5509  0.6434  1.2593
17678TIP3    H274526   1.072   3.351   5.344 -0.8004 -2.0800 -0.8933
17679TIP3   OH274527   1.583   2.967   4.440  0.0665 -0.2213  0.8339
17679TIP3    H174528   1.591   2.887   4.387  1.7508  0.0685  0.6287
17679TIP3    H274529   1.490   2.988   4.436  0.1972  0.0355 -2.4091
17680TIP3   OH274530   1.710   3.271   5.537  0.7391 -0.0813 -0.1542
17680TIP3    H174531   1.663   3.248   5.617  1.5645 -0.3423  0.2671
17680TIP3    H274532   1.768   3.343   5.563 -0.8256  1.5883 -1.1343
17681TIP3   OH274533   1.453   4.776   5.138 -0.7565  0.0778  0.2387
17681TIP3    H174534   1.460   4.695   5.189 -1.0945 -0.0699  0.0496
17681TIP3    H274535   1.507   4.760   5.061 -0.5399  0.1664  0.3698
17682TIP3   OH274536   1.642   1.829   5.436 -0.4846 -0.5486  0.1389
17682TIP3    H174537   1.700   1.782   5.376 -2.5634 -0.6260 -1.8873
17682TIP3    H274538   1.696   1.848   5.512  1.9948 -1.1924 -1.4138
17683TIP3   OH274539   2.696   1.654   5.223  0.2769 -0.4902 -0.1615
17683TIP3    H174540   2.673   1.711   5.296  0.6868  2.2361 -2.0817
17683TIP3    H274541   2.615   1.607   5.202 -0.8727  1.5831 -0.4295
17684TIP3   OH274542   0.447   3.470   4.610  0.2792 -0.0249 -0.7336
17684TIP3    H174543   0.495   3.514   4.681 -0.3718 -0.0191 -0.2886
17684TIP3    H274544   0.393   3.539   4.573  0.0192 -0.2166 -0.7083
17685TIP3   OH274545   6.845   1.747   4.751 -0.2846  0.5021  0.0951
17685TIP3    H174546   6.783   1.796   4.696 -1.9235 -2.1850 -0.5390
17685TIP3    H274547   6.918   1.727   4.693  0.1995  1.7904  0.2419
17686TIP3   OH274548   1.794   2.343   6.018  0.7025  0.0615 -0.4052
17686TIP3    H174549   1.783   2.438   6.014  1.1206  0.2578  2.2526
17686TIP3    H274550   1.725   2.314   6.078  2.0764 -0.9990  0.6919
17687TIP3   OH274551   2.376   3.402   5.040  0.1646  0.3274  0.8446
17687TIP3    H174552   2.404   3.436   4.955 -0.1648 -0.1081  0.5568
17687TIP3    H274553   2.458   3.375   5.083  0.0712 -3.1537 -0.9456
17688TIP3   OH274554   1.985   2.659   6.061 -0.0863 -0.4311 -0.0584
17688TIP3    H174555   1.892   2.648   6.044 -0.0850  1.0159 -1.0640
17688TIP3    H274556   2.027   2.637   5.978  0.3992 -0.0776  0.0922
17689TIP3   OH274557   6.361   1.911   4.213  0.3844 -0.1216  0.5184
17689TIP3    H174558   6.303   1.958   4.153 -0.0386  1.2201  1.9503
17689TIP3    H274559   6.302   1.871   4.276  0.8601 -1.0882  0.3585
17690TIP3   OH274560   1.572   1.028   5.451  0.1538  0.2326  0.2303
17690TIP3    H174561   1.631   1.005   5.523  1.0324  1.8902  0.0629
17690TIP3    H274562   1.488   0.991   5.476  0.9537 -1.0696  1.0859
17691TIP3   OH274563   1.288   0.594   2.108  0.6657 -0.0934 -0.3749
17691TIP3    H174564   1.288   0.687   2.130  1.8937 -0.4906  1.3912
17691TIP3    H274565   1.335   0.589   2.025 -0.2838  0.9620 -0.9900
17692TIP3   OH274566   0.876   2.330   4.070  0.7501  0.6900  0.0908
17692TIP3    H174567   0.826   2.248   4.061  2.1255 -0.1048 -0.4894
17692TIP3    H274568   0.818   2.388   4.118  0.3518 -1.1514  1.9039
17693TIP3   OH274569   3.162   2.347   4.079 -0.1088 -0.0893  0.2605
17693TIP3    H174570   3.225   2.418   4.092 -0.1461 -0.2150  1.1576
17693TIP3    H274571   3.083   2.377   4.124  0.6561 -1.7699  2.7610
17694TIP3   OH274572   5.943   2.096   5.213  0.1172 -0.0400 -0.3330
17694TIP3    H174573   5.948   2.009   5.254 -1.2547  1.5772  3.4883
17694TIP3    H274574   5.861   2.095   5.165 -1.3750  0.0416  2.1070
17695TIP3   OH274575   2.061   2.723   4.900  0.3703  0.3938 -0.3719
17695TIP3    H174576   2.025   2.775   4.827  0.0717 -0.8288 -1.1101
17695TIP3    H274577   2.054   2.781   4.976 -3.5718  0.0900 -0.3993
17696TIP3   OH274578   0.816   4.247   5.815  0.2755 -0.2875 -0.0777
17696TIP3    H174579   0.747   4.186   5.787  1.3926 -1.6901  0.1741
17696TIP3    H274580   0.857   4.275   5.733 -2.6269  3.0807 -0.4982
17697TIP3   OH274581   0.942   2.020   5.933  0.1501 -0.2868  0.2831
17697TIP3    H174582   0.917   1.934   5.899  1.8750 -0.5973 -0.2773
17697TIP3    H274583   0.868   2.047   5.987 -0.8729 -1.6376 -0.4120
17698TIP3   OH274584   1.389   2.988   5.990  0.1656 -0.2837 -0.1450
17698TIP3    H174585   1.469   2.939   6.011 -0.1106  0.1073  1.9817
17698TIP3    H274586   1.355   3.016   6.076 -0.7025  2.0088 -1.1867
17699TIP3   OH274587   1.252   2.340   5.436 -0.0858 -0.6680 -0.4570
17699TIP3    H174588   1.270   2.427   5.472  1.6412 -0.8347 -0.8703
17699TIP3    H274589   1.186   2.354   5.368 -1.7913 -0.0613  1.2625
17700TIP3   OH274590   7.004   3.896   4.533  0.0036 -0.3029 -0.2801
17700TIP3    H174591   6.929   3.863   4.582  0.8398 -0.6199  0.8041
17700TIP3    H274592   6.978   3.887   4.442 -1.1702 -0.6621  0.0703
17701TIP3   OH274593   1.798   2.125   5.558  0.1791 -0.2084  0.3121
17701TIP3    H174594   1.720   2.162   5.516 -0.1391 -0.6769  0.4972
17701TIP3    H274595   1.829   2.058   5.497 -0.5928 -1.2683  1.0642
17702TIP3   OH274596   0.304   2.812   4.809  0.0902  0.0495  0.0570
17702TIP3    H174597   0.240   2.860   4.757 -0.4877  1.0197  1.6164
17702TIP3    H274598   0.289   2.720   4.788 -1.0185  0.3489 -0.4708
17703TIP3   OH274599   0.803   2.333   3.667 -0.1218  0.4889 -0.1901
17703TIP3    H174600   0.730   2.380   3.628 -1.6406 -0.9908  0.8375
17703TIP3    H274601   0.791   2.342   3.761  1.7998  1.3977 -0.0010
17704TIP3   OH274602   0.529   3.183   4.724 -0.1749 -0.3571 -0.3023
17704TIP3    H174603   0.494   3.267   4.693 -2.0078 -0.4991  1.2641
17704TIP3    H274604   0.489   3.118   4.666  1.8761 -0.1138 -2.0298
17705TIP3   OH274605   0.221   4.696   5.017  0.3393 -0.0955  0.5573
17705TIP3    H174606   0.254   4.637   4.949  1.5830  1.7325 -0.5000
17705TIP3    H274607   0.128   4.678   5.022  0.9991 -3.4962  1.6511
17706TIP3   OH274608   6.892   2.746   5.344 -0.5264  0.1038  0.2409
17706TIP3    H174609   6.935   2.695   5.413  1.7350 -0.7159 -1.7019
17706TIP3    H274610   6.809   2.701   5.330 -0.6382 -0.2148  1.8616
17707TIP3   OH274611   0.379   1.250   5.334 -0.3172 -0.2977 -0.6268
17707TIP3    H174612   0.369   1.345   5.341  0.9637 -0.2439  0.5738
17707TIP3    H274613   0.472   1.234   5.344 -0.4330 -1.6452 -1.4831
17708TIP3   OH274614   6.942   1.106   4.286 -0.0628  0.2387  0.0189
17708TIP3    H174615   6.896   1.175   4.335  1.4633  1.8549 -0.7826
17708TIP3    H274616   6.936   1.029   4.342 -3.9042  0.3410 -0.1265
17709TIP3   OH274617   1.889   2.851   2.527  0.2731 -0.2002 -0.5760
17709TIP3    H174618   1.896   2.788   2.456  1.0886  0.0274 -0.7027
17709TIP3    H274619   1.960   2.829   2.587 -1.0217 -1.0150  0.6797
17710TIP3   OH274620   0.404   3.090   3.958  0.3575 -0.0505  0.2761
17710TIP3    H174621   0.379   3.117   4.046 -2.2223  0.0660 -0.4698
17710TIP3    H274622   0.389   3.167   3.904  1.2324 -0.3506 -0.4061
17711TIP3   OH274623   1.110   4.191   4.271 -0.0403 -0.3056  0.0335
17711TIP3    H174624   1.205   4.182   4.271 -0.1279 -1.3741  1.0461
17711TIP3    H274625   1.095   4.284   4.287  0.8307 -0.1645  0.0839
17712TIP3   OH274626   0.309   4.972   5.572 -0.1275 -0.0540 -0.3686
17712TIP3    H174627   0.345   4.942   5.656 -0.3111 -0.0550 -0.2893
17712TIP3    H274628   0.286   5.064   5.587  2.3802  0.7345 -1.2333
17713TIP3   OH274629   6.775   4.472   3.717 -0.4184 -0.7538 -0.8038
17713TIP3    H174630   6.705   4.429   3.765 -0.9487  0.8040 -0.1836
17713TIP3    H274631   6.819   4.527   3.781 -1.3482  1.6095 -2.1377
17714TIP3   OH274632   0.139   4.196   4.948 -0.1500  0.0593  0.2498
17714TIP3    H174633   0.093   4.259   5.003 -1.5152 -1.7149  1.1964
17714TIP3    H274634   0.170   4.247   4.873 -0.8911  1.9070  1.1852
17715TIP3   OH274635   1.249   3.025   5.363 -0.2172  0.2435  0.1590
17715TIP3    H174636   1.325   3.020   5.421 -1.4490  0.0290  1.7903
17715TIP3    H274637   1.210   3.111   5.383 -0.2084  0.5058 -0.9269
17716TIP3   OH274638   1.597   3.057   5.079 -0.1323 -0.3356 -0.1823
17716TIP3    H174639   1.595   3.142   5.036  2.0155 -0.5516 -0.7725
17716TIP3    H274640   1.624   3.076   5.169  1.7284 -0.5005 -0.6837
17717TIP3   OH274641   0.345   3.029   5.188 -0.0713 -0.1393 -0.7466
17717TIP3    H174642   0.286   2.954   5.197 -0.9249  0.4078 -1.5628
17717TIP3    H274643   0.338   3.054   5.095 -1.3514  2.1641 -0.0740
17718TIP3   OH274644   2.412   2.837   5.692  0.2943 -0.9165  0.0219
17718TIP3    H174645   2.457   2.899   5.635 -1.2013  0.1551 -0.0351
17718TIP3    H274646   2.397   2.760   5.637  0.8765 -0.7651 -0.3472
17719TIP3   OH274647   1.260   4.058   3.874 -0.2144  0.4428 -0.4504
17719TIP3    H174648   1.289   4.026   3.789 -0.1776 -1.2615  0.2062
17719TIP3    H274649   1.199   4.130   3.852  1.6266  1.6165 -1.8515
17720TIP3   OH274650   1.353   1.265   5.441  0.1994  0.0223  0.1424
17720TIP3    H174651   1.344   1.301   5.529 -0.4834  0.4504 -0.0958
17720TIP3    H274652   1.447   1.274   5.421  0.2307  0.6281  0.5293
17721TIP3   OH274653   6.829   2.309   5.345 -0.1909 -0.4655 -0.1002
17721TIP3    H174654   6.900   2.251   5.373 -0.9764 -0.9638  0.8948
17721TIP3    H274655   6.833   2.382   5.407  0.1910  0.0776 -0.7616
17722TIP3   OH274656   1.486   3.651   4.358 -0.3440 -0.0346 -0.0737
17722TIP3    H174657   1.477   3.739   4.396 -3.0141 -1.0395  1.7292
17722TIP3    H274658   1.538   3.665   4.279 -1.0541  3.2357 -0.0538
17723TIP3   OH274659   0.147   1.966   4.313  0.0840  0.1654 -0.5224
17723TIP3    H174660   0.116   2.049   4.347 -0.1207  0.7173 -1.9914
17723TIP3    H274661   0.192   1.989   4.231  1.4945 -0.9799 -0.0999
17724TIP3   OH274662   1.668   2.697   5.418  0.3778  0.0369 -0.3038
17724TIP3    H174663   1.663   2.653   5.503  1.8873  0.5649  0.0759
17724TIP3    H274664   1.578   2.720   5.398  0.1254  0.9640  1.7323
17725TIP3   OH274665   5.366   4.246   4.489 -0.5094  0.5382 -0.0998
17725TIP3    H174666   5.298   4.223   4.552 -0.3150 -0.5432 -0.2692
17725TIP3    H274667   5.387   4.337   4.508 -1.0518  0.4748  0.8323
17726TIP3   OH274668   1.570   2.243   5.453 -0.1283 -0.5157 -0.0547
17726TIP3    H174669   1.530   2.323   5.420  0.7458 -0.6821 -1.5893
17726TIP3    H274670   1.511   2.212   5.522 -1.5884  0.2843 -0.9305
17727TIP3   OH274671   2.011   1.651   5.946 -0.0177  0.6424  0.9295
17727TIP3    H174672   1.994   1.684   6.035 -1.2558 -3.2891  2.2725
17727TIP3    H274673   2.098   1.611   5.952 -0.3002 -0.0384  0.5141
17728TIP3   OH274674   6.658   2.602   4.506 -0.5572  0.1729  0.1773
17728TIP3    H174675   6.626   2.661   4.574 -1.7103  0.8392 -0.9121
17728TIP3    H274676   6.600   2.526   4.510  0.9310 -0.9160  1.5849
17729TIP3   OH274677   0.302   3.542   3.909 -0.4021 -0.4850  0.2575
17729TIP3    H174678   0.382   3.585   3.939 -0.1174 -1.4032  0.8586
17729TIP3    H274679   0.274   3.593   3.834  0.6573 -0.0438  0.1491
17730TIP3   OH274680   0.002   4.625   5.270  0.6367 -0.1513 -0.0514
17730TIP3    H174681  -0.037   4.594   5.352  0.8722 -0.1734  0.0542
17730TIP3    H274682  -0.034   4.712   5.257 -0.1734 -0.5398 -0.4428
17731TIP3   OH274683   0.695   2.191   4.879 -0.5882  0.6999 -0.2827
17731TIP3    H174684   0.782   2.231   4.870  0.1300 -0.8858 -0.6997
17731TIP3    H274685   0.655   2.202   4.792 -1.8048  3.5883  0.5836
17732TIP3   OH274686   3.695   3.962   4.379  0.1097  0.0930  0.5011
17732TIP3    H174687   3.604   3.935   4.395 -0.5102  2.0371  0.3247
17732TIP3    H274688   3.747   3.902   4.432 -1.1377 -2.4954 -1.0980
17733TIP3   OH274689   7.020   3.061   4.351 -0.0677 -0.3934  0.7522
17733TIP3    H174690   7.109   3.088   4.374 -0.1022 -0.3255  0.8085
17733TIP3    H274691   6.965   3.104   4.416 -0.2598  0.7067 -0.1243
17734TIP3   OH274692   0.975   2.808   6.155  0.2630  0.4259  0.1390
17734TIP3    H174693   0.906   2.873   6.141 -0.3639 -0.3430 -0.3766
17734TIP3    H274694   1.034   2.849   6.219 -0.6508  1.0952  0.5584
17735TIP3   OH274695   0.353   3.084   4.537 -0.3972  0.2203 -0.1556
17735TIP3    H174696   0.309   3.003   4.564  0.2926  0.1924  0.9377
17735TIP3    H274697   0.281   3.143   4.514 -0.9969  0.0046  1.0987
17736TIP3   OH274698   7.299   1.680   5.194 -0.5059 -0.2195  0.0873
17736TIP3    H174699   7.360   1.631   5.249  0.3355  1.2686  0.5010
17736TIP3    H274700   7.355   1.735   5.138 -1.4342  0.4531 -0.2059
17737TIP3   OH274701   1.057   2.157   4.458  0.0145 -0.4747  0.5086
17737TIP3    H174702   1.106   2.218   4.513  1.4473  0.0341 -1.2802
17737TIP3    H274703   1.119   2.130   4.390 -1.8289 -0.6713 -1.1603
17738TIP3   OH274704   2.852   2.475   3.676 -0.0774 -0.4979  0.2806
17738TIP3    H174705   2.945   2.498   3.676  0.1223 -1.2864 -1.0075
17738TIP3    H274706   2.806   2.558   3.666  0.4306  0.0525  2.2602
17739TIP3   OH274707   7.227   3.105   5.734 -0.6851 -0.7185 -0.0937
17739TIP3    H174708   7.171   3.175   5.767  0.2116  0.1280 -0.3318
17739TIP3    H274709   7.210   3.031   5.793 -0.5385  0.1648  1.0809
17740TIP3   OH274710   2.885   4.568   3.628 -0.2110 -0.1734 -0.4949
17740TIP3    H174711   2.966   4.566   3.679 -1.0989 -1.8213  0.9021
17740TIP3    H274712   2.914   4.575   3.537  1.4732  0.0965  0.0492
17741TIP3   OH274713   6.624   2.489   3.207 -0.2507 -0.2466  0.3046
17741TIP3    H174714   6.611   2.581   3.229  3.7304  0.6702 -0.7639
17741TIP3    H274715   6.691   2.459   3.268  0.7526 -1.5255 -1.3888
17742TIP3   OH274716   5.935   5.305   4.671  0.2899 -0.4558  0.3647
17742TIP3    H174717   6.015   5.351   4.644 -0.7189  1.2298  0.1820
17742TIP3    H274718   5.886   5.371   4.720 -1.4593 -1.1822 -0.3924
17743TIP3   OH274719   6.705   3.476   3.072  0.5003  0.3281 -0.2186
17743TIP3    H174720   6.775   3.447   3.131  0.8832  1.0797 -0.2972
17743TIP3    H274721   6.749   3.497   2.990  0.2124  0.9676 -0.2162
17744TIP3   OH274722   5.633   3.716   4.605  0.3187  0.1566 -0.3131
17744TIP3    H174723   5.698   3.760   4.659 -0.1014  1.9406 -1.1995
17744TIP3    H274724   5.552   3.720   4.656  0.2266  0.6373 -0.4937
17745TIP3   OH274725   2.102   2.938   5.082  0.7673  0.5713 -0.4014
17745TIP3    H174726   2.187   2.977   5.103 -0.1235  1.6761  1.2351
17745TIP3    H274727   2.045   3.012   5.064 -0.1864 -0.1099 -0.2296
17746TIP3   OH274728   0.795   2.090   4.433 -0.5756  0.2805 -0.0092
17746TIP3    H174729   0.875   2.136   4.459 -0.7793  1.2208 -1.0173
17746TIP3    H274730   0.821   2.037   4.358 -0.7185 -0.0117  0.1481
17747TIP3   OH274731   2.856   2.991   5.449  0.2830 -0.1901 -0.7645
17747TIP3    H174732   2.769   2.981   5.488  0.7840 -0.4295  0.3297
17747TIP3    H274733   2.839   3.019   5.359 -0.9079  0.9380 -0.2131
17748TIP3   OH274734   6.939   4.245   5.639  0.1067  0.0590  0.1569
17748TIP3    H174735   6.981   4.190   5.705  0.3646  1.0474  0.8147
17748TIP3    H274736   6.859   4.197   5.615 -0.5370  0.2280  1.9530
17749TIP3   OH274737   0.845   3.097   5.249 -0.2576  0.0628 -0.1053
17749TIP3    H174738   0.869   3.186   5.222  0.9166 -0.6038 -1.3285
17749TIP3    H274739   0.784   3.067   5.182 -1.4314  0.2824  0.8420
17750TIP3   OH274740   0.659   2.772   5.333  0.6167 -0.2156 -0.2937
17750TIP3    H174741   0.702   2.774   5.418  0.5104 -1.7860 -0.1916
17750TIP3    H274742   0.567   2.758   5.352  0.5385 -0.2071 -0.6550
17751TIP3   OH274743   1.336   0.863   2.166  0.2774 -0.1614  0.0652
17751TIP3    H174744   1.358   0.946   2.208  1.4995 -0.0490 -0.7688
17751TIP3    H274745   1.254   0.880   2.120 -1.0696 -0.2858  2.3515
17752TIP3   OH274746   6.474   3.357   4.711  0.3830 -0.5032  0.6364
17752TIP3    H174747   6.547   3.396   4.759  0.9326 -1.0800  0.2708
17752TIP3    H274748   6.498   3.265   4.701 -0.3567 -0.6788  0.4463
17753TIP3   OH274749   0.848   5.115   5.685 -0.4780 -0.6620  0.1228
17753TIP3    H174750   0.885   5.144   5.769 -0.5248 -0.4267  0.0645
17753TIP3    H274751   0.863   5.189   5.626  1.1175 -1.4864 -0.5542
17754TIP3   OH274752   1.188   2.542   4.276 -0.4231  0.0452  0.2296
17754TIP3    H174753   1.259   2.477   4.274 -0.3985  0.0619  0.6689
17754TIP3    H274754   1.149   2.536   4.189 -0.2803 -0.4047  0.1944
17755TIP3   OH274755   1.397   2.441   5.182  0.1550 -0.1991 -0.7316
17755TIP3    H174756   1.382   2.531   5.210  0.7007  0.4920 -2.6090
17755TIP3    H274757   1.465   2.446   5.115  0.8429 -2.1103 -0.2260
17756TIP3   OH274758   3.731   3.583   3.606  0.0165 -0.3834 -0.0023
17756TIP3    H174759   3.825   3.593   3.617  0.1248 -0.4220 -0.9081
17756TIP3    H274760   3.694   3.609   3.690  0.6121  2.7592 -0.6826
17757TIP3   OH274761   4.628   1.762   4.390  0.9922  0.0265  0.2842
17757TIP3    H174762   4.710   1.800   4.422  0.4315  0.8262  0.8066
17757TIP3    H274763   4.651   1.720   4.307  2.0309 -0.2057  0.6891
17758TIP3   OH274764   0.949   4.109   5.090  0.0831  0.9834  0.3094
17758TIP3    H174765   0.986   4.112   5.002 -2.3355  2.1235 -0.7239
17758TIP3    H274766   0.909   4.022   5.096  1.0634  0.5573  0.6234
17759TIP3   OH274767   0.273   4.500   5.660  0.2026 -0.2408 -0.4003
17759TIP3    H174768   0.216   4.575   5.638  1.7613  1.1729  0.2634
17759TIP3    H274769   0.338   4.497   5.590 -0.8787 -2.0960 -1.3616
17760TIP3   OH274770   2.247   2.963   3.496  0.6559  0.2233 -0.3470
17760TIP3    H174771   2.275   2.889   3.442  1.9689 -0.6896  1.5147
17760TIP3    H274772   2.313   3.031   3.480 -1.5842  1.7632 -3.5132
17761TIP3   OH274773   0.208   2.542   4.811  0.8149 -0.1651  0.7431
17761TIP3    H174774   0.220   2.487   4.889  1.8668  2.0028  2.1551
17761TIP3    H274775   0.139   2.605   4.836  3.0070  2.2454  0.9194
17762TIP3   OH274776   1.767   4.232   5.129  0.6617 -0.2679 -0.4117
17762TIP3    H174777   1.821   4.249   5.052  0.2577 -0.9517 -0.8534
17762TIP3    H274778   1.779   4.139   5.147  0.0223 -0.3203 -0.2168
17763TIP3   OH274779   2.860   2.412   4.890  0.3050  0.6214  0.2459
17763TIP3    H174780   2.926   2.356   4.849 -1.4439 -1.7220  0.4807
17763TIP3    H274781   2.899   2.439   4.973  1.5123  0.4510 -0.2561
17764TIP3   OH274782   0.613   1.251   4.541  0.5121 -0.0526  0.1127
17764TIP3    H174783   0.690   1.227   4.593  1.9980  1.0695 -1.5232
17764TIP3    H274784   0.645   1.316   4.479 -1.5331 -0.3480 -1.3061
17765TIP3   OH274785   0.983   2.966   5.438  0.6658  0.3475  0.0775
17765TIP3    H174786   0.933   3.010   5.369  0.7773 -0.8162 -0.7726
17765TIP3    H274787   1.074   2.969   5.406  0.6579 -0.5799 -0.0444
17766TIP3   OH274788   2.594   3.053   5.438 -0.3298 -0.0142  0.1985
17766TIP3    H174789   2.525   3.119   5.430  0.5923  0.8432 -0.7600
17766TIP3    H274790   2.565   2.981   5.381 -0.5928  0.1906  0.0715
17767TIP3   OH274791   2.267   0.674   4.669  0.2507 -0.2252 -0.2393
17767TIP3    H174792   2.240   0.730   4.743  1.7563 -0.6182  0.6179
17767TIP3    H274793   2.221   0.591   4.685 -1.5179  0.5439 -1.1939
17768TIP3   OH274794   0.135   2.951   4.638  0.4317 -0.4268 -0.2320
17768TIP3    H174795   0.106   2.896   4.566  1.3621  0.1778 -1.0975
17768TIP3    H274796   0.078   3.028   4.634 -0.9701 -1.3830  1.0740
17769TIP3   OH274797   6.143   5.315   2.899 -0.3811  0.7052  0.4611
17769TIP3    H174798   6.143   5.220   2.883 -0.3772  0.5177  1.5701
17769TIP3    H274799   6.235   5.337   2.912 -0.3918  0.8545  0.2848
17770TIP3   OH274800   0.084   2.705   4.082 -0.5459  0.2127 -0.1839
17770TIP3    H174801   0.013   2.670   4.027  0.0775  0.9641 -1.4825
17770TIP3    H274802   0.115   2.782   4.035  1.5867 -0.4751  0.0323
17771TIP3   OH274803   6.009   3.643   3.196 -0.2683 -0.5455  0.5260
17771TIP3    H174804   6.034   3.551   3.183 -0.3722 -0.6654  1.1305
17771TIP3    H274805   5.933   3.638   3.254 -0.2042 -0.0685  0.6498
17772TIP3   OH274806   5.812   2.328   3.476  0.1499 -0.1754 -0.0194
17772TIP3    H174807   5.760   2.308   3.554  2.5082 -0.8738  1.4450
17772TIP3    H274808   5.888   2.376   3.510  0.1272  1.4492 -2.1765
17773TIP3   OH274809   0.431   1.772   3.689 -0.2386  0.3785  0.1103
17773TIP3    H174810   0.490   1.740   3.620 -0.7793  1.0262 -0.6627
17773TIP3    H274811   0.394   1.692   3.728 -1.4159  0.0418 -1.6528
17774TIP3   OH274812   1.164   2.091   2.899 -0.2883  0.1046  0.2931
17774TIP3    H174813   1.179   2.160   2.834 -3.0383  0.4204 -0.0564
17774TIP3    H274814   1.206   2.013   2.862  0.1448  0.8331 -0.7699
17775TIP3   OH274815   0.666   1.964   5.700 -0.1673  0.1734  0.3065
17775TIP3    H174816   0.589   1.923   5.739  1.8289 -2.0683  2.0374
17775TIP3    H274817   0.663   2.054   5.731 -1.7024 -0.0825  0.9666
17776TIP3   OH274818   1.406   1.437   4.881 -0.6774 -0.1013 -0.1375
17776TIP3    H174819   1.321   1.481   4.881  0.7424  2.6999 -0.4250
17776TIP3    H274820   1.468   1.503   4.908  1.5328 -1.9682 -0.4762
17777TIP3   OH274821   0.899   2.514   4.659 -0.0080 -0.1712 -0.3981
17777TIP3    H174822   0.879   2.501   4.566  1.5731 -1.3456 -0.6003
17777TIP3    H274823   0.829   2.571   4.691 -1.8540 -1.5967 -1.7709
17778TIP3   OH274824   0.473   2.088   6.097 -0.1247  0.5552  0.2501
17778TIP3    H174825   0.489   2.153   6.028  0.2786  0.0948 -0.0955
17778TIP3    H274826   0.552   2.034   6.098 -0.5826 -0.1218  0.3201
17779TIP3   OH274827   1.789   5.894   1.142 -0.0669  0.6495  0.5460
17779TIP3    H174828   1.817   5.825   1.202 -0.6582 -0.9316 -0.9660
17779TIP3    H274829   1.829   5.870   1.058 -2.1976  0.8716 -0.5496
17780TIP3   OH274830   0.537   3.836   5.661  0.9186 -0.6601  0.7079
17780TIP3    H174831   0.520   3.920   5.704 -0.0211 -0.0376 -0.8698
17780TIP3    H274832   0.611   3.799   5.711  0.6694  0.6061  2.0671
17781TIP3   OH274833   1.791   2.340   5.725 -0.2368 -0.4885  0.2998
17781TIP3    H174834   1.810   2.314   5.815  0.3793 -0.1173  0.2781
17781TIP3    H274835   1.782   2.256   5.678 -1.3781 -0.6855  0.8672
17782TIP3   OH274836   2.051   1.402   4.806  0.1374 -0.3195  0.6263
17782TIP3    H174837   2.124   1.351   4.840 -0.0750 -1.1542 -0.1593
17782TIP3    H274838   2.050   1.482   4.860  3.5032  1.1066 -1.2733
17783TIP3   OH274839   0.819   2.606   6.015 -0.4663  0.3103  0.2266
17783TIP3    H174840   0.731   2.643   6.028 -0.8852 -1.1725  1.7579
17783TIP3    H274841   0.876   2.662   6.067 -0.6141  0.8435 -0.1824
17784TIP3   OH274842   0.686   2.096   2.075 -0.2325  0.0389  0.2108
17784TIP3    H174843   0.746   2.080   2.147 -0.9318  2.0256  1.2600
17784TIP3    H274844   0.602   2.063   2.106 -0.5001  0.7531  0.2603
17785TIP3   OH274845   2.358   4.575   5.369 -0.1670 -0.0056 -0.1555
17785TIP3    H174846   2.374   4.498   5.424  0.7664  0.1552 -0.1971
17785TIP3    H274847   2.287   4.621   5.413 -0.0889 -0.3965  0.3908
17786TIP3   OH274848   0.842   7.167   3.790  0.3046 -0.5665 -0.1158
17786TIP3    H174849   0.863   7.255   3.758  1.3897  0.2682  2.7423
17786TIP3    H274850   0.752   7.152   3.763 -0.8533  2.5986  1.7726
17787TIP3   OH274851   0.984   2.801   4.741  0.0716  0.6567 -0.2581
17787TIP3    H174852   0.894   2.778   4.762 -0.7649  2.3004 -1.7906
17787TIP3    H274853   1.024   2.719   4.713 -1.1598  0.0212 -0.2010
17788TIP3   OH274854   5.422   4.849   5.526  0.1699  0.1536 -0.3565
17788TIP3    H174855   5.502   4.817   5.568 -0.0041 -0.3446 -0.3940
17788TIP3    H274856   5.413   4.939   5.557 -0.1066 -0.2920  0.9264
17789TIP3   OH274857   0.505   4.836   5.397 -0.4365  0.3377 -0.6898
17789TIP3    H174858   0.453   4.893   5.455  0.5110 -0.0185  0.5394
17789TIP3    H274859   0.447   4.764   5.375 -0.6960  0.2954  0.1218
17790TIP3   OH274860   2.369   3.577   3.585 -0.4337  0.4263  0.3596
17790TIP3    H174861   2.328   3.582   3.498  1.5649  0.5449 -0.6060
17790TIP3    H274862   2.352   3.662   3.624 -0.3307  0.8026 -0.4017
17791TIP3   OH274863   1.606   3.313   4.941  0.0914  0.2488 -0.2948
17791TIP3    H174864   1.564   3.355   4.867 -1.9361 -0.5229  0.3822
17791TIP3    H274865   1.641   3.385   4.994 -0.3995  0.8947 -0.8551
17792TIP3   OH274866   6.560   2.248   5.629 -0.6605  0.1191  0.3698
17792TIP3    H174867   6.560   2.222   5.537 -1.3272  0.2482  0.3292
17792TIP3    H274868   6.640   2.301   5.639 -0.5487  0.0479 -0.1160
17793TIP3   OH274869   3.224   2.400   4.453  0.3067  0.1574 -0.1530
17793TIP3    H174870   3.266   2.461   4.514 -0.4976 -0.6182  1.2120
17793TIP3    H274871   3.154   2.450   4.412  1.3694  0.9172 -1.0349
17794TIP3   OH274872   7.333   3.992   5.071 -0.5107  0.5378 -0.0864
17794TIP3    H174873   7.383   4.061   5.027 -0.9120  0.1634 -1.1639
17794TIP3    H274874   7.322   4.023   5.160 -0.5794  1.8151 -0.5263
17795TIP3   OH274875   7.158   2.850   5.853  0.0394 -0.2009 -0.0411
17795TIP3    H174876   7.103   2.825   5.928 -0.0931 -1.3821 -0.5229
17795TIP3    H274877   7.104   2.829   5.776  0.6466 -0.1093 -0.4909
17796TIP3   OH274878   6.060   1.280   3.779 -0.0544 -0.5304  0.1745
17796TIP3    H174879   6.133   1.328   3.739 -0.1915 -0.9230 -0.5601
17796TIP3    H274880   6.002   1.349   3.812 -0.0545 -0.1910 -0.5230
17797TIP3   OH274881   6.448   2.648   0.811 -0.4528  0.1719  0.1106
17797TIP3    H174882   6.405   2.726   0.845 -0.0196  0.5834 -0.2755
17797TIP3    H274883   6.379   2.582   0.806 -0.6236  0.2370  1.3472
17798TIP3   OH274884   0.682   0.445   3.532  0.0581  0.5474  0.2890
17798TIP3    H174885   0.742   0.388   3.484 -0.5226  0.0228  0.1841
17798TIP3    H274886   0.604   0.451   3.477 -0.3692  0.4394  0.8734
17799TIP3   OH274887   2.602   2.659   4.849  0.2500  0.3325  0.2024
17799TIP3    H174888   2.549   2.587   4.814  2.6886 -1.4699  0.1157
17799TIP3    H274889   2.605   2.723   4.778  0.0182 -0.5223 -0.5844
17800TIP3   OH274890   0.673   2.650   3.396 -0.3303  0.4219  0.2630
17800TIP3    H174891   0.736   2.686   3.333  0.3981  1.0359  1.3365
17800TIP3    H274892   0.728   2.607   3.462 -1.1366 -1.2931 -0.1699
17801TIP3   OH274893   7.334   3.562   5.457 -0.1481  0.6538 -0.0832
17801TIP3    H174894   7.397   3.631   5.481  0.3637 -0.2527  1.2054
17801TIP3    H274895   7.346   3.494   5.523 -0.1191 -1.0304 -1.7789
17802TIP3   OH274896   1.382   2.134   5.102 -0.0650  0.1983 -0.3211
17802TIP3    H174897   1.437   2.081   5.160 -0.6457 -0.9453 -0.8176
17802TIP3    H274898   1.370   2.216   5.151  1.9058  0.3985 -0.1211
17803TIP3   OH274899   1.192   2.861   5.143  0.0292  0.5426  0.1980
17803TIP3    H174900   1.212   2.935   5.200  0.8658  0.4763 -0.0029
17803TIP3    H274901   1.172   2.901   5.058 -0.4874  0.5959  0.3444
17804TIP3   OH274902   1.341   1.201   4.739 -0.5975  0.3583  0.3460
17804TIP3    H174903   1.276   1.242   4.682 -0.8978  0.2248  0.5913
17804TIP3    H274904   1.346   1.259   4.815 -0.2934  0.4670  0.2418
17805TIP3   OH274905   0.185   2.142   5.540  0.2230 -0.0945 -0.0173
17805TIP3    H174906   0.176   2.237   5.539 -1.4346 -0.2139  1.6953
17805TIP3    H274907   0.150   2.114   5.455 -0.2819  0.7479 -0.0973
17806TIP3   OH274908   0.972   3.209   5.011  0.2692 -0.1796 -0.1614
17806TIP3    H174909   0.884   3.192   4.977 -0.6840  0.9000  1.6830
17806TIP3    H274910   0.986   3.302   4.994 -0.2386  0.3828  2.3852
17807TIP3   OH274911   1.975   2.757   5.594  0.2140 -0.4130  0.0135
17807TIP3    H174912   2.018   2.770   5.510 -0.1254  0.5030 -0.0191
17807TIP3    H274913   1.919   2.680   5.581  1.0050 -0.9498 -0.2609
17808TIP3   OH274914   0.986   1.908   4.586 -0.2853 -0.3571  0.0418
17808TIP3    H174915   1.019   1.985   4.541  2.1377 -1.1043  0.4917
17808TIP3    H274916   1.006   1.923   4.679  0.1691 -1.5029  0.1397
17809TIP3   OH274917   7.341   2.213   4.464  0.1361 -1.0367  0.3200
17809TIP3    H174918   7.397   2.289   4.451 -1.3904  0.1349  0.6003
17809TIP3    H274919   7.260   2.232   4.418 -0.2191 -2.5491  0.2642
17810TIP3   OH274920   0.604   3.634   3.600 -0.2304  0.2081  0.0943
17810TIP3    H174921   0.646   3.554   3.633 -0.4438  0.5697  1.2691
17810TIP3    H274922   0.573   3.679   3.678 -0.5712  1.1976 -0.5967
17811TIP3   OH274923   2.333   2.851   4.350  0.2387  0.3173  0.1338
17811TIP3    H174924   2.298   2.819   4.433 -1.0499 -0.5715 -0.7342
17811TIP3    H274925   2.255   2.873   4.299  0.9929 -0.3008 -1.2924
17812TIP3   OH274926   1.238   3.651   4.751  0.4547  0.2626 -0.4322
17812TIP3    H174927   1.166   3.617   4.698  2.3855  0.2406 -3.2099
17812TIP3    H274928   1.306   3.583   4.745  0.6184  0.1446  2.3680
17813TIP3   OH274929   2.145   4.194   5.052  0.4515 -0.2915  0.2120
17813TIP3    H174930   2.182   4.107   5.036  0.3324 -0.2001 -0.6100
17813TIP3    H274931   2.188   4.224   5.131 -0.0078 -1.3779  0.8824
17814TIP3   OH274932   0.489   4.719   6.071  0.3554  0.2505  0.0613
17814TIP3    H174933   0.489   4.815   6.080 -0.0096  0.3375 -0.8795
17814TIP3    H274934   0.414   4.700   6.015  0.5270 -0.5799  0.1143
17815TIP3   OH274935   4.430   4.415   3.074 -0.2617 -0.2465  0.2023
17815TIP3    H174936   4.383   4.499   3.074  1.2441  0.6228 -0.3264
17815TIP3    H274937   4.405   4.374   3.156  1.4403  2.1971  2.0503
17816TIP3   OH274938   3.272   2.312   5.410  0.1801  0.2813 -0.1907
17816TIP3    H174939   3.214   2.339   5.339 -0.2831  0.6115  0.3087
17816TIP3    H274940   3.309   2.228   5.381 -0.8731 -0.1391 -0.3255
17817TIP3   OH274941   0.207   2.246   5.155  0.3962 -0.0620  0.2242
17817TIP3    H174942   0.141   2.206   5.212  1.3488 -0.7988  0.8288
17817TIP3    H274943   0.222   2.332   5.193  0.5299 -0.2896  0.6968
17818TIP3   OH274944   1.577   0.485   4.368  0.1834 -0.0774 -0.5012
17818TIP3    H174945   1.665   0.447   4.373  0.9021  1.3828 -1.5663
17818TIP3    H274946   1.591   0.573   4.334 -1.5082  0.9226  1.3148
17819TIP3   OH274947   2.680   4.504   4.411  0.3282  0.2492  0.2533
17819TIP3    H174948   2.615   4.497   4.341  0.7355  0.0832 -0.1114
17819TIP3    H274949   2.710   4.595   4.407 -1.5057  0.9418  1.8868
17820TIP3   OH274950   3.330   4.048   3.038  0.0864  0.0462  0.1772
17820TIP3    H174951   3.419   4.033   3.008 -0.7376 -0.4623 -2.0625
17820TIP3    H274952   3.320   3.991   3.114  1.2435 -0.8412 -0.3269
17821TIP3   OH274953   1.825   3.831   4.878  0.0980  0.7490 -0.1642
17821TIP3    H174954   1.913   3.798   4.858 -0.6523 -2.7483  1.9481
17821TIP3    H274955   1.777   3.824   4.796  0.9502 -0.1827 -0.5866
17822TIP3   OH274956   7.130   3.522   3.863 -0.1311 -0.0007  0.4273
17822TIP3    H174957   7.156   3.502   3.773  0.9156  0.6609  0.5730
17822TIP3    H274958   7.041   3.489   3.870 -0.5540  0.7776 -1.1348
17823TIP3   OH274959   2.159   2.558   6.282  0.2917 -0.0865 -0.6176
17823TIP3    H174960   2.134   2.474   6.243  1.7162  0.1977 -2.1857
17823TIP3    H274961   2.102   2.622   6.238  1.9495  0.2430 -2.3340
17824TIP3   OH274962   3.091   6.874   4.978 -0.2437  0.0575  0.1235
17824TIP3    H174963   3.162   6.810   4.985 -0.3285  0.0977  1.4991
17824TIP3    H274964   3.106   6.934   5.051 -1.9564 -0.1979  0.6966
17825TIP3   OH274965   6.924   3.118   4.860  0.3369  1.0189 -0.0896
17825TIP3    H174966   7.006   3.165   4.847  0.6067  0.3841 -0.7599
17825TIP3    H274967   6.930   3.043   4.800 -1.8050  2.3253 -2.0429
17826TIP3   OH274968   1.110   1.623   4.747  0.6674 -0.4291 -0.0251
17826TIP3    H174969   1.094   1.717   4.743  0.9355 -0.2523  2.4856
17826TIP3    H274970   1.025   1.585   4.770  0.9503 -0.6375  0.6800
17827TIP3   OH274971   2.435   1.413   4.743 -0.6112  0.5248  0.2646
17827TIP3    H174972   2.452   1.486   4.803  1.0284  0.8579 -0.5723
17827TIP3    H274973   2.508   1.353   4.758 -0.7274  0.1392 -0.6893
17828TIP3   OH274974   2.031   2.784   5.285 -0.1966  0.1687 -0.5056
17828TIP3    H174975   1.948   2.754   5.248 -0.4583 -0.6997  0.7513
17828TIP3    H274976   2.056   2.858   5.231 -2.1301  0.8474 -0.4943
17829TIP3   OH274977   2.142   2.706   6.534  0.3298  0.2166  0.0089
17829TIP3    H174978   2.175   2.657   6.460 -0.0741  0.4931 -0.3540
17829TIP3    H274979   2.089   2.644   6.584  1.5244 -0.2759  0.6842
17830TIP3   OH274980   3.223   1.871   5.323  0.8500  0.4096 -0.5346
17830TIP3    H174981   3.262   1.809   5.384  1.1832 -0.1428 -1.2992
17830TIP3    H274982   3.290   1.940   5.313  0.9377  0.3234 -0.5435
17831TIP3   OH274983   6.207   2.865   5.657 -0.0485  0.9746  0.4315
17831TIP3    H174984   6.188   2.825   5.572 -2.5017  1.5992  0.6441
17831TIP3    H274985   6.189   2.796   5.721  2.1559  0.3866  0.4642
17832TIP3   OH274986   0.482   2.949   4.229 -0.5180  0.2742 -0.6085
17832TIP3    H174987   0.438   2.906   4.302 -1.6413 -0.5154 -1.7316
17832TIP3    H274988   0.448   3.039   4.229  0.8449  0.8138  0.9312
17833TIP3   OH274989   1.749   1.862   5.687 -0.0316  0.1610  0.4135
17833TIP3    H174990   1.841   1.878   5.708  0.4250 -0.5147 -0.9932
17833TIP3    H274991   1.703   1.938   5.722  1.2643  1.3297 -0.3629
17834TIP3   OH274992   3.909   2.666   4.454 -0.4760 -0.1824  0.1195
17834TIP3    H174993   3.922   2.644   4.362 -0.0690 -1.2846  0.4352
17834TIP3    H274994   3.898   2.581   4.498 -1.2932  0.3597  0.9947
17835TIP3   OH274995   7.091   2.982   5.416  0.3438  0.2010 -0.1509
17835TIP3    H174996   7.005   2.984   5.374 -0.0857 -0.2079  0.6880
17835TIP3    H274997   7.146   3.038   5.362 -0.0214 -0.8347 -1.6152
17836TIP3   OH274998   2.897   6.879   4.494 -0.3741  0.5274 -0.4944
17836TIP3    H174999   2.841   6.823   4.548 -0.2142  0.1553 -0.7080
17836TIP3    H275000   2.840   6.911   4.424 -0.3295  0.1881 -0.6846
17837TIP3   OH275001   6.608   1.700   5.468 -0.0751 -0.1520  0.0376
17837TIP3    H175002   6.560   1.775   5.504 -0.8933 -0.4889 -0.3286
17837TIP3    H275003   6.650   1.660   5.545 -1.4529 -0.6057  0.5904
17838TIP3   OH275004   7.291   3.153   3.866 -0.1779  0.3399 -0.0639
17838TIP3    H175005   7.338   3.214   3.809 -1.0086  0.3604 -0.7400
17838TIP3    H275006   7.265   3.206   3.941  0.4915  0.4305  0.1131
17839TIP3   OH275007   1.845   3.567   2.129  0.0019 -0.1435 -0.6745
17839TIP3    H175008   1.882   3.535   2.046  1.2196  0.7464 -0.4895
17839TIP3    H275009   1.904   3.534   2.196 -0.0993  0.4699 -0.2840
17840TIP3   OH275010   2.182   6.064   5.124  0.1936 -0.4009 -0.4325
17840TIP3    H175011   2.277   6.074   5.124  0.2945 -0.9371 -2.6259
17840TIP3    H275012   2.156   6.077   5.215  2.2393  0.8661 -0.0020
17841TIP3   OH275013   1.228   2.114   4.249  0.2442 -0.0765 -0.4131
17841TIP3    H175014   1.322   2.131   4.237  0.1057  1.2548  0.3148
17841TIP3    H275015   1.208   2.046   4.185  1.5279  0.2322 -1.1673
17842TIP3   OH275016   6.854   4.574   6.009 -0.0526  0.0882 -0.0887
17842TIP3    H175017   6.797   4.499   6.027  0.8013 -0.6437 -0.3750
17842TIP3    H275018   6.859   4.621   6.092 -1.4368  0.4248 -0.1815
17843TIP3   OH275019   6.150   4.392   4.586 -0.2088 -0.0737  0.1045
17843TIP3    H175020   6.238   4.359   4.571  0.1517  1.2157 -0.6251
17843TIP3    H275021   6.145   4.473   4.537 -1.2879  0.6809  1.4131
17844TIP3   OH275022   0.229   5.207   5.672 -0.1581  0.5051 -0.3769
17844TIP3    H175023   0.195   5.293   5.649 -0.2515  0.6330  0.2370
17844TIP3    H275024   0.274   5.220   5.756 -1.3233 -0.3199  0.3796
17845TIP3   OH275025   0.769   3.743   5.780 -0.0482 -0.3029  0.1051
17845TIP3    H175026   0.775   3.654   5.813  1.5722  0.3257  1.5508
17845TIP3    H275027   0.824   3.795   5.838  0.0427  1.4429 -1.4624
17846TIP3   OH275028   6.753   2.977   1.363 -0.7327  0.1484  0.1743
17846TIP3    H175029   6.754   2.907   1.297 -0.8274  0.7730 -0.5010
17846TIP3    H275030   6.832   2.962   1.414 -0.4041 -0.0616 -0.3870
17847TIP3   OH275031   6.294   3.249   4.916 -0.3857 -0.0221  0.5308
17847TIP3    H175032   6.352   3.270   4.842 -0.8253  0.8318  0.4259
17847TIP3    H275033   6.308   3.155   4.931 -1.0232 -0.4319 -1.2955
17848TIP3   OH275034   0.221   5.669   4.806 -0.4901  0.5270  0.0562
17848TIP3    H175035   0.275   5.592   4.824 -2.4690 -0.7738  0.5269
17848TIP3    H275036   0.226   5.722   4.886  0.3466  0.6057 -0.0374
17849TIP3   OH275037   0.681   3.169   5.471 -0.2026 -0.3152  0.0839
17849TIP3    H175038   0.718   3.135   5.390 -1.1314  1.3795 -1.0953
17849TIP3    H275039   0.729   3.251   5.486 -1.8004  0.6912 -0.1767
17850TIP3   OH275040   0.393   4.141   4.654 -0.1239  0.0927 -0.1873
17850TIP3    H175041   0.481   4.153   4.689 -0.5752 -0.8180  1.3185
17850TIP3    H275042   0.399   4.062   4.601 -0.0409  0.0126 -0.0586
17851TIP3   OH275043   2.003   1.382   6.200  0.2398  0.0955 -0.7230
17851TIP3    H175044   1.910   1.372   6.222  0.1389  0.0051 -1.1954
17851TIP3    H275045   2.013   1.339   6.115  0.8781 -0.5971 -0.3104
17852TIP3   OH275046   0.465   1.521   4.898  0.2264  0.3619  0.2498
17852TIP3    H175047   0.451   1.591   4.834  0.8168  0.7998  0.5898
17852TIP3    H275048   0.511   1.564   4.970 -0.0387 -0.2284  0.7721
17853TIP3   OH275049   7.181   2.254   5.980 -0.3070 -0.4309 -0.1345
17853TIP3    H175050   7.107   2.314   5.991 -1.3167 -1.9056  1.4094
17853TIP3    H275051   7.254   2.297   6.024 -1.1155 -0.4867  1.2756
17854TIP3   OH275052   0.260   1.569   3.787  0.1155  0.2476  0.3222
17854TIP3    H175053   0.185   1.510   3.787  0.0481  0.3286  0.8440
17854TIP3    H275054   0.246   1.624   3.864  0.3730  0.6920  0.0512
17855TIP3   OH275055   5.583   1.910   4.149 -0.4398  0.1849  0.0066
17855TIP3    H175056   5.606   1.978   4.212  0.2236  0.4171 -0.4857
17855TIP3    H275057   5.547   1.839   4.202 -0.3920  0.6002  0.5952
17856TIP3   OH275058   1.965   2.085   4.246  0.2235 -0.1430 -0.4283
17856TIP3    H175059   1.977   2.143   4.321 -0.1035 -0.9788  0.2776
17856TIP3    H275060   2.051   2.082   4.204  0.6622 -0.4380  0.4713
17857TIP3   OH275061   2.583   2.087   4.280 -0.0998  0.1837 -0.1727
17857TIP3    H175062   2.554   2.006   4.237  1.2895 -0.1587 -0.4935
17857TIP3    H275063   2.631   2.134   4.212  1.2695  0.0964  0.7082
17858TIP3   OH275064   0.924   2.365   2.762  0.2345  0.1352  0.2280
17858TIP3    H175065   1.018   2.347   2.758  0.4864  1.7357 -1.9624
17858TIP3    H275066   0.917   2.460   2.768 -1.2448  0.0800 -0.2511
17859TIP3   OH275067   5.747   3.096   4.996 -0.0441 -0.5234 -0.4213
17859TIP3    H175068   5.783   3.100   4.908  1.8680  1.6466  0.4088
17859TIP3    H275069   5.824   3.095   5.054 -1.2424 -2.3651  1.2322
17860TIP3   OH275070   6.690   0.741   3.621  0.7926  0.3089  0.5166
17860TIP3    H175071   6.757   0.677   3.647  1.9892  0.7064 -1.4864
17860TIP3    H275072   6.648   0.702   3.545 -1.0263  0.2420  1.5375
17861TIP3   OH275073   0.100   3.146   3.444  0.1051  0.4007  0.2035
17861TIP3    H175074   0.186   3.111   3.423  0.2033  0.6541  0.1868
17861TIP3    H275075   0.055   3.151   3.360  0.6569  1.8444 -0.0145
17862TIP3   OH275076   7.050   1.960   1.583  0.2025 -0.5439  0.1437
17862TIP3    H175077   7.122   2.020   1.562  0.9814 -2.1117 -1.7985
17862TIP3    H275078   6.982   2.017   1.618  2.1476  1.0593  1.4966
17863TIP3   OH275079   0.810   2.680   5.114  0.0993 -0.3318  0.7175
17863TIP3    H175080   0.753   2.649   5.043  0.4581  0.5664  0.0351
17863TIP3    H275081   0.752   2.683   5.191 -0.2228 -1.5704  0.5322
17864TIP3   OH275082   6.655   0.963   4.167 -0.7335 -0.0472 -0.5878
17864TIP3    H175083   6.712   0.938   4.240 -1.5813 -0.4299 -0.0619
17864TIP3    H275084   6.637   0.881   4.120 -0.6767  0.1071 -0.8846
17865TIP3   OH275085   3.073   3.705   4.902  0.6487  0.2366  0.3667
17865TIP3    H175086   3.011   3.632   4.915  0.8205  0.3819  2.0811
17865TIP3    H275087   3.120   3.682   4.822 -0.7341 -0.5128 -0.2563
17866TIP3   OH275088   0.345   3.010   3.469 -0.2598  0.6200  0.5337
17866TIP3    H175089   0.352   2.956   3.548  1.7213  0.3480  0.2003
17866TIP3    H275090   0.340   2.947   3.397  0.9096  0.8795  0.2257
17867TIP3   OH275091   2.330   7.103   5.088  0.4466 -0.0845 -0.0691
17867TIP3    H175092   2.247   7.147   5.068  0.0564 -0.7324  0.1320
17867TIP3    H275093   2.391   7.137   5.022 -0.3749 -0.8147 -1.2284
17868TIP3   OH275094   2.065   1.647   6.202 -0.1140 -0.1992  0.3673
17868TIP3    H175095   2.141   1.659   6.260 -0.3028 -0.0939  0.5954
17868TIP3    H275096   2.059   1.552   6.190 -0.1102 -0.2253  0.5686
17869TIP3   OH275097   2.783   0.910   4.671 -0.2065 -0.1224  0.0387
17869TIP3    H175098   2.688   0.901   4.675 -0.1189 -0.1381  2.3466
17869TIP3    H275099   2.817   0.840   4.727  1.0535  1.5225  1.3899
17870TIP3   OH275100   3.083   4.061   5.420  0.2034 -0.0519  0.7492
17870TIP3    H175101   3.067   4.125   5.490  1.7498 -0.8102  1.8372
17870TIP3    H275102   3.008   4.070   5.361  0.0885  2.3464  1.1928
17871TIP3   OH275103   0.151   3.192   4.343  0.1038 -0.1242 -0.6051
17871TIP3    H175104   0.065   3.173   4.306 -0.8318  2.9704 -0.1055
17871TIP3    H275105   0.202   3.227   4.269 -0.2368  1.5105 -0.0707
17872TIP3   OH275106   2.840   2.214   2.805 -0.6021  0.4364  0.1520
17872TIP3    H175107   2.851   2.186   2.896 -1.6091 -0.8414 -0.0983
17872TIP3    H275108   2.746   2.224   2.794 -0.5136  0.2099 -0.8614
17873TIP3   OH275109   0.587   2.691   4.498  0.5248  0.2451 -0.0158
17873TIP3    H175110   0.498   2.700   4.464  0.3213 -0.6773  0.2654
17873TIP3    H275111   0.642   2.688   4.419  0.1997 -0.2760 -0.2309
17874TIP3   OH275112   2.509   2.828   5.279  0.0996  0.2435  0.3046
17874TIP3    H175113   2.567   2.752   5.287 -1.3150 -1.1501 -2.1263
17874TIP3    H275114   2.422   2.791   5.268 -0.8273  2.2623  0.6869
17875TIP3   OH275115   0.640   4.049   4.695 -0.0545  0.2677  0.5638
17875TIP3    H175116   0.623   4.089   4.781 -1.2034 -0.5044  0.7044
17875TIP3    H275117   0.719   3.997   4.708  0.2074  0.7557  0.9480
17876TIP3   OH275118   3.014   5.386   5.218 -0.1979  0.2130  0.4756
17876TIP3    H175119   3.105   5.355   5.211  0.5937  2.5508 -0.1626
17876TIP3    H275120   2.968   5.316   5.264  1.5922 -1.6628 -0.5246
17877TIP3   OH275121   2.094   2.005   3.885 -0.6375 -0.1146 -0.3917
17877TIP3    H175122   2.071   2.097   3.875  1.9904  0.5149 -1.0356
17877TIP3    H275123   2.042   1.960   3.818  0.3902  1.3119 -2.2006
17878TIP3   OH275124   1.785   2.505   2.846 -0.5921 -0.6965  0.5235
17878TIP3    H175125   1.804   2.414   2.822 -0.8072 -0.4397 -0.6627
17878TIP3    H275126   1.798   2.554   2.765  0.2725  0.4525  1.3474
17879TIP3   OH275127   1.880   3.001   4.501 -0.4756 -0.0846 -0.4096
17879TIP3    H175128   1.877   3.001   4.597  1.8248 -2.8836 -0.2815
17879TIP3    H275129   1.797   2.961   4.475  0.2601 -2.3195  0.5466
17880TIP3   OH275130   6.326   2.978   4.006  0.1729 -0.1570  0.0802
17880TIP3    H175131   6.294   2.900   3.961 -0.2527  0.4647 -0.7030
17880TIP3    H275132   6.247   3.016   4.046 -0.0464  1.2267 -1.6205
17881TIP3   OH275133   1.806   2.231   2.705  0.1040  0.1439 -0.9802
17881TIP3    H175134   1.721   2.255   2.669 -0.2570  0.4913  0.0960
17881TIP3    H275135   1.795   2.140   2.733  0.2603  0.0067 -1.3590
17882TIP3   OH275136   2.494   0.759   6.342 -0.0691  0.0630 -0.3187
17882TIP3    H175137   2.587   0.781   6.344  0.0686 -0.6045  0.8020
17882TIP3    H275138   2.492   0.668   6.312 -0.3866  0.1883 -0.6839
17883TIP3   OH275139   2.909   1.498   5.266 -0.2326 -0.4385 -0.4407
17883TIP3    H175140   2.882   1.459   5.183 -0.8075 -1.1229  0.0669
17883TIP3    H275141   2.855   1.577   5.275 -1.0245 -1.0145 -0.1374
17884TIP3   OH275142   0.963   1.856   2.873 -0.1601  0.0865 -0.3125
17884TIP3    H175143   0.949   1.882   2.963  0.0184 -1.5093  0.1909
17884TIP3    H275144   0.966   1.938   2.824 -0.2960  0.9531  1.1208
17885TIP3   OH275145   2.177   3.411   4.521  0.7873  0.4894  0.3081
17885TIP3    H175146   2.171   3.402   4.617 -1.6030 -1.1497  0.0420
17885TIP3    H275147   2.187   3.321   4.490  0.2828  0.9013 -1.0475
17886TIP3   OH275148   4.140   1.514   3.026 -0.1245 -0.0256 -0.1015
17886TIP3    H175149   4.132   1.442   2.964  1.4248  0.4710 -0.9212
17886TIP3    H275150   4.141   1.473   3.112  1.9488 -1.1132 -0.6112
17887TIP3   OH275151   3.699   3.361   2.166 -0.2330 -0.0457  0.0134
17887TIP3    H175152   3.685   3.434   2.105 -0.2196  0.5011  0.6514
17887TIP3    H275153   3.764   3.306   2.123  1.4865  1.5174  0.5081
17888TIP3   OH275154   1.772   2.450   5.325 -0.0357  0.3766 -0.0152
17888TIP3    H175155   1.738   2.381   5.266 -0.4855 -0.1382  0.8389
17888TIP3    H275156   1.725   2.529   5.298  0.9571  0.5060 -1.4395
17889TIP3   OH275157   3.337   4.629   4.414  0.0373 -0.2731  1.1570
17889TIP3    H175158   3.294   4.628   4.328  0.6867  1.1323  0.7953
17889TIP3    H275159   3.301   4.706   4.458 -0.6146 -1.2288  2.3341
17890TIP3   OH275160   2.461   2.612   4.238  0.0266 -0.6670 -0.0087
17890TIP3    H175161   2.401   2.539   4.255 -0.9707  0.3374  0.8311
17890TIP3    H275162   2.421   2.687   4.282  2.2646 -0.1446  1.2256
17891TIP3   OH275163   4.960   3.206   3.792  0.3236  0.3466 -0.0825
17891TIP3    H175164   5.038   3.150   3.796  0.6362  0.8056  0.2585
17891TIP3    H275165   4.952   3.243   3.880  0.1637  0.8952 -0.3251
17892TIP3   OH275166   7.240   1.156   5.334 -0.3986  0.7298 -0.4046
17892TIP3    H175167   7.157   1.198   5.358 -0.7544 -0.6923  0.9228
17892TIP3    H275168   7.292   1.158   5.414  0.5557  0.9044 -1.0193
17893TIP3   OH275169   1.787   4.189   3.608  0.5116  0.2257  0.5211
17893TIP3    H175170   1.715   4.222   3.661 -0.3547  0.3387 -0.6993
17893TIP3    H275171   1.753   4.109   3.568  1.7695 -0.8394  1.5387
17894TIP3   OH275172   6.840   1.332   4.385 -0.0349  0.3737 -0.0325
17894TIP3    H175173   6.757   1.329   4.433  0.5953  0.7490  1.0963
17894TIP3    H275174   6.833   1.411   4.331 -1.1426 -0.5804 -1.3110
17895TIP3   OH275175   3.092   3.547   4.086 -0.4671  0.1145 -0.0554
17895TIP3    H175176   3.048   3.631   4.077  0.0670  0.2426 -1.7556
17895TIP3    H275177   3.053   3.493   4.016 -0.5616 -0.9377  0.7971
17896TIP3   OH275178   3.814   5.177   3.796  0.2776 -0.3143  0.1562
17896TIP3    H175179   3.843   5.087   3.780 -0.7065 -1.0804  2.5211
17896TIP3    H275180   3.891   5.220   3.834  1.0220  0.1094 -1.7827
17897TIP3   OH275181   2.358   2.333   4.139  0.4712  0.3648  0.2357
17897TIP3    H175182   2.264   2.314   4.139  0.2217  1.5114 -1.2888
17897TIP3    H275183   2.396   2.265   4.195 -1.0303 -1.2872 -0.6994
17898TIP3   OH275184   3.516   2.822   6.062  0.3091  0.3360 -0.0531
17898TIP3    H175185   3.605   2.789   6.072  0.3792  0.1284 -1.2753
17898TIP3    H275186   3.465   2.775   6.128  1.4196  1.7712  1.9057
17899TIP3   OH275187   2.018   3.012   1.807  0.6631  0.1299 -0.2730
17899TIP3    H175188   1.954   2.965   1.861  0.8159 -0.4120 -0.5536
17899TIP3    H275189   2.103   2.988   1.844  0.6479  2.5919  1.4969
17900TIP3   OH275190   4.570   4.126   4.178 -0.0600  0.1822  0.0268
17900TIP3    H175191   4.638   4.109   4.243  0.5696  0.2955 -0.5990
17900TIP3    H275192   4.617   4.140   4.096 -0.8190  0.5378 -0.3599
17901TIP3   OH275193   3.221   4.752   3.327 -0.2506  0.0431 -0.0696
17901TIP3    H175194   3.299   4.806   3.333  0.4534 -0.7724 -1.5128
17901TIP3    H275195   3.225   4.695   3.404 -0.1009  0.8551  0.5333
17902TIP3   OH275196   2.859   3.502   5.503 -0.3375 -0.2517  0.5413
17902TIP3    H175197   2.923   3.435   5.477  0.8933  1.1270 -0.0404
17902TIP3    H275198   2.906   3.557   5.566 -1.4388 -0.0896  1.2396
17903TIP3   OH275199   1.758   5.373   3.653  0.0161 -0.5704 -0.7333
17903TIP3    H175200   1.713   5.430   3.589  0.6747  0.1321 -0.5686
17903TIP3    H275201   1.846   5.409   3.659 -0.0539 -0.6137  0.6133
17904TIP3   OH275202   1.813   5.465   5.033  0.1224 -0.3469  0.3915
17904TIP3    H175203   1.831   5.412   4.956  0.7171 -1.4106  1.2478
17904TIP3    H275204   1.751   5.413   5.084  1.1967 -0.5219  1.5455
17905TIP3   OH275205   1.599   2.529   5.601  0.1890 -0.2134 -0.2679
17905TIP3    H175206   1.653   2.450   5.613  0.9693  0.4024  0.3146
17905TIP3    H275207   1.509   2.497   5.610  0.5399 -0.8122  1.4588
17906TIP3   OH275208   1.623   4.463   5.127 -0.0554  0.3598  0.0089
17906TIP3    H175209   1.695   4.524   5.108  1.1412 -0.8696  0.4770
17906TIP3    H275210   1.667   4.380   5.145 -1.6249 -0.4573  0.1269
17907TIP3   OH275211   1.478   3.483   5.177 -0.0468 -0.1963 -0.1667
17907TIP3    H175212   1.426   3.409   5.145 -0.6051 -0.1086  0.5224
17907TIP3    H275213   1.419   3.529   5.237  0.4840  0.4976 -0.1755
17908TIP3   OH275214   2.453   1.762   6.091 -0.7957  0.2928 -0.1481
17908TIP3    H175215   2.519   1.700   6.057 -2.9648 -1.6521 -0.9468
17908TIP3    H275216   2.418   1.719   6.169  0.0532  2.1064  1.2716
17909TIP3   OH275217   3.790   3.313   5.611  0.1008 -0.7088  0.0385
17909TIP3    H175218   3.828   3.335   5.525  0.6535 -0.8078  0.2564
17909TIP3    H275219   3.860   3.332   5.673 -1.2422  2.0926  0.7750
17910TIP3   OH275220   2.275   2.714   5.363  0.2473 -0.0183 -0.0288
17910TIP3    H175221   2.183   2.740   5.359 -0.0216 -1.1132 -1.5474
17910TIP3    H275222   2.272   2.618   5.369  1.2614  0.0631  2.1933
17911TIP3   OH275223   2.427   1.860   5.485  0.2688 -0.0744 -0.1326
17911TIP3    H175224   2.363   1.931   5.484  1.0073  0.6030  0.2868
17911TIP3    H275225   2.458   1.857   5.576  0.9160 -0.3256 -0.3599
17912TIP3   OH275226   3.654   5.096   4.591  0.1338  0.0477  0.1012
17912TIP3    H175227   3.640   5.128   4.502  1.4598 -0.1760 -0.1924
17912TIP3    H275228   3.672   5.002   4.580  2.3205  0.4191  0.4287
17913TIP3   OH275229   1.148   1.061   5.395 -0.1484 -1.3412 -0.1547
17913TIP3    H175230   1.151   0.966   5.392  2.0315 -1.2878 -0.4916
17913TIP3    H275231   1.237   1.088   5.418 -1.1213  0.5645  1.6556
17914TIP3   OH275232   3.657   3.883   3.901 -0.5109 -0.0406 -0.1766
17914TIP3    H175233   3.604   3.814   3.862 -0.8273  1.6078 -2.8333
17914TIP3    H275234   3.739   3.882   3.850 -0.3054  1.1785  0.1055
17915TIP3   OH275235   3.971   4.122   5.818 -0.5093  0.0129  0.3174
17915TIP3    H175236   3.909   4.055   5.846 -1.4186 -0.7974 -3.4253
17915TIP3    H275237   3.925   4.205   5.830 -1.0387 -0.3286  0.6666
17916TIP3   OH275238   2.996   2.645   6.164  0.6728 -0.4571 -0.0010
17916TIP3    H175239   2.976   2.704   6.237  1.3573 -0.5885  0.2918
17916TIP3    H275240   2.964   2.560   6.192  1.2303 -0.5765  0.2883
17917TIP3   OH275241   1.649   4.292   5.599  0.2779 -0.2851 -0.1125
17917TIP3    H175242   1.628   4.237   5.524 -0.7789 -1.3076  0.9167
17917TIP3    H275243   1.582   4.270   5.664  1.6300  0.0396  1.3998
17918TIP3   OH275244   2.423   2.299   3.665 -0.1495  0.3800  0.5179
17918TIP3    H175245   2.383   2.212   3.670  2.2953 -0.7650  1.0381
17918TIP3    H275246   2.484   2.302   3.738  1.0748  1.8625 -0.5237
17919TIP3   OH275247   2.956   5.100   5.082 -0.2687 -0.1617  0.0116
17919TIP3    H175248   2.915   5.121   5.166 -0.4660 -0.2355 -0.0656
17919TIP3    H275249   2.900   5.032   5.045  0.5245 -1.0178  0.3818
17920TIP3   OH275250   2.925   2.884   4.769  0.3163  0.4655  0.5167
17920TIP3    H175251   2.887   2.824   4.833 -1.7116  0.7403 -0.3880
17920TIP3    H275252   2.914   2.840   4.684 -1.5830  2.2490 -0.2095
17921TIP3   OH275253   1.605   0.882   5.212  0.4111 -0.0040 -0.6937
17921TIP3    H175254   1.578   0.956   5.267  3.3957  2.4089 -2.3356
17921TIP3    H275255   1.557   0.895   5.130 -0.0007 -0.6068 -0.5513
17922TIP3   OH275256   3.838   4.190   4.401 -0.0236  0.4921  0.3369
17922TIP3    H175257   3.755   4.224   4.370 -0.3312 -0.3787  0.1974
17922TIP3    H275258   3.829   4.095   4.396  0.8026  0.3825  0.7728
17923TIP3   OH275259   3.988   3.138   5.015 -0.4762  0.6691 -0.1066
17923TIP3    H175260   3.980   3.174   5.103  0.5567 -1.9829  1.1299
17923TIP3    H275261   3.908   3.086   5.003  0.8419 -1.5974  0.5863
17924TIP3   OH275262   3.011   1.295   5.767  0.9840  0.2912  0.2026
17924TIP3    H175263   3.002   1.233   5.839 -0.1175 -0.6550 -0.7409
17924TIP3    H275264   2.941   1.272   5.706  1.2273  1.7773 -0.6674
17925TIP3   OH275265   2.929   5.144   3.755  0.3144 -0.1915 -0.6615
17925TIP3    H175266   2.990   5.209   3.720 -0.5547  0.8844 -0.2059
17925TIP3    H275267   2.842   5.185   3.745 -0.1790 -0.9988  0.2584
17926TIP3   OH275268   2.195   2.397   2.347  0.2590  0.2161  0.1743
17926TIP3    H175269   2.251   2.456   2.397  0.9988 -0.7904  0.5766
17926TIP3    H275270   2.109   2.404   2.387  0.0907  1.7571 -0.4229
17927TIP3   OH275271   3.546   2.813   4.826  0.3777 -0.2456  0.3018
17927TIP3    H175272   3.465   2.859   4.804  0.5288 -0.1451 -0.0632
17927TIP3    H275273   3.522   2.752   4.895  0.1292  0.2330  0.6354
17928TIP3   OH275274   4.228   2.354   5.339 -0.1574 -0.2439 -0.3923
17928TIP3    H175275   4.187   2.439   5.323 -1.8272 -0.7770  0.8433
17928TIP3    H275276   4.209   2.304   5.259 -4.1845 -1.2932  1.0966
17929TIP3   OH275277   2.833   2.056   3.057 -0.3434 -0.1121 -0.1401
17929TIP3    H175278   2.836   1.971   3.013 -3.0084 -0.2799 -0.0665
17929TIP3    H275279   2.870   2.040   3.144  1.8837 -0.5094 -1.1238
17930TIP3   OH275280   3.926   4.924   3.792  0.2241  0.7503 -0.2716
17930TIP3    H175281   3.995   4.985   3.819  0.5485  1.2549 -2.2101
17930TIP3    H275282   3.973   4.851   3.752 -0.2515 -0.1041  0.6969
17931TIP3   OH275283   0.263   0.982   5.321 -0.5814 -0.6940  0.2849
17931TIP3    H175284   0.235   1.040   5.250 -0.1652 -2.2907 -1.2341
17931TIP3    H275285   0.326   1.034   5.370 -1.1401  0.5715 -0.3029
17932TIP3   OH275286   4.162   3.959   2.852  0.1313  0.5464 -0.1445
17932TIP3    H175287   4.110   3.890   2.893  0.2348 -0.1350 -1.1431
17932TIP3    H275288   4.155   3.941   2.758  0.7905  1.4457 -0.3667
17933TIP3   OH275289   0.466   4.029   2.970  0.2788 -0.0973  0.4101
17933TIP3    H175290   0.471   4.056   3.062  2.9740 -1.3401  0.6496
17933TIP3    H275291   0.556   4.011   2.945 -0.4781 -0.1512 -2.3870
17934TIP3   OH275292   2.133   4.041   2.724  0.5759  0.3215  0.3393
17934TIP3    H175293   2.128   4.136   2.714 -0.7371  0.3266  1.0560
17934TIP3    H275294   2.096   4.006   2.643 -1.0359  0.4165  1.0242
17935TIP3   OH275295   2.863   7.314   4.799  0.2098 -0.1843  0.3784
17935TIP3    H175296   2.888   7.226   4.826  1.5874 -0.4490 -1.5663
17935TIP3    H275297   2.935   7.342   4.741 -2.2912  0.4727 -2.5689
17936TIP3   OH275298   2.550   4.346   3.829 -0.0791 -0.3421 -0.2501
17936TIP3    H175299   2.539   4.388   3.914 -0.7460 -1.7320  0.3844
17936TIP3    H275300   2.460   4.334   3.798  0.0393 -2.2341  0.0830
17937TIP3   OH275301   3.323   2.868   5.546  0.0595  0.3098  0.0708
17937TIP3    H175302   3.283   2.781   5.541 -0.4034  0.5449 -0.3829
17937TIP3    H275303   3.250   2.927   5.566  0.2272  0.7071 -0.4847
17938TIP3   OH275304   3.850   0.649   3.511 -0.2253 -0.6044  0.2045
17938TIP3    H175305   3.893   0.732   3.491 -0.3861 -0.4346  0.5710
17938TIP3    H275306   3.919   0.596   3.552 -0.0368 -0.7683 -0.3138
17939TIP3   OH275307   2.759   3.838   3.241 -0.6408  0.3790  0.0713
17939TIP3    H175308   2.773   3.760   3.188 -1.9381 -0.6338  1.1879
17939TIP3    H275309   2.664   3.851   3.241 -0.8851 -0.7394  3.6139
17940TIP3   OH275310   3.990   0.880   3.675  0.0377 -0.0110 -0.0004
17940TIP3    H175311   3.957   0.823   3.745 -2.3477  0.6441 -0.5251
17940TIP3    H275312   3.918   0.942   3.660  1.5892  1.5246 -1.1922
17941TIP3   OH275313   2.949   3.236   3.569  0.2776  0.1895  0.8075
17941TIP3    H175314   2.909   3.321   3.553 -0.1583 -0.1546  0.0632
17941TIP3    H275315   2.952   3.194   3.483 -0.8261 -1.1334  1.4075
17942TIP3   OH275316   3.347   2.779   4.497  0.1352 -0.2317 -0.1330
17942TIP3    H175317   3.387   2.821   4.574  0.8067  0.0495 -0.6238
17942TIP3    H275318   3.420   2.734   4.455 -0.3733 -0.9688 -0.2219
17943TIP3   OH275319   1.108   5.114   3.600  0.2585  0.3841  0.3800
17943TIP3    H175320   1.025   5.161   3.597  1.2922  2.3352  0.9101
17943TIP3    H275321   1.086   5.027   3.633 -1.5658  0.8469  0.4265
17944TIP3   OH275322   2.956   5.865   3.767  0.4929 -0.0042 -0.1034
17944TIP3    H175323   2.890   5.934   3.774 -1.3750 -1.5632 -1.4792
17944TIP3    H275324   2.960   5.846   3.673 -1.1082 -3.6388  0.4844
17945TIP3   OH275325   4.660   4.632   4.585  0.4111  0.0604 -0.0354
17945TIP3    H175326   4.606   4.570   4.535  1.0551  1.6966 -2.8578
17945TIP3    H275327   4.746   4.627   4.544  0.9612  1.5094  0.8919
17946TIP3   OH275328   2.816   3.259   2.417  0.1731 -0.2816 -0.6354
17946TIP3    H175329   2.745   3.199   2.394  1.1997 -1.8720  0.2654
17946TIP3    H275330   2.896   3.209   2.403  1.0606  1.0066 -0.2540
17947TIP3   OH275331   2.621   1.012   5.977  0.2598 -0.0989 -0.0954
17947TIP3    H175332   2.528   1.028   5.963  0.5597  1.9080  0.1334
17947TIP3    H275333   2.661   1.099   5.981  2.2140 -0.9365 -0.6097
17948TIP3   OH275334   2.000   5.580   2.756 -0.7714  0.2580 -0.9235
17948TIP3    H175335   2.057   5.652   2.784 -1.2039  0.2786 -0.0591
17948TIP3    H275336   1.931   5.623   2.705 -1.2778  0.5238 -0.0315
17949TIP3   OH275337   1.351   2.669   3.878  0.3378  0.3198 -0.4601
17949TIP3    H175338   1.342   2.712   3.963 -2.7313 -1.6916  0.3220
17949TIP3    H275339   1.338   2.739   3.815  0.9495  1.5357  0.7275
17950TIP3   OH275340   3.436   1.280   4.511  0.2060 -0.4637 -0.0123
17950TIP3    H175341   3.346   1.293   4.481  0.0717  0.1801  0.6242
17950TIP3    H275342   3.450   1.186   4.509 -0.8461 -0.6483  0.8835
17951TIP3   OH275343   3.161   0.957   4.047 -0.2426  0.2918 -0.2584
17951TIP3    H175344   3.066   0.966   4.042 -0.1065  3.3323  1.8127
17951TIP3    H275345   3.182   0.970   4.139  2.0664 -2.1345 -0.3795
17952TIP3   OH275346   0.836   0.887   4.303  0.6645  0.6443  0.0290
17952TIP3    H175347   0.873   0.945   4.369  0.0139  1.0895  0.0142
17952TIP3    H275348   0.748   0.866   4.336  1.2680 -1.1653  0.5388
17953TIP3   OH275349   1.752   0.787   4.718 -0.1639  0.1515  0.3154
17953TIP3    H175350   1.686   0.840   4.672 -1.8769  0.2366  2.7693
17953TIP3    H275351   1.832   0.839   4.713 -0.4858  0.4926 -1.8847
17954TIP3   OH275352   2.520   3.421   5.348 -0.0072 -0.1316  0.0966
17954TIP3    H175353   2.563   3.383   5.272  1.4525  1.1639  0.2521
17954TIP3    H275354   2.579   3.490   5.377 -1.8253  1.1820  0.7874
17955TIP3   OH275355   1.339   2.124   4.552  0.2961  0.2842 -0.8018
17955TIP3    H175356   1.431   2.128   4.577  0.7003 -0.9560 -2.0458
17955TIP3    H275357   1.340   2.107   4.458 -1.1991  0.0232 -0.7841
17956TIP3   OH275358   3.303   1.867   4.134 -0.6689 -0.6504  0.2698
17956TIP3    H175359   3.324   1.774   4.141  1.0286 -0.1882  1.6592
17956TIP3    H275360   3.216   1.869   4.094  0.2347 -2.7590 -1.9231
17957TIP3   OH275361   2.050   4.445   5.453 -0.0821 -0.2235  0.0959
17957TIP3    H175362   2.002   4.362   5.457 -1.7051  0.7095  0.3373
17957TIP3    H275363   2.040   4.474   5.362 -0.3116  0.1610  0.2422
17958TIP3   OH275364   3.411   4.482   3.922 -0.0745 -0.6157 -0.3091
17958TIP3    H175365   3.431   4.575   3.910 -0.3357 -0.7455 -1.8412
17958TIP3    H275366   3.354   4.479   3.999 -0.5357  0.5474 -0.6018
17959TIP3   OH275367   4.133   5.046   5.401 -0.3632  0.3324 -0.8068
17959TIP3    H175368   4.093   4.969   5.440  0.1370 -0.4833 -1.8751
17959TIP3    H275369   4.062   5.111   5.399 -1.6191 -1.0388 -2.5462
17960TIP3   OH275370   2.432   3.521   4.789 -0.0295 -1.1898  0.3551
17960TIP3    H175371   2.419   3.605   4.745  0.6049 -1.2962 -0.0417
17960TIP3    H275372   2.489   3.471   4.730 -0.8107 -2.0962  0.3416
17961TIP3   OH275373   2.124   2.690   5.833 -0.0663 -0.4269 -0.4681
17961TIP3    H175374   2.191   2.649   5.779 -2.4625 -1.1065 -3.0576
17961TIP3    H275375   2.070   2.740   5.771 -1.0605  1.3400  1.7340
17962TIP3   OH275376   4.435   2.996   5.780 -0.3061 -0.3094  0.7885
17962TIP3    H175377   4.472   3.069   5.828  1.8527 -0.2214 -0.9388
17962TIP3    H275378   4.393   3.036   5.703  0.7495 -0.8399 -0.0821
17963TIP3   OH275379   3.636   2.113   4.148 -0.5843 -0.5415 -0.4589
17963TIP3    H175380   3.592   2.137   4.067 -0.9595 -1.5949 -0.5670
17963TIP3    H275381   3.568   2.119   4.215 -0.6428 -1.1612 -0.4632
17964TIP3   OH275382   2.233   4.231   5.318  0.2637 -0.0598 -0.6949
17964TIP3    H175383   2.193   4.148   5.344  1.5964 -0.5826 -0.2846
17964TIP3    H275384   2.269   4.267   5.399  0.8589  0.2710 -1.1041
17965TIP3   OH275385   1.419   4.550   5.311  0.3245 -0.2667 -0.1856
17965TIP3    H175386   1.452   4.470   5.271  0.5049 -0.1350 -0.3022
17965TIP3    H275387   1.471   4.560   5.391  1.1070  0.3570 -0.7649
17966TIP3   OH275388   0.667   3.114   3.860 -0.2963  0.1468  0.0688
17966TIP3    H175389   0.714   3.180   3.911  1.2217 -1.4806  0.8359
17966TIP3    H275390   0.586   3.100   3.908 -0.3866  1.0339  0.1936
17967TIP3   OH275391   1.623   2.992   5.783 -0.5321 -0.4003  0.4199
17967TIP3    H175392   1.632   2.926   5.851  1.8773 -0.4542  0.1128
17967TIP3    H275393   1.665   3.070   5.819 -1.3970  0.3092 -0.0766
17968TIP3   OH275394   4.232   3.937   4.677 -0.3064 -0.1535 -0.3450
17968TIP3    H175395   4.317   3.953   4.637  0.9321 -1.9978  1.5149
17968TIP3    H275396   4.184   4.019   4.663  2.5124  1.7151  0.4942
17969TIP3   OH275397   3.133   3.514   5.898 -0.0333 -0.5380  0.2121
17969TIP3    H175398   3.081   3.583   5.940  0.4535  0.4210 -0.7548
17969TIP3    H275399   3.169   3.464   5.972  1.3960  1.5655  1.0004
17970TIP3   OH275400   4.979   4.710   4.696 -0.3120 -0.5714 -0.1856
17970TIP3    H175401   4.979   4.752   4.781 -1.6103  0.0070 -0.4669
17970TIP3    H275402   4.997   4.617   4.715  2.6320  0.0699  0.4182
17971TIP3   OH275403   1.208   1.215   6.081 -0.4371 -0.0274  0.1425
17971TIP3    H175404   1.161   1.226   6.164 -1.7732  0.0386 -0.6219
17971TIP3    H275405   1.213   1.303   6.045 -1.3344 -0.2944 -0.6456
17972TIP3   OH275406   3.130   5.079   4.666  0.8559  0.1942 -0.2932
17972TIP3    H175407   3.220   5.112   4.665  0.6496  0.7398 -1.0784
17972TIP3    H275408   3.076   5.158   4.666  0.3590 -0.1485 -1.5142
17973TIP3   OH275409   3.231   5.023   4.092 -0.5190 -0.3239  0.3089
17973TIP3    H175410   3.282   5.104   4.084  0.6287 -0.8747  1.6654
17973TIP3    H275411   3.142   5.052   4.113 -0.1510  0.6028  0.6313
17974TIP3   OH275412   3.406   1.971   4.593 -0.1748  0.2443  0.0569
17974TIP3    H175413   3.324   2.005   4.558 -0.5869  0.0235  0.7984
17974TIP3    H275414   3.474   2.013   4.540 -0.7186  1.3189  0.1892
17975TIP3   OH275415   1.641   4.476   3.351 -0.6382 -1.0815  0.2892
17975TIP3    H175416   1.652   4.537   3.277  2.0605 -1.6213  0.1752
17975TIP3    H275417   1.627   4.533   3.427 -0.7091 -0.4114 -0.2195
17976TIP3   OH275418   2.222   3.598   2.387 -0.0887  0.0068 -0.2314
17976TIP3    H175419   2.274   3.518   2.382 -1.4883 -0.9623  0.3528
17976TIP3    H275420   2.142   3.572   2.435  0.3103  2.2052  1.7220
17977TIP3   OH275421   2.518   4.543   4.872 -0.4345 -0.1719  0.4604
17977TIP3    H175422   2.610   4.533   4.898  0.2187  1.0693 -1.2658
17977TIP3    H275423   2.486   4.615   4.926 -0.5748 -0.9811  1.4748
17978TIP3   OH275424   1.466   1.656   5.292 -0.3766  0.9257 -0.2074
17978TIP3    H175425   1.517   1.708   5.355 -1.6578  1.0404  0.7586
17978TIP3    H275426   1.376   1.662   5.324 -1.3424  2.4785 -3.0887
17979TIP3   OH275427   3.525   1.842   5.929 -0.1076  0.1117  0.0065
17979TIP3    H175428   3.619   1.836   5.949 -0.2144 -0.3912  0.3509
17979TIP3    H275429   3.490   1.756   5.951 -0.3165 -0.3230 -1.8970
17980TIP3   OH275430   4.163   1.240   4.502 -0.2823 -0.2841  0.2298
17980TIP3    H175431   4.189   1.322   4.545 -1.1726  0.1788 -0.0995
17980TIP3    H275432   4.081   1.215   4.546 -0.7785 -0.2299 -0.6564
17981TIP3   OH275433   3.398   1.805   6.179 -0.0233  0.0036  0.5410
17981TIP3    H175434   3.394   1.901   6.176  0.1083  0.0639  2.0172
17981TIP3    H275435   3.313   1.778   6.215  0.4277 -0.3594  1.3479
17982TIP3   OH275436   4.799   2.183   4.907 -0.5281 -0.0552  0.5391
17982TIP3    H175437   4.712   2.151   4.932 -0.4639 -0.7005 -0.0402
17982TIP3    H275438   4.788   2.216   4.818 -0.6611  1.8646  1.2536
17983TIP3   OH275439   2.357   2.650   1.433 -0.5344 -0.3184  0.1522
17983TIP3    H175440   2.380   2.561   1.461 -1.1093 -0.4389  0.2487
17983TIP3    H275441   2.390   2.706   1.504  0.3727 -0.3960 -0.1989
17984TIP3   OH275442   4.244   4.066   5.885  0.5069  0.2412 -0.2611
17984TIP3    H175443   4.215   3.977   5.904  1.0829 -0.0444 -0.6998
17984TIP3    H275444   4.163   4.116   5.872  0.1852 -0.2307 -0.0812
17985TIP3   OH275445   2.533   3.062   6.185 -0.7415  0.3115  0.5311
17985TIP3    H175446   2.583   3.080   6.265 -0.3191  2.3991 -0.1547
17985TIP3    H275447   2.495   3.147   6.161 -0.8769 -0.2867 -1.4662
17986TIP3   OH275448   3.611   3.688   4.766 -0.1861  0.3156 -0.0360
17986TIP3    H175449   3.689   3.719   4.811 -0.4680  0.8388  0.0995
17986TIP3    H275450   3.639   3.674   4.675 -0.1608  1.4008 -0.2048
17987TIP3   OH275451   2.198   0.045   3.226 -0.2125  0.0221  0.2476
17987TIP3    H175452   2.121   0.064   3.172  0.4871  0.7741 -0.4891
17987TIP3    H275453   2.195  -0.050   3.238 -0.3089 -0.1800 -1.2174
17988TIP3   OH275454   5.141   2.727   5.537  0.1083  0.0808  0.0258
17988TIP3    H175455   5.199   2.803   5.539 -1.8987  1.6834 -1.3375
17988TIP3    H275456   5.144   2.693   5.627  1.1354  1.6693  0.6193
17989TIP3   OH275457   1.344   2.796   4.130  0.1298 -0.1765 -0.0154
17989TIP3    H175458   1.281   2.867   4.120  0.3845 -0.0544 -0.8175
17989TIP3    H275459   1.298   2.729   4.180  0.2932  1.0460  1.8008
17990TIP3   OH275460   3.160   1.979   6.045  0.0965  0.6194  0.7362
17990TIP3    H175461   3.253   2.002   6.047  0.3439 -0.0643 -1.6959
17990TIP3    H275462   3.154   1.909   5.980 -1.8206 -0.8126  2.3937
17991TIP3   OH275463   1.755   3.450   0.961 -0.3860  1.0154 -0.3848
17991TIP3    H175464   1.760   3.469   1.055 -0.8101  1.1674 -0.3885
17991TIP3    H275465   1.666   3.477   0.936 -0.1897  1.2074 -0.8805
17992TIP3   OH275466   1.753   2.792   5.198  0.0002 -1.0409  0.3459
17992TIP3    H175467   1.731   2.762   5.286 -1.7945  0.0337  0.2910
17992TIP3    H275468   1.717   2.880   5.193 -0.5558 -1.3595 -1.7157
17993TIP3   OH275469   2.166   3.686   5.905  0.1208 -0.1996  0.4388
17993TIP3    H175470   2.197   3.722   5.988 -0.4273  0.0076  0.5567
17993TIP3    H275471   2.078   3.654   5.924 -0.6107  1.2440 -0.4353
17994TIP3   OH275472   5.277   2.654   4.631  0.3191 -0.2103  0.0312
17994TIP3    H175473   5.296   2.687   4.719  0.9945 -0.5263  0.0132
17994TIP3    H275474   5.235   2.569   4.646 -0.5768  0.2347  0.0633
17995TIP3   OH275475   1.682   3.526   4.554 -0.2100  0.1203  0.6984
17995TIP3    H175476   1.717   3.440   4.574  2.3119  1.2094  1.1128
17995TIP3    H275477   1.624   3.512   4.479  0.9947 -1.7513  0.1066
17996TIP3   OH275478   3.208   2.419   5.135 -0.5149  0.1833  0.3297
17996TIP3    H175479   3.216   2.348   5.071 -2.0727 -1.0171  1.4148
17996TIP3    H275480   3.115   2.441   5.135 -0.2427  1.3671  0.9355
17997TIP3   OH275481   2.064   3.467   4.945  0.3468  0.2587  0.0350
17997TIP3    H175482   2.008   3.443   5.019  0.8653 -1.3822 -0.0905
17997TIP3    H275483   2.152   3.471   4.981  0.6295 -0.7617 -0.5433
17998TIP3   OH275484   1.979   4.017   3.455 -0.1131  0.4768 -0.0995
17998TIP3    H175485   1.888   4.031   3.482  0.0637 -1.0876  1.3706
17998TIP3    H275486   1.975   3.997   3.362 -1.1333  1.8015 -0.3496
17999TIP3   OH275487   2.209   0.725   5.236  0.1990 -0.0239  0.0263
17999TIP3    H175488   2.285   0.738   5.179  0.9046  0.4460  1.0634
17999TIP3    H275489   2.237   0.656   5.297 -1.2114 -1.8534 -1.3447
18000TIP3   OH275490   3.843   4.981   2.273 -0.2940  0.1197 -0.7917
18000TIP3    H175491   3.861   5.075   2.271  0.4783  0.0799  2.2626
18000TIP3    H275492   3.904   4.944   2.209  3.4492  1.1195  2.0441
18001TIP3   OH275493   2.962   4.394   5.143 -0.4871  0.7444  0.1686
18001TIP3    H175494   2.945   4.410   5.235  3.4305 -0.0169  1.1117
18001TIP3    H275495   2.918   4.311   5.124 -1.1860  0.8408  1.3770
18002TIP3   OH275496   3.456   0.589   2.283 -0.6296  0.5199  0.6088
18002TIP3    H175497   3.452   0.578   2.378 -2.7626  1.8332  0.6869
18002TIP3    H275498   3.529   0.651   2.269  1.7681 -2.0725  1.1192
18003TIP3   OH275499   3.190   2.536   4.748 -0.1885  0.8705  0.1217
18003TIP3    H175500   3.123   2.601   4.730 -1.2092 -0.2808 -0.3001
18003TIP3    H275501   3.141   2.455   4.766  0.9951  0.5635  2.1018
18004TIP3   OH275502   5.478   4.090   4.710  0.3847 -0.3251  0.3643
18004TIP3    H175503   5.415   4.144   4.663 -0.2136 -0.2672  1.2138
18004TIP3    H275504   5.508   4.145   4.782  1.5435 -0.2942 -0.1438
18005TIP3   OH275505   4.631   3.224   4.723  0.3350 -0.4797 -0.0406
18005TIP3    H175506   4.585   3.294   4.678  0.0007 -0.1515  0.8116
18005TIP3    H275507   4.562   3.164   4.752  0.6437 -1.3488 -1.0747
18006TIP3   OH275508   2.023   2.698   4.554  0.9672  0.2877 -0.2971
18006TIP3    H175509   1.962   2.681   4.482  0.6644  0.6217 -0.1242
18006TIP3    H275510   2.007   2.790   4.577 -1.5577 -0.7882  2.6027
18007TIP3   OH275511   2.826   2.049   5.577  0.1756 -0.0879  0.5529
18007TIP3    H175512   2.910   2.076   5.613  0.4077 -0.1492  0.0541
18007TIP3    H275513   2.764   2.114   5.610  0.4362  0.0381  0.8019
18008TIP3   OH275514   1.264   3.390   4.171 -0.0337 -0.1904  0.1646
18008TIP3    H175515   1.346   3.341   4.174  0.7059  1.0525  0.7667
18008TIP3    H275516   1.202   3.330   4.131  0.7710 -1.7419  1.1855
18009TIP3   OH275517   3.081   2.095   5.714 -0.3506 -0.1262  0.5102
18009TIP3    H175518   3.172   2.112   5.692 -0.7330  0.0987 -0.9409
18009TIP3    H275519   3.084   2.014   5.765  0.5127 -0.9664 -0.8484
18010TIP3   OH275520   4.272   3.881   4.963  0.0401 -0.3089 -0.2416
18010TIP3    H175521   4.251   3.973   4.974 -1.4589 -0.4436 -1.6374
18010TIP3    H275522   4.253   3.863   4.871  2.7994 -1.4058 -0.6242
18011TIP3   OH275523   2.750   0.409   5.023  0.5580 -0.5265  0.0184
18011TIP3    H175524   2.748   0.361   4.940 -1.6019  0.5308 -0.5790
18011TIP3    H275525   2.684   0.365   5.077  0.9034 -0.2807  0.6389
18012TIP3   OH275526   3.704   0.254   4.366 -0.6349 -0.3895  0.0173
18012TIP3    H175527   3.634   0.216   4.418 -1.5767  1.2512 -0.0234
18012TIP3    H275528   3.775   0.269   4.428 -1.7239  1.4802  0.8605
18013TIP3   OH275529   1.433   1.608   4.099  0.0145  0.2541 -0.3883
18013TIP3    H175530   1.348   1.641   4.126  0.6930  0.6162  1.4094
18013TIP3    H275531   1.436   1.622   4.005 -2.6648 -1.5526 -0.7765
18014TIP3   OH275532   2.895   2.829   6.367  0.2175  0.2392 -0.0440
18014TIP3    H175533   2.803   2.803   6.367  0.6175 -1.2747  0.6230
18014TIP3    H275534   2.897   2.912   6.321 -1.5251  0.4260  0.1834
18015TIP3   OH275535   2.084   2.342   6.147 -0.1205  0.6486  0.0823
18015TIP3    H175536   1.999   2.343   6.102 -0.9630  1.4132  1.6615
18015TIP3    H275537   2.130   2.268   6.108 -1.6951 -0.0728 -0.4671
18016TIP3   OH275538   3.383   6.248   4.758 -0.2529  0.2808  0.8017
18016TIP3    H175539   3.404   6.196   4.836 -0.5229  0.4551  0.9900
18016TIP3    H275540   3.293   6.276   4.770 -0.8032 -0.9797 -0.3058
18017TIP3   OH275541   4.008   4.531   4.887 -0.4311 -0.3811 -0.1475
18017TIP3    H175542   3.988   4.437   4.884  0.3808 -0.5311 -0.9414
18017TIP3    H275543   4.059   4.547   4.808 -1.0437  0.8517 -0.2991
18018TIP3   OH275544   4.110   1.276   2.892  0.0625 -0.6151 -0.1193
18018TIP3    H175545   4.167   1.256   2.817 -0.0685  0.7752 -0.6062
18018TIP3    H275546   4.039   1.212   2.886 -1.1493  0.9022 -2.4950
18019TIP3   OH275547   2.667   7.150   5.951  0.2085  0.0756  0.0280
18019TIP3    H175548   2.704   7.142   6.039  0.8550 -1.5370 -0.3793
18019TIP3    H275549   2.574   7.136   5.962 -0.1233  2.5818  0.8331
18020TIP3   OH275550   0.184   4.470   4.471  0.3779 -0.3517  0.5493
18020TIP3    H175551   0.273   4.453   4.441  0.4341  0.3890  0.2975
18020TIP3    H275552   0.131   4.404   4.426  0.6793 -0.2365  0.0225
18021TIP3   OH275553   3.434   2.536   5.890 -0.1428  0.5219  0.0910
18021TIP3    H175554   3.416   2.525   5.797 -2.3842 -0.3116  0.5792
18021TIP3    H275555   3.358   2.585   5.924 -0.0385 -0.3858  1.7106
18022TIP3   OH275556   4.143   3.110   4.565  0.5396 -0.4338  0.1997
18022TIP3    H175557   4.173   3.093   4.475  0.4698  0.6359 -0.0302
18022TIP3    H275558   4.082   3.039   4.583 -1.7101  0.9496 -1.6747
18023TIP3   OH275559   4.700   3.829   3.333  0.4888 -0.5618  0.1255
18023TIP3    H175560   4.630   3.811   3.395  0.9404  0.7452  1.0238
18023TIP3    H275561   4.755   3.750   3.335 -0.7012 -1.4138 -0.2616
18024TIP3   OH275562   2.773   1.612   4.760  0.3933  0.0410 -0.0179
18024TIP3    H175563   2.721   1.621   4.840  0.0581  1.5758 -0.3797
18024TIP3    H275564   2.750   1.690   4.709  1.1074 -0.5904 -1.3106
18025TIP3   OH275565   2.449   3.772   4.679 -0.1968 -0.0558 -0.1032
18025TIP3    H175566   2.465   3.863   4.703 -0.6395 -0.1281  0.4977
18025TIP3    H275567   2.399   3.776   4.598 -1.4612  0.2823  0.6661
18026TIP3   OH275568   3.756   1.631   4.263  0.6938  0.1370  0.2863
18026TIP3    H175569   3.714   1.685   4.329  1.4583 -1.5752  2.2352
18026TIP3    H275570   3.684   1.597   4.210 -0.0568  0.3407  1.1632
18027TIP3   OH275571   4.440   2.790   4.781  0.3783 -0.5414 -0.4469
18027TIP3    H175572   4.347   2.772   4.771  0.6731 -1.0445 -2.3981
18027TIP3    H275573   4.445   2.886   4.789 -0.3194 -0.5275 -0.1729
18028TIP3   OH275574   1.228   0.208   1.796 -0.4362  0.1926  0.3619
18028TIP3    H175575   1.268   0.274   1.852  0.4846 -0.8679  0.9809
18028TIP3    H275576   1.172   0.257   1.736  1.8730  1.7336 -0.5937
18029TIP3   OH275577   3.381   5.699   4.160 -0.2935  0.5190  0.3158
18029TIP3    H175578   3.462   5.748   4.173  0.1468  0.3301 -1.5568
18029TIP3    H275579   3.410   5.615   4.122 -1.3503  0.4884 -0.4400
18030TIP3   OH275580   0.928   2.423   3.107 -0.3055  0.2422 -0.5633
18030TIP3    H175581   0.915   2.364   3.180 -0.1601  0.4469 -0.3712
18030TIP3    H275582   0.864   2.396   3.042  0.1867 -0.5255 -0.7267
18031TIP3   OH275583   1.928   3.147   5.011  0.8159  0.4371  0.0752
18031TIP3    H175584   1.835   3.143   5.032  1.2846 -0.7009  2.0693
18031TIP3    H275585   1.960   3.225   5.058  0.8729  0.8079 -0.5767
18032TIP3   OH275586   3.779   3.537   5.981  0.4005 -0.3000  0.7177
18032TIP3    H175587   3.793   3.625   6.016 -0.2399 -0.2835  0.9396
18032TIP3    H275588   3.687   3.536   5.954  0.9605 -0.1930 -1.3018
18033TIP3   OH275589   5.582   3.334   2.193  0.3473  0.0975  0.6497
18033TIP3    H175590   5.622   3.420   2.181  0.3035  0.1499  0.8721
18033TIP3    H275591   5.653   3.279   2.226  0.9485 -0.5273 -1.6326
18034TIP3   OH275592   2.390   1.256   5.360  0.6345  0.1928 -0.3453
18034TIP3    H175593   2.306   1.235   5.318  1.2976 -0.6376 -1.2887
18034TIP3    H275594   2.371   1.252   5.453 -0.7869  1.7158 -0.5521
18035TIP3   OH275595   3.888   1.417   4.343 -0.4646  0.6524  0.7954
18035TIP3    H175596   3.820   1.476   4.310 -1.7409 -1.5242 -0.5345
18035TIP3    H275597   3.969   1.468   4.336 -1.5355  2.2436 -0.3366
18036TIP3   OH275598   1.928   2.484   5.559 -0.4748  0.0883 -0.3991
18036TIP3    H175599   1.887   2.456   5.478 -0.7119 -1.5741  0.2827
18036TIP3    H275600   1.875   2.444   5.628 -0.9006  2.3206  0.6110
18037TIP3   OH275601   2.102   1.791   5.491 -0.4269  0.0447 -0.0993
18037TIP3    H175602   2.195   1.801   5.475 -0.6083  1.3211 -0.4133
18037TIP3    H275603   2.093   1.785   5.586 -0.2728  2.8327  0.1313
18038TIP3   OH275604   3.399   2.929   5.288 -0.2852 -0.0646 -0.6056
18038TIP3    H175605   3.370   2.896   5.373 -0.2555  0.8697 -0.2256
18038TIP3    H275606   3.415   3.022   5.302 -1.2376  0.3165 -1.8806
18039TIP3   OH275607   4.481   2.316   4.517 -0.3151  0.1492 -0.4811
18039TIP3    H175608   4.391   2.319   4.486  0.0520 -1.0406 -1.6921
18039TIP3    H275609   4.492   2.397   4.567 -2.1342  0.1595 -0.0710
18040TIP3   OH275610   2.304   2.982   2.153 -0.1732 -0.2099  0.5168
18040TIP3    H175611   2.334   3.039   2.224 -2.9734  0.2689  1.3847
18040TIP3    H275612   2.208   2.988   2.156 -0.3765 -0.9364 -2.7148
18041TIP3   OH275613   5.256   1.625   3.072 -0.9503  0.2759 -0.2433
18041TIP3    H175614   5.245   1.620   3.167 -2.8818  0.3345 -0.4381
18041TIP3    H275615   5.308   1.704   3.057 -1.3586  0.7291  0.7216
18042TIP3   OH275616   3.546   4.209   5.084  0.1169  0.3241  0.2503
18042TIP3    H175617   3.600   4.185   5.159 -0.6223  0.6582  0.8968
18042TIP3    H275618   3.497   4.129   5.064 -1.5665  0.9629  1.7396
18043TIP3   OH275619   5.177   2.539   5.742  0.2737  0.1888  0.5175
18043TIP3    H175620   5.120   2.493   5.679  0.9926 -1.0933  0.7728
18043TIP3    H275621   5.225   2.468   5.785  0.7708  1.1570  1.5517
18044TIP3   OH275622   3.249   2.635   6.052  0.1540 -0.2468 -0.5490
18044TIP3    H175623   3.160   2.639   6.088 -0.1777  1.6681 -1.5281
18044TIP3    H275624   3.306   2.634   6.129 -0.6573  0.7183  0.0844
18045TIP3   OH275625   2.295   1.075   4.255 -0.0337 -0.0541  0.0892
18045TIP3    H175626   2.249   1.114   4.330 -0.3050 -1.3755  0.6406
18045TIP3    H275627   2.387   1.073   4.281  0.2264  1.7284 -0.6285
18046TIP3   OH275628   1.505   2.153   4.212 -0.0865  0.0979 -0.1382
18046TIP3    H175629   1.569   2.086   4.238  0.1201 -0.4189 -1.8878
18046TIP3    H275630   1.538   2.234   4.250  0.9368 -0.3850  0.0260
18047TIP3   OH275631   3.361   5.108   2.667  0.0525  0.7082 -0.6510
18047TIP3    H175632   3.300   5.039   2.694  0.5493 -0.1599 -1.7297
18047TIP3    H275633   3.428   5.109   2.736 -0.0649  0.2412 -0.5308
18048TIP3   OH275634   3.908   2.033   4.191 -0.1960 -0.2151 -0.0925
18048TIP3    H175635   3.818   2.063   4.177 -0.5065 -0.5174  1.2662
18048TIP3    H275636   3.909   1.996   4.279  0.6680 -2.4517 -1.0010
18049TIP3   OH275637   1.580   3.440   2.481 -0.4764 -0.3988 -0.3264
18049TIP3    H175638   1.502   3.419   2.533 -0.0856 -0.2036  0.3565
18049TIP3    H275639   1.556   3.519   2.432  0.2492  1.4243  2.1250
18050TIP3   OH275640   2.695   4.094   6.185 -0.3377  0.2767 -0.1545
18050TIP3    H175641   2.724   4.006   6.162 -2.2710 -0.7087  1.0264
18050TIP3    H275642   2.625   4.113   6.123 -3.3154 -1.0701  2.6290
18051TIP3   OH275643   3.666   1.698   5.669 -0.0845 -0.5617  0.0367
18051TIP3    H175644   3.632   1.783   5.696 -0.1022 -1.2874  2.4172
18051TIP3    H275645   3.753   1.692   5.709 -0.4781 -2.0441  0.7244
18052TIP3   OH275646   2.087   4.808   3.984  0.0638  0.4304 -0.0886
18052TIP3    H175647   2.000   4.775   4.004  0.6909 -1.2402 -0.1002
18052TIP3    H275648   2.094   4.889   4.036 -1.7867  1.0273 -0.7288
18053TIP3   OH275649   3.612   1.302   4.116  0.0944 -0.0594 -0.1478
18053TIP3    H175650   3.610   1.397   4.117  2.4651  0.0192  0.5587
18053TIP3    H275651   3.665   1.280   4.039 -0.7332 -0.8241 -0.5081
18054TIP3   OH275652   3.625   2.641   5.080 -0.3185 -0.1478 -0.6279
18054TIP3    H175653   3.543   2.601   5.111 -0.1677  0.7919  1.0587
18054TIP3    H275654   3.693   2.581   5.110 -0.4155 -1.2701 -2.6058
18055TIP3   OH275655   4.462   4.764   4.207  0.2938  0.7261 -0.1822
18055TIP3    H175656   4.544   4.790   4.165  0.8443 -1.2915 -0.4344
18055TIP3    H275657   4.420   4.846   4.232  2.3807  1.7989 -0.0899
18056TIP3   OH275658   2.541   3.331   4.310 -0.0111  0.2990 -0.3874
18056TIP3    H175659   2.601   3.263   4.279  0.3357  0.7195 -0.6471
18056TIP3    H275660   2.580   3.413   4.279 -1.1036  0.5269 -1.1879
18057TIP3   OH275661   0.620   2.554   4.948 -0.8778 -0.0952  0.3016
18057TIP3    H175662   0.599   2.542   4.855  1.0521  0.1063 -0.1858
18057TIP3    H275663   0.595   2.472   4.990  0.4696 -1.1103 -0.8244
18058TIP3   OH275664   2.517   1.664   3.573 -0.5205 -0.3677 -0.5810
18058TIP3    H175665   2.590   1.726   3.570 -0.7421 -0.0673  0.0303
18058TIP3    H275666   2.439   1.720   3.573 -0.8075 -0.7106 -2.6244
18059TIP3   OH275667   0.592   3.565   4.838 -0.4385 -0.0229  0.2560
18059TIP3    H175668   0.583   3.660   4.846  0.5023  0.3258 -2.4097
18059TIP3    H275669   0.686   3.549   4.851 -0.1373 -0.2478 -1.9731
18060TIP3   OH275670   2.529   2.370   3.915 -0.1039  0.2214 -0.1221
18060TIP3    H175671   2.487   2.345   3.997 -1.4520  0.7724 -0.6244
18060TIP3    H275672   2.564   2.457   3.931 -0.1323  0.2164 -0.0340
18061TIP3   OH275673   3.319   2.449   5.646  0.1383 -0.2603 -0.6913
18061TIP3    H175674   3.305   2.384   5.715 -1.8840 -0.1263 -0.9406
18061TIP3    H275675   3.314   2.399   5.564 -1.0984  0.1213 -0.8699
18062TIP3   OH275676   2.774   6.949   3.940 -0.4363  0.1943  0.4648
18062TIP3    H175677   2.776   7.030   3.889 -1.1899  1.2236  2.0221
18062TIP3    H275678   2.692   6.954   3.989 -0.0334 -1.0719  1.2815
18063TIP3   OH275679   3.942   1.753   3.527  0.4639 -0.0173 -0.7148
18063TIP3    H175680   3.935   1.810   3.603  2.5866 -2.1038  1.0995
18063TIP3    H275681   3.989   1.806   3.462  0.5309  1.0225  0.1758
18064TIP3   OH275682   2.753   6.280   3.250 -0.0890  0.3352  0.3234
18064TIP3    H175683   2.681   6.244   3.303 -0.0464 -1.3887 -0.7416
18064TIP3    H275684   2.728   6.259   3.159  2.7829 -2.2441  0.0588
18065TIP3   OH275685   3.901   3.305   4.248  0.2763 -0.7301  0.2016
18065TIP3    H175686   3.807   3.319   4.243  0.4031  0.0629  0.0755
18065TIP3    H275687   3.933   3.375   4.305  1.3353  1.5187 -2.9799
18066TIP3   OH275688   3.435   0.556   4.043  0.1196 -0.1291  0.0540
18066TIP3    H175689   3.476   0.490   4.099 -0.1529 -0.8651 -0.5981
18066TIP3    H275690   3.464   0.534   3.955 -0.8020  0.0039 -0.2872
18067TIP3   OH275691   3.270   2.051   5.019  0.0789  0.0494  0.0638
18067TIP3    H175692   3.279   2.013   5.106 -1.3476 -1.3622 -0.3818
18067TIP3    H275693   3.324   1.996   4.963 -1.8516 -1.2738 -0.5523
18068TIP3   OH275694   1.963   4.220   3.047  0.5959 -0.1014  0.3288
18068TIP3    H175695   1.995   4.183   2.965 -0.6726  0.2690 -0.3400
18068TIP3    H275696   2.042   4.230   3.101  1.2104 -1.9334 -0.1987
18069TIP3   OH275697   3.605   1.883   2.914 -0.7487 -0.1585  0.1341
18069TIP3    H175698   3.589   1.976   2.897 -0.2957 -0.0153  0.4980
18069TIP3    H275699   3.683   1.862   2.863 -0.1978 -0.0670  0.9388
18070TIP3   OH275700   2.199   2.979   4.595  0.3197 -0.6887 -0.1586
18070TIP3    H175701   2.148   3.024   4.528 -1.2569  0.5286  1.8171
18070TIP3    H275702   2.256   3.046   4.632 -1.4403 -0.4501  2.2238
18071TIP3   OH275703   3.551   3.364   4.540  0.3220  0.3865  0.7669
18071TIP3    H175704   3.487   3.407   4.597  1.4283  0.5817  1.8758
18071TIP3    H275705   3.612   3.434   4.517  1.1484 -0.2055  1.1686
18072TIP3   OH275706   3.605   2.537   2.758  0.2700 -0.2401 -0.3303
18072TIP3    H175707   3.526   2.517   2.808  0.0899 -1.5881 -1.1426
18072TIP3    H275708   3.587   2.507   2.670  1.2502  0.5447 -0.8184
18073TIP3   OH275709   2.850   1.804   5.426  0.2615  0.5367 -0.0736
18073TIP3    H175710   2.893   1.808   5.341  2.2594 -0.2573  0.8795
18073TIP3    H275711   2.849   1.894   5.457  0.2428  0.7121 -0.5787
18074TIP3   OH275712   1.599   2.937   4.827 -0.2454 -0.1819  0.0195
18074TIP3    H175713   1.577   2.933   4.920 -2.9079 -3.0422 -0.6583
18074TIP3    H275714   1.515   2.951   4.783  0.8479  0.1222 -2.0428
18075TIP3   OH275715   3.953   1.208   4.101  0.0346  0.6302 -0.1600
18075TIP3    H175716   3.897   1.248   4.168 -0.9531 -0.3775 -0.3585
18075TIP3    H275717   3.954   1.272   4.030  1.5758  1.9758  1.0405
18076TIP3   OH275718   3.000   1.488   4.636 -0.5367  0.0367 -0.1169
18076TIP3    H175719   3.069   1.552   4.651 -0.8369  0.1044  1.0440
18076TIP3    H275720   2.928   1.517   4.692 -0.6039 -1.4222  0.5696
18077TIP3   OH275721   6.105   1.892   2.968  0.0471  0.4076  0.9377
18077TIP3    H175722   6.145   1.836   3.034 -0.8761 -1.8746 -0.3451
18077TIP3    H275723   6.021   1.918   3.006  0.2104  0.4180  1.2910
18078TIP3   OH275724   4.606   1.714   6.210  0.1279 -0.1100  0.2768
18078TIP3    H175725   4.530   1.771   6.199  0.8759  1.1273  1.4211
18078TIP3    H275726   4.681   1.772   6.199  0.8975 -0.5674  2.8095
18079TIP3   OH275727   3.008   2.010   4.811 -0.3252  0.2523  0.2494
18079TIP3    H175728   3.059   2.000   4.891  0.5258  1.0637 -0.1839
18079TIP3    H275729   2.964   1.926   4.800  0.2158 -0.1496  1.1178
18080TIP3   OH275730   4.883   3.519   5.172  0.2288 -0.1218 -0.0471
18080TIP3    H175731   4.835   3.602   5.168 -0.8539 -0.7701 -0.7263
18080TIP3    H275732   4.874   3.491   5.263  1.5496  1.0558  0.4552
18081TIP3   OH275733   3.617   5.887   5.103 -0.5038  0.8769  0.4917
18081TIP3    H175734   3.605   5.878   5.197 -0.2729  1.1251  0.5445
18081TIP3    H275735   3.702   5.846   5.085 -0.4880  0.9434  0.4100
18082TIP3   OH275736   1.506   1.661   3.845  0.7426 -0.4159  0.4164
18082TIP3    H175737   1.595   1.627   3.845  1.2147  0.7241 -1.0294
18082TIP3    H275738   1.488   1.681   3.753 -0.4594  0.7543  0.8783
18083TIP3   OH275739   3.331   4.229   4.739  0.0628 -0.4895  0.5246
18083TIP3    H175740   3.262   4.175   4.777  0.7706 -1.9050 -0.1563
18083TIP3    H275741   3.398   4.166   4.712  0.0351  0.5618 -2.0965
18084TIP3   OH275742   4.464   4.426   5.724 -0.1391 -0.4508  0.5055
18084TIP3    H175743   4.402   4.386   5.663  0.1451 -1.1819  0.6982
18084TIP3    H275744   4.426   4.409   5.810 -0.6007  0.6802  0.5400
18085TIP3   OH275745   4.915   3.290   4.798  0.3172 -0.5406  0.4357
18085TIP3    H175746   4.826   3.300   4.764  0.7356 -0.6136 -0.6949
18085TIP3    H275747   4.960   3.238   4.732  1.1337 -0.7178  1.1246
18086TIP3   OH275748   4.966   3.902   4.748 -0.0519  0.1789 -0.3653
18086TIP3    H175749   5.032   3.838   4.721 -1.0792 -1.4642  0.9472
18086TIP3    H275750   5.002   3.940   4.828  0.2714  0.8236 -0.8100
18087TIP3   OH275751   3.895   4.484   3.656 -0.6690 -0.2356 -0.1796
18087TIP3    H175752   3.938   4.401   3.679 -1.0823 -0.0498  1.2975
18087TIP3    H275753   3.802   4.464   3.656 -0.6791 -0.2599 -1.8790
18088TIP3   OH275754   6.016   3.373   3.889  0.0558  0.0933 -0.6618
18088TIP3    H175755   6.011   3.302   3.824 -1.6180  0.5588 -1.0767
18088TIP3    H275756   5.929   3.374   3.929  0.9648  0.0450  1.3635
18089TIP3   OH275757   3.151   2.660   5.483  0.3162  0.5433  0.1648
18089TIP3    H175758   3.201   2.671   5.403 -0.9339  2.7678 -0.3525
18089TIP3    H275759   3.154   2.566   5.501  0.2657 -0.0334 -2.7069
18090TIP3   OH275760   3.734   2.761   4.050 -0.0835  0.1761  0.4588
18090TIP3    H175761   3.696   2.806   3.975  0.7036  1.1533  0.6310
18090TIP3    H275762   3.702   2.810   4.126 -0.9453 -0.8563  0.7698
18091TIP3   OH275763   3.708   2.363   4.788  0.2611  0.3352  0.1859
18091TIP3    H175764   3.779   2.380   4.726  0.1109  0.2733 -0.0063
18091TIP3    H275765   3.633   2.409   4.750 -0.4746 -1.7874 -1.0029
18092TIP3   OH275766   5.798   4.693   5.924 -0.4994  0.2867  0.1518
18092TIP3    H175767   5.881   4.711   5.880 -0.5273  0.2038  0.0626
18092TIP3    H275768   5.794   4.757   5.995  0.6785 -1.1406  1.5365
18093TIP3   OH275769   4.105   1.515   5.559  0.1705 -0.1097  0.1668
18093TIP3    H175770   4.048   1.509   5.636 -1.2949  1.8956 -0.7003
18093TIP3    H275771   4.048   1.489   5.486 -0.0481  3.1212 -0.8716
18094TIP3   OH275772   3.891   2.206   5.392 -0.3120  0.3095 -0.1404
18094TIP3    H175773   3.967   2.154   5.366  0.8137  1.3590  0.9730
18094TIP3    H275774   3.818   2.145   5.392  0.6491 -0.8412 -0.6719
18095TIP3   OH275775   4.666   0.984   4.890 -0.2065  0.5634  0.2292
18095TIP3    H175776   4.704   1.044   4.954 -0.2030  0.7000  0.0982
18095TIP3    H275777   4.624   1.041   4.826  1.9600  0.5245 -1.2794
18096TIP3   OH275778   4.051   4.792   5.477  0.5506 -0.1612  0.2981
18096TIP3    H175779   4.019   4.756   5.394 -2.2442  0.3436  1.1403
18096TIP3    H275780   4.044   4.719   5.539  0.2983  0.1975  0.6850
18097TIP3   OH275781   4.482   0.662   3.774  0.4478 -0.6310  0.1327
18097TIP3    H175782   4.398   0.624   3.746  0.1441 -1.3482  1.9368
18097TIP3    H275783   4.458   0.729   3.837  1.1882 -0.0256 -0.2281
18098TIP3   OH275784   3.977   5.635   5.669 -0.2177 -0.6802  0.4139
18098TIP3    H175785   3.927   5.655   5.590 -1.3292 -1.6337  0.8630
18098TIP3    H275786   4.034   5.711   5.682 -0.8615 -0.0126 -0.6461
18099TIP3   OH275787   4.157   4.391   5.690  0.2600  0.9475  0.4261
18099TIP3    H175788   4.243   4.406   5.651  0.6658  2.2016  1.7436
18099TIP3    H275789   4.129   4.307   5.655  2.6720 -0.1842  1.0756
18100TIP3   OH275790   3.516   5.376   3.322  0.4683  0.0198 -0.0289
18100TIP3    H175791   3.517   5.282   3.303 -1.4592 -0.2805  1.1578
18100TIP3    H275792   3.423   5.399   3.321  0.8785  1.7443  0.5174
18101TIP3   OH275793   4.710   2.696   4.812 -0.4333  0.0441  0.1845
18101TIP3    H175794   4.620   2.696   4.846 -0.6932  1.2550 -0.4676
18101TIP3    H275795   4.720   2.783   4.773 -0.1133 -1.2504 -2.7212
18102TIP3   OH275796   4.462   0.627   4.151 -0.1635 -1.1972  0.4633
18102TIP3    H175797   4.416   0.642   4.234 -1.1263  0.4394 -0.3324
18102TIP3    H275798   4.400   0.578   4.098 -1.1395  1.2750 -0.7222
18103TIP3   OH275799   4.681   3.572   1.395 -0.9210  0.3695 -0.3366
18103TIP3    H175800   4.601   3.525   1.419 -2.7163  2.2435 -2.5109
18103TIP3    H275801   4.680   3.574   1.300  1.8263  0.2989 -0.4042
18104TIP3   OH275802   4.770   1.925   5.457  0.1093 -0.1994  0.1916
18104TIP3    H175803   4.697   1.871   5.427 -0.5853 -0.5078  2.3700
18104TIP3    H275804   4.735   2.014   5.458  0.1052 -0.2007  0.1481
18105TIP3   OH275805   5.208   1.592   5.372 -0.0994  0.3683 -0.4708
18105TIP3    H175806   5.212   1.620   5.281 -0.5352  1.1527 -0.2575
18105TIP3    H275807   5.146   1.653   5.413  0.5895  0.4421  0.4865
18106TIP3   OH275808   5.435   4.071   4.298  0.5383  0.0337 -0.0999
18106TIP3    H175809   5.398   4.093   4.383  1.7821  0.7325  0.2735
18106TIP3    H275810   5.529   4.086   4.308  0.6192  0.7652 -1.7948
18107TIP3   OH275811   5.225   2.336   5.974 -0.1010  0.3627  0.1980
18107TIP3    H175812   5.258   2.258   6.020  2.0362 -0.8579 -3.2088
18107TIP3    H275813   5.131   2.323   5.969  0.0073 -1.0447  1.3803
18108TIP3   OH275814   5.733   3.749   5.535  0.3080  0.5999 -0.0279
18108TIP3    H175815   5.779   3.831   5.552  1.0202  0.0899  0.5452
18108TIP3    H275816   5.791   3.681   5.569 -1.0657 -0.0369  1.1085
18109TIP3   OH275817   4.024   3.091   6.105  0.1550  0.2842 -0.5453
18109TIP3    H175818   4.067   3.163   6.059  1.2158  1.2162  1.8335
18109TIP3    H275819   3.960   3.133   6.162 -0.1971 -0.7589 -0.1644
18110TIP3   OH275820   4.208   4.268   4.768 -0.7623  0.5043 -0.0250
18110TIP3    H175821   4.228   4.278   4.675 -1.7579  1.7505 -0.1159
18110TIP3    H275822   4.122   4.224   4.770 -1.6309  2.1826  0.2703
18111TIP3   OH275823   2.696   1.286   2.502 -0.4766  0.5674  0.7623
18111TIP3    H175824   2.752   1.323   2.434  0.1242 -1.0175  0.3696
18111TIP3    H275825   2.610   1.277   2.459  0.0241 -0.8961  0.0246
18112TIP3   OH275826   3.520   3.651   5.895 -0.6970  0.2205  0.6940
18112TIP3    H175827   3.549   3.733   5.936 -1.7190  0.5364  0.7979
18112TIP3    H275828   3.475   3.604   5.965  1.5070 -1.2916  1.1561
18113TIP3   OH275829   4.637   1.884   4.855 -0.3520  0.4042  0.3512
18113TIP3    H175830   4.727   1.915   4.844 -0.3657  0.2936 -0.0606
18113TIP3    H275831   4.589   1.920   4.781 -0.9261  1.4905  1.2226
18114TIP3   OH275832   4.041   3.638   5.712  0.6171 -0.2824  0.2993
18114TIP3    H175833   4.091   3.648   5.793 -1.0077  2.1121  1.0658
18114TIP3    H275834   4.015   3.546   5.711  1.1854 -0.4869  2.1715
18115TIP3   OH275835   6.747   3.539   5.871 -0.6087 -0.2847  0.3971
18115TIP3    H175836   6.755   3.455   5.916 -1.9033 -0.7917 -0.2895
18115TIP3    H275837   6.682   3.524   5.802 -1.1540  1.3738  0.5090
18116TIP3   OH275838   5.087   2.524   3.985 -0.2214 -0.4064  0.3586
18116TIP3    H175839   5.157   2.469   4.021  1.0304  0.6599 -0.4048
18116TIP3    H275840   5.076   2.492   3.895  0.3820  0.4460 -0.0272
18117TIP3   OH275841   4.143   2.457   5.618 -0.5722  0.4230 -0.6237
18117TIP3    H175842   4.101   2.541   5.595 -0.1049  1.0343  0.7200
18117TIP3    H275843   4.196   2.436   5.541 -1.0218  1.1425 -1.1468
18118TIP3   OH275844   5.099   3.131   5.690  0.4029  0.0613 -0.3400
18118TIP3    H175845   5.149   3.143   5.771  0.4845 -0.2730 -0.3390
18118TIP3    H275846   5.008   3.128   5.718  0.4836 -1.0069 -0.1427
18119TIP3   OH275847   4.674   3.611   3.735 -0.0366  0.2955  0.3469
18119TIP3    H175848   4.683   3.654   3.821  1.1247 -1.7382  1.2639
18119TIP3    H275849   4.579   3.600   3.725 -0.1571  0.0339  1.6381
18120TIP3   OH275850   7.327   2.056   5.257  0.1920  0.9430 -0.6186
18120TIP3    H175851   7.300   2.069   5.166 -0.0103  0.4182 -0.6406
18120TIP3    H275852   7.353   1.964   5.261 -0.3183  0.8191 -0.0169
18121TIP3   OH275853   3.233   1.172   3.457  0.6371  0.2994  0.1918
18121TIP3    H175854   3.327   1.184   3.473  0.6070  0.5962  0.1382
18121TIP3    H275855   3.203   1.120   3.532  0.8523  0.1703  0.1885
18122TIP3   OH275856   5.499   1.682   4.297  0.1842  0.0249 -0.2853
18122TIP3    H175857   5.406   1.701   4.305  0.6495  1.5019  2.2977
18122TIP3    H275858   5.518   1.621   4.369  2.0696  3.5334  2.3886
18123TIP3   OH275859   1.548   3.646   5.643 -0.1089 -0.0456  0.2923
18123TIP3    H175860   1.520   3.717   5.701 -2.0680 -0.8791  0.4095
18123TIP3    H275861   1.607   3.593   5.696 -0.3127  0.3156  0.8825
18124TIP3   OH275862   4.242   3.170   5.668 -0.3238  0.4175 -0.2879
18124TIP3    H175863   4.285   3.240   5.718  2.1396 -0.2866 -1.3618
18124TIP3    H275864   4.166   3.146   5.721  0.7278  1.5498  1.7972
18125TIP3   OH275865   6.502   5.714   4.060 -0.2189 -0.3412 -0.3848
18125TIP3    H175866   6.506   5.722   3.965  0.0030 -0.5380 -0.3927
18125TIP3    H275867   6.509   5.620   4.077 -0.0595 -0.2921 -0.1659
18126TIP3   OH275868   4.699   3.352   5.804  0.2592  0.3715 -0.3579
18126TIP3    H175869   4.605   3.362   5.789  0.1775 -0.0897 -0.1456
18126TIP3    H275870   4.707   3.273   5.858  0.5609  2.0464  2.1103
18127TIP3   OH275871   5.780   4.235   3.645  0.3354 -0.5774  0.5708
18127TIP3    H175872   5.801   4.295   3.573  0.3715  1.5642  2.3344
18127TIP3    H275873   5.687   4.217   3.635 -0.3091  2.0133  1.6461
18128TIP3   OH275874   2.797   4.126   2.317 -0.6807 -0.2171 -0.2200
18128TIP3    H175875   2.730   4.118   2.249 -1.4737  0.6483  0.4409
18128TIP3    H275876   2.749   4.152   2.395  0.3800  0.0122  0.3717
18129TIP3   OH275877   6.722   5.481   3.889  0.0766 -0.2183 -0.0108
18129TIP3    H175878   6.724   5.569   3.851  1.0020 -0.1662  0.1579
18129TIP3    H275879   6.762   5.425   3.822 -0.5605 -0.5262 -0.1415
18130TIP3   OH275880   6.180   3.617   4.791  0.1450  0.0912  0.2787
18130TIP3    H175881   6.136   3.702   4.795  0.9033  0.4490  1.1189
18130TIP3    H275882   6.272   3.637   4.776  0.6077 -0.4833  2.1241
18131TIP3   OH275883   5.763   2.982   5.381 -0.3336  0.1294  0.2275
18131TIP3    H175884   5.746   3.075   5.390  1.6496  0.6449 -0.9255
18131TIP3    H275885   5.769   2.949   5.470 -0.6896  1.1748  0.6423
18132TIP3   OH275886   3.190   3.596   5.279 -0.1766  0.5133 -0.5328
18132TIP3    H175887   3.260   3.594   5.344 -0.1203  0.8309 -0.5827
18132TIP3    H275888   3.143   3.513   5.291 -0.4290  0.7567  0.1983
18133TIP3   OH275889   2.281   4.301   3.773 -0.2977 -0.4991 -0.3380
18133TIP3    H175890   2.234   4.383   3.783  2.2724  1.0477 -0.5806
18133TIP3    H275891   2.235   4.254   3.703 -0.9146  1.3581 -1.1911
18134TIP3   OH275892   4.301   2.259   5.747  0.1313  0.1536 -0.6305
18134TIP3    H175893   4.318   2.199   5.674 -0.7981 -1.5295  0.5097
18134TIP3    H275894   4.240   2.324   5.711  2.1658  1.2120 -2.2504
18135TIP3   OH275895   6.123   2.923   4.235  0.0911 -0.2020  0.5901
18135TIP3    H175896   6.069   2.845   4.222  0.1897 -0.1195 -0.3202
18135TIP3    H275897   6.063   2.996   4.225  0.0771 -0.1493  1.0612
18136TIP3   OH275898   3.554   4.618   3.489 -0.6591  0.5835 -0.0495
18136TIP3    H175899   3.630   4.585   3.441 -0.6349  1.2189 -0.4612
18136TIP3    H275900   3.495   4.543   3.495  0.0289  0.0643  0.3358
18137TIP3   OH275901   4.356   1.811   3.244 -0.5401  0.4538  0.2610
18137TIP3    H175902   4.344   1.727   3.289 -1.0275  0.8085  0.8026
18137TIP3    H275903   4.413   1.791   3.170 -0.2690 -0.2698  0.6610
18138TIP3   OH275904   3.342   1.176   5.949 -0.6016  0.0010  0.1030
18138TIP3    H175905   3.383   1.206   5.867 -0.6952 -0.6014 -0.1693
18138TIP3    H275906   3.260   1.135   5.921 -0.6986 -0.0847  0.5132
18139TIP3   OH275907   5.538   1.733   3.337  0.8254 -0.2602  0.0589
18139TIP3    H175908   5.607   1.745   3.272  1.2981 -0.2347  0.5626
18139TIP3    H275909   5.478   1.806   3.322  0.1914 -1.0325 -1.2660
18140TIP3   OH275910   4.359   3.868   5.724  0.7842 -0.6626  0.1254
18140TIP3    H175911   4.333   3.953   5.760  0.2535 -0.3043 -1.0955
18140TIP3    H275912   4.315   3.805   5.781  1.4905 -0.1342  1.2713
18141TIP3   OH275913   5.067   0.775   5.286 -0.6774  0.2423 -1.1912
18141TIP3    H175914   5.025   0.693   5.312  0.6074 -0.0780 -0.1022
18141TIP3    H275915   5.001   0.843   5.302 -2.0985 -0.6593 -3.0022
18142TIP3   OH275916   4.491   2.428   4.132 -0.4047  0.4539 -0.3959
18142TIP3    H175917   4.451   2.479   4.202  1.3481  1.0960  0.1468
18142TIP3    H275918   4.584   2.429   4.151 -0.2322 -2.1469 -0.9182
18143TIP3   OH275919   5.862   2.762   5.909  0.2047  0.0807  0.0766
18143TIP3    H175920   5.798   2.704   5.951 -0.4460  0.4214 -0.4345
18143TIP3    H275921   5.833   2.850   5.932  0.1390  0.2537 -0.6641
18144TIP3   OH275922   4.777   4.087   4.790 -0.0785 -0.3235  0.3656
18144TIP3    H175923   4.852   4.036   4.761  0.2193 -0.1444  0.8084
18144TIP3    H275924   4.778   4.166   4.736 -0.5141 -0.7583 -0.2905
18145TIP3   OH275925   1.285   2.084   3.759 -0.1654 -0.2858 -0.4264
18145TIP3    H175926   1.316   2.153   3.818 -1.1760  0.1610 -0.4210
18145TIP3    H275927   1.271   2.128   3.675 -2.8402 -0.0176  0.1148
18146TIP3   OH275928   2.580   3.005   1.478 -0.2929 -0.7403  0.1469
18146TIP3    H175929   2.665   3.000   1.521  0.3180  0.2028 -0.9142
18146TIP3    H275930   2.590   2.951   1.399 -0.5878 -0.4155 -0.1150
18147TIP3   OH275931   5.846   2.373   4.759 -0.5110 -0.0010  0.0534
18147TIP3    H175932   5.808   2.390   4.845  0.8177 -0.6461  0.7912
18147TIP3    H275933   5.816   2.285   4.736  0.4035 -0.4635  0.5836
18148TIP3   OH275934   3.816   2.819   4.835  0.8307  0.8102  0.0661
18148TIP3    H175935   3.725   2.815   4.863 -0.4451  1.2370 -3.6882
18148TIP3    H275936   3.857   2.880   4.895 -1.0018 -0.3868  2.6412
18149TIP3   OH275937   4.417   1.591   2.977  0.0754  0.4060  0.1646
18149TIP3    H175938   4.438   1.560   2.889 -0.0480  0.3197  0.1659
18149TIP3    H275939   4.323   1.578   2.986  0.5842 -2.7833  1.5524
18150TIP3   OH275940   3.894   3.860   4.580 -0.4177  0.2978 -0.3730
18150TIP3    H175941   3.950   3.788   4.552  0.5925  0.6300  0.7760
18150TIP3    H275942   3.901   3.860   4.675 -0.9798  1.4718 -0.3312
18151TIP3   OH275943   6.279   2.976   4.933  0.1664  0.2601 -0.1203
18151TIP3    H175944   6.193   2.952   4.898  0.5826 -0.5730 -0.5990
18151TIP3    H275945   6.332   2.897   4.920  0.6811  0.3723  1.2471
18152TIP3   OH275946   3.964   2.909   4.592  0.4280 -0.0290  0.1733
18152TIP3    H175947   3.978   2.863   4.510 -1.6145 -0.6695  0.1600
18152TIP3    H275948   3.878   2.880   4.622  0.4602  1.3880  1.7488
18153TIP3   OH275949   5.324   1.926   5.081  0.5506  0.6843  0.3553
18153TIP3    H175950   5.379   1.994   5.120  1.3117  0.1103  0.2985
18153TIP3    H275951   5.251   1.915   5.142 -0.9827  3.3948 -0.9092
18154TIP3   OH275952   5.390   1.229   5.735 -0.2969 -0.5651 -0.3481
18154TIP3    H175953   5.369   1.153   5.679  2.3472 -1.9308  0.4593
18154TIP3    H275954   5.442   1.286   5.679 -3.1326  1.2321 -1.2812
18155TIP3   OH275955   2.733   1.348   4.767 -0.3092  0.4317 -0.1681
18155TIP3    H175956   2.728   1.312   4.678  1.5218 -0.9499  0.2726
18155TIP3    H275957   2.754   1.441   4.754  1.1426 -0.0286 -1.1540
18156TIP3   OH275958   5.124   4.513   5.590  0.2339  0.5695  0.2141
18156TIP3    H175959   5.088   4.443   5.535  0.6285 -1.8871  2.9383
18156TIP3    H275960   5.213   4.483   5.611  1.0508  2.7616  0.0284
18157TIP3   OH275961   6.839   3.503   4.402 -0.3711 -0.3131  0.3652
18157TIP3    H175962   6.848   3.513   4.307  0.8780  1.8813  0.6822
18157TIP3    H275963   6.893   3.427   4.423  1.6590  0.8790 -0.3544
18158TIP3   OH275964   4.356   3.473   5.704  1.0342 -0.0972 -0.6121
18158TIP3    H175965   4.387   3.409   5.768  0.3136 -0.4570 -0.6298
18158TIP3    H275966   4.321   3.544   5.757 -1.3813 -1.2660 -0.6061
18159TIP3   OH275967   6.810   1.571   3.995 -0.2483  0.0057  0.0425
18159TIP3    H175968   6.771   1.495   4.040  2.2752 -1.2471  0.2086
18159TIP3    H275969   6.891   1.537   3.957 -0.1979  2.1157 -1.8017
18160TIP3   OH275970   6.665   2.851   5.729  0.2269 -0.5011 -0.0407
18160TIP3    H175971   6.656   2.776   5.788 -0.4852 -0.3420  0.0529
18160TIP3    H275972   6.665   2.927   5.787 -3.4037 -0.1293 -0.3886
18161TIP3   OH275973   4.505   3.884   3.812 -0.2480  0.0692  0.2632
18161TIP3    H175974   4.419   3.853   3.841 -0.2447 -0.4272 -0.2350
18161TIP3    H275975   4.557   3.889   3.892 -0.3851 -0.7971  0.4172
18162TIP3   OH275976   3.179   4.949   5.880 -0.3519 -0.1869  0.4874
18162TIP3    H175977   3.189   5.020   5.817 -0.9640 -1.1432 -0.7285
18162TIP3    H275978   3.233   4.975   5.954  1.8339  0.1665 -1.1498
18163TIP3   OH275979   2.863   4.360   2.699  0.1180 -0.3409 -0.3012
18163TIP3    H175980   2.822   4.294   2.754 -1.4097  2.0914  1.6164
18163TIP3    H275981   2.792   4.391   2.643  0.7296 -0.1161 -0.9510
18164TIP3   OH275982   3.854   2.862   6.039  0.0272 -0.0521  0.2533
18164TIP3    H175983   3.920   2.922   6.075  0.4258  0.1240 -0.7351
18164TIP3    H275984   3.856   2.786   6.097 -0.1774  0.7141  1.2736
18165TIP3   OH275985   5.356   3.359   5.360 -0.4264 -0.0076 -0.3881
18165TIP3    H175986   5.296   3.374   5.433 -0.6137  0.4215 -0.6253
18165TIP3    H275987   5.431   3.416   5.378 -1.5758  2.0027 -1.7929
18166TIP3   OH275988   3.874   5.553   3.861 -0.3283 -0.1656  0.5150
18166TIP3    H175989   3.859   5.493   3.934  0.0763 -0.8115  0.0759
18166TIP3    H275990   3.787   5.585   3.837 -0.4993 -0.2277  1.0444
18167TIP3   OH275991   5.280   3.441   4.789 -0.3811  0.2346 -0.1707
18167TIP3    H175992   5.359   3.390   4.809 -0.7782 -0.5015 -0.4581
18167TIP3    H275993   5.225   3.430   4.867 -0.2291  0.6955  0.0031
18168TIP3   OH275994   4.927   3.590   4.407 -0.5788 -0.3637 -0.4388
18168TIP3    H175995   5.013   3.559   4.436 -0.4349  0.2708 -0.1926
18168TIP3    H275996   4.881   3.510   4.381  0.1095 -0.6981 -0.6375
18169TIP3   OH275997   6.282   3.347   4.516  0.3297  0.3121 -0.3958
18169TIP3    H175998   6.358   3.354   4.573 -0.1097  1.1726  0.0940
18169TIP3    H275999   6.264   3.436   4.487 -0.5135  0.1277 -0.4774
18170TIP3   OH276000   2.602   4.866   3.937  0.0410  0.0144  0.3679
18170TIP3    H176001   2.550   4.788   3.923  1.1340 -0.7804  0.6535
18170TIP3    H276002   2.607   4.908   3.850  0.1671 -0.6899  0.0334
18171TIP3   OH276003   2.920   3.529   3.845  0.0669 -0.5413  0.4624
18171TIP3    H176004   2.869   3.606   3.818 -1.5518 -1.3373  1.1715
18171TIP3    H276005   2.989   3.522   3.779  0.7270  1.9850  0.8259
18172TIP3   OH276006   3.858   3.828   5.688  0.0752  0.2079  0.7652
18172TIP3    H176007   3.938   3.776   5.702  0.9510  1.2840 -0.0733
18172TIP3    H276008   3.848   3.878   5.768  0.3781  0.2279  0.7931
18173TIP3   OH276009   6.114   2.372   5.077 -0.1992  0.5231 -0.0908
18173TIP3    H176010   6.160   2.392   5.159  0.4474 -0.2631 -0.2464
18173TIP3    H276011   6.059   2.297   5.098  0.3426  0.0050 -0.4959
18174TIP3   OH276012   3.610   2.743   4.369  0.1087  0.4474 -0.0976
18174TIP3    H176013   3.624   2.832   4.337  1.0811  0.2225 -0.3155
18174TIP3    H276014   3.698   2.706   4.376 -0.2412 -0.2542  0.6927
18175TIP3   OH276015   3.797   1.981   4.482  0.3263 -0.2024 -0.6625
18175TIP3    H176016   3.733   1.911   4.477 -2.2251  1.9876  0.2468
18175TIP3    H276017   3.864   1.948   4.542 -1.8689 -1.0651  1.3714
18176TIP3   OH276018   4.138   4.228   5.213  0.1865  0.1547 -0.0852
18176TIP3    H176019   4.172   4.192   5.131 -1.6580  0.4293 -1.0158
18176TIP3    H276020   4.150   4.323   5.204  2.3576  0.0107  1.0985
18177TIP3   OH276021   5.108   3.959   3.148 -0.5171 -0.1415 -0.3365
18177TIP3    H176022   5.023   3.977   3.108 -0.3511  1.1149 -0.1465
18177TIP3    H276023   5.153   3.903   3.085 -2.0301 -2.0476  0.2271
18178TIP3   OH276024   6.357   3.654   4.186  0.0463  0.0599 -0.3880
18178TIP3    H176025   6.402   3.618   4.262  0.9923  1.1739 -0.4010
18178TIP3    H276026   6.414   3.632   4.112 -0.0618  0.3817 -0.5679
18179TIP3   OH276027   0.083   5.544   3.321 -0.2439 -0.0076  0.4995
18179TIP3    H176028   0.099   5.614   3.258  1.1581 -1.0151 -0.2849
18179TIP3    H276029   0.054   5.470   3.268  2.8206 -1.4874  0.7497
18180TIP3   OH276030   4.776   2.420   4.188  0.2540  0.1603 -0.1932
18180TIP3    H176031   4.818   2.419   4.273  0.6269 -0.5060 -0.3866
18180TIP3    H276032   4.836   2.373   4.130 -1.3957 -2.0759 -0.1497
18181TIP3   OH276033   5.671   2.798   4.319 -0.0052 -0.3436 -0.3788
18181TIP3    H176034   5.687   2.879   4.368 -1.5923  0.8092 -1.6924
18181TIP3    H276035   5.577   2.782   4.330  0.5054 -2.7315  0.8999
18182TIP3   OH276036   5.522   2.999   4.866 -0.0316 -0.1676 -0.0928
18182TIP3    H176037   5.602   3.032   4.907  0.4399  1.1789 -1.9938
18182TIP3    H276038   5.454   3.060   4.895  0.0171 -0.1152 -0.0890
18183TIP3   OH276039   6.921   2.188   4.673  0.0205  0.8427  0.7919
18183TIP3    H176040   6.950   2.233   4.594 -0.8018  3.2724  1.8326
18183TIP3    H276041   6.999   2.142   4.704  0.1740 -0.7803 -1.7880
18184TIP3   OH276042   5.562   3.768   4.347  0.6541  0.0813 -0.7311
18184TIP3    H176043   5.592   3.728   4.428 -0.1531  0.6821 -0.1309
18184TIP3    H276044   5.607   3.853   4.344 -1.7537  1.4683  0.7217
18185TIP3   OH276045   2.412   3.770   4.175 -0.2040  0.0729 -0.1570
18185TIP3    H176046   2.365   3.770   4.258 -0.6712 -0.7531 -0.4110
18185TIP3    H276047   2.353   3.812   4.113  0.1724  0.7511 -0.0550
18186TIP3   OH276048   3.498   1.705   4.977  0.3073  0.3164 -0.4557
18186TIP3    H176049   3.481   1.780   4.920 -0.1895 -1.0285 -2.0937
18186TIP3    H276050   3.564   1.738   5.039 -0.7713  2.4624 -0.3850
18187TIP3   OH276051   5.113   1.999   4.611 -0.2080  0.4415  0.3693
18187TIP3    H176052   5.173   1.960   4.675  1.1182  1.7895 -0.0176
18187TIP3    H276053   5.149   1.974   4.526  0.0334  1.6016  0.1297
18188TIP3   OH276054   2.347   1.728   4.573 -0.2059  0.5350 -0.4117
18188TIP3    H176055   2.297   1.810   4.571 -0.5410  0.3212 -0.8928
18188TIP3    H276056   2.415   1.744   4.637 -0.3565  1.1464 -0.3941
18189TIP3   OH276057   7.183   1.324   3.401  0.0235 -0.1001 -1.1201
18189TIP3    H176058   7.271   1.360   3.400  0.2717 -0.6118  0.5681
18189TIP3    H276059   7.126   1.397   3.378  0.5795  1.1728  1.4739
18190TIP3   OH276060   3.453   1.574   5.785 -0.6569 -0.7048  0.7400
18190TIP3    H176061   3.376   1.626   5.760  0.0910  0.1009  0.0723
18190TIP3    H276062   3.523   1.609   5.731  1.0187  1.0370  3.9142
18191TIP3   OH276063   4.343   1.746   4.932 -0.0995 -0.0214 -0.1971
18191TIP3    H176064   4.346   1.840   4.949 -1.3472  0.2346 -1.2847
18191TIP3    H276065   4.432   1.715   4.948  0.1889  1.2575  0.6795
18192TIP3   OH276066   3.443   3.883   4.932  0.4285 -0.1403 -0.8083
18192TIP3    H176067   3.520   3.830   4.955  0.2513 -1.2340 -2.5839
18192TIP3    H276068   3.382   3.869   5.004  1.6341  0.2059  0.3072
18193TIP3   OH276069   6.174   2.620   1.379 -0.7901  0.1705  0.0817
18193TIP3    H176070   6.218   2.538   1.356 -0.0170  1.2758 -2.5442
18193TIP3    H276071   6.176   2.622   1.475  1.0799 -1.8450  0.1277
18194TIP3   OH276072   6.573   2.171   5.351 -0.2939 -0.0223 -0.6628
18194TIP3    H176073   6.540   2.178   5.261  1.2260  1.2394 -1.1380
18194TIP3    H276074   6.665   2.196   5.345  0.1524 -1.1620  1.0538
18195TIP3   OH276075   4.156   2.134   5.164 -0.4286 -0.0379  0.0962
18195TIP3    H176076   4.080   2.127   5.107 -1.6578  0.4954  1.6081
18195TIP3    H276077   4.139   2.071   5.234  0.7582 -0.2665  0.1812
18196TIP3   OH276078   2.671   3.694   4.090  0.1621 -0.1700  0.1806
18196TIP3    H176079   2.577   3.692   4.106  0.4234 -0.7499  1.7508
18196TIP3    H276080   2.709   3.724   4.173  1.6364 -3.9286  0.9755
18197TIP3   OH276081   5.638   2.631   2.911 -0.1655 -0.4755  0.0696
18197TIP3    H176082   5.592   2.711   2.937  1.0505  0.2711 -0.0368
18197TIP3    H276083   5.568   2.567   2.894 -1.1031  0.0647  1.7763
18198TIP3   OH276084   6.060   3.392   4.883 -0.1030 -0.3246  0.5222
18198TIP3    H176085   6.135   3.332   4.886 -0.5485 -1.0146 -1.4107
18198TIP3    H276086   6.097   3.476   4.856  0.6553  0.5531  4.0332
18199TIP3   OH276087   2.221   1.471   5.926 -0.0542 -0.1835 -0.2954
18199TIP3    H176088   2.294   1.417   5.956  0.0809  0.5933  0.7640
18199TIP3    H276089   2.149   1.409   5.915  0.7398 -0.9628 -1.3663
18200TIP3   OH276090   3.435   3.279   2.245 -0.5774 -0.3099  0.1052
18200TIP3    H176091   3.367   3.305   2.307 -0.9797 -1.5276  0.1969
18200TIP3    H276092   3.503   3.345   2.256 -1.8054  1.0294 -0.1095
18201TIP3   OH276093   2.532   5.531   4.603 -0.4089 -0.1840  0.1408
18201TIP3    H176094   2.602   5.553   4.541 -1.3573  0.7807 -0.5925
18201TIP3    H276095   2.546   5.590   4.677  0.1339 -0.6725  0.4410
18202TIP3   OH276096   3.408   3.495   4.713  0.2985 -0.0467 -0.6588
18202TIP3    H176097   3.449   3.577   4.741 -0.5882  0.2871 -0.3102
18202TIP3    H276098   3.400   3.444   4.794 -0.8048  0.2676 -0.5617
18203TIP3   OH276099   4.700   5.258   3.986  0.2241  0.5515 -0.6554
18203TIP3    H176100   4.739   5.318   3.923 -2.1544  2.6723 -0.1852
18203TIP3    H276101   4.759   5.262   4.062  1.5556  0.1608 -1.6426
18204TIP3   OH276102   5.012   6.080   4.349 -0.2842 -0.2790 -0.2010
18204TIP3    H176103   4.924   6.043   4.341 -0.9304  1.2311 -0.4543
18204TIP3    H276104   4.999   6.160   4.399  0.9154  0.0730 -0.4381
18205TIP3   OH276105   5.012   5.568   4.750 -0.2867  0.2733 -0.8970
18205TIP3    H176106   4.928   5.525   4.732  0.4595 -0.4704 -2.6314
18205TIP3    H276107   5.057   5.571   4.666  2.4806 -1.5565  0.4256
18206TIP3   OH276108   4.180   2.492   4.650  0.4684  0.3708 -0.1107
18206TIP3    H176109   4.190   2.447   4.734 -4.2813 -1.3720 -0.3172
18206TIP3    H276110   4.183   2.585   4.672 -0.9266 -0.0638  2.0868
18207TIP3   OH276111   4.686   3.202   5.543  0.1225 -0.0461 -0.2417
18207TIP3    H176112   4.703   3.216   5.636  0.5158  0.6637 -0.4188
18207TIP3    H276113   4.684   3.106   5.534 -0.4262 -0.1235  0.5809
18208TIP3   OH276114   2.705   0.993   5.383  0.0783  0.2646 -0.0722
18208TIP3    H176115   2.650   0.958   5.453  0.2593 -0.1877 -0.1574
18208TIP3    H276116   2.795   0.984   5.416  0.2769 -1.5012 -1.0500
18209TIP3   OH276117   4.451   6.565   4.107 -0.1787  0.2724 -0.0244
18209TIP3    H176118   4.504   6.523   4.039 -0.3918  1.5095 -0.9628
18209TIP3    H276119   4.361   6.560   4.074 -0.6890 -1.7216  1.5124
18210TIP3   OH276120   3.573   3.685   4.298  0.3166  0.1249 -0.4324
18210TIP3    H176121   3.575   3.669   4.204  0.1915  3.0073 -0.9636
18210TIP3    H276122   3.484   3.660   4.324  0.9261 -2.4701 -0.6954
18211TIP3   OH276123   6.462   4.166   4.020  0.3025 -0.5602  0.2306
18211TIP3    H176124   6.377   4.201   4.045 -0.5858 -1.5630 -1.3547
18211TIP3    H276125   6.456   4.072   4.037  1.6367 -0.4183  1.5994
18212TIP3   OH276126   3.203   3.153   5.464 -0.3897  0.1311 -0.0012
18212TIP3    H176127   3.213   3.193   5.550  0.3791  0.6253 -0.3109
18212TIP3    H276128   3.288   3.165   5.422 -1.0518  0.7950 -1.1962
18213TIP3   OH276129   5.081   3.139   3.257  0.3741 -0.0710  0.1115
18213TIP3    H176130   5.031   3.109   3.181  0.4992  1.2331 -0.4995
18213TIP3    H276131   5.036   3.219   3.284  1.5258  0.5602  0.1774
18214TIP3   OH276132   4.902   2.766   5.369  0.3329 -0.2475 -0.1448
18214TIP3    H176133   4.946   2.847   5.343  1.0852  0.4153  3.0015
18214TIP3    H276134   4.968   2.718   5.420 -0.3853 -2.4537 -1.2639
18215TIP3   OH276135   5.701   4.221   2.413 -0.8933 -0.3529  0.2728
18215TIP3    H176136   5.793   4.237   2.395 -1.2520  0.7976 -0.5989
18215TIP3    H276137   5.689   4.244   2.505 -0.6804  1.2089 -0.0831
18216TIP3   OH276138   4.562   0.654   4.604  0.0590 -0.1036  0.0790
18216TIP3    H176139   4.626   0.607   4.551 -0.3632 -1.1829  0.5182
18216TIP3    H276140   4.607   0.669   4.688 -0.2894 -0.9320  0.4151
18217TIP3   OH276141   3.782   4.048   5.519  0.0368 -0.2052  0.1185
18217TIP3    H176142   3.823   3.976   5.566  1.1268 -1.1201 -2.1513
18217TIP3    H276143   3.730   4.006   5.450 -1.0270  1.1096  0.0895
18218TIP3   OH276144   4.171   2.362   6.036  0.2891  0.3844  0.2984
18218TIP3    H176145   4.161   2.436   5.976 -3.1266 -0.3613 -0.1122
18218TIP3    H276146   4.118   2.385   6.112  1.9590 -0.1563  1.6654
18219TIP3   OH276147   4.994   1.195   4.517  0.3078  0.3310 -0.0611
18219TIP3    H176148   4.918   1.252   4.501 -0.6464 -1.1317 -0.9307
18219TIP3    H276149   5.021   1.215   4.606  0.3818  2.5745 -0.5477
18220TIP3   OH276150   4.492   2.647   6.045  0.4592  0.2705  0.1588
18220TIP3    H176151   4.434   2.718   6.072 -0.2923 -0.8738  1.6292
18220TIP3    H276152   4.579   2.676   6.070  0.1424  0.6296  0.8469
18221TIP3   OH276153   3.153   4.053   5.803 -0.5116  0.4409 -0.0419
18221TIP3    H176154   3.141   4.065   5.897  1.7526 -0.8763  0.4746
18221TIP3    H276155   3.081   3.995   5.776 -2.0299  2.0139  0.5530
18222TIP3   OH276156   4.593   1.673   5.479  0.0132 -0.6895 -0.4658
18222TIP3    H176157   4.659   1.665   5.547 -0.5235 -0.3523  0.0966
18222TIP3    H276158   4.520   1.620   5.510 -0.3968 -0.1958 -0.5747
18223TIP3   OH276159   5.312   0.657   3.786  0.2139  0.6424  0.2394
18223TIP3    H176160   5.380   0.613   3.736  1.0809  1.4173  0.7268
18223TIP3    H276161   5.319   0.620   3.874  1.5306  2.3666  0.8793
18224TIP3   OH276162   5.546   1.973   6.272  0.2936 -0.8445  0.2759
18224TIP3    H176163   5.612   2.007   6.211  0.5940  0.0744  1.0967
18224TIP3    H276164   5.511   2.051   6.316 -1.6229 -1.2980 -0.4162
18225TIP3   OH276165   4.896   0.224   4.573  0.0402 -0.0971  0.5185
18225TIP3    H176166   4.930   0.312   4.557  1.0237 -0.6661 -0.5996
18225TIP3    H276167   4.967   0.179   4.618 -0.1182 -0.5704  0.3008
18226TIP3   OH276168   3.450   1.293   5.725 -0.9814  0.5045  0.8848
18226TIP3    H176169   3.411   1.376   5.753  0.9810  1.2034  1.6556
18226TIP3    H276170   3.528   1.319   5.675 -0.9980 -0.8501  0.1254
18227TIP3   OH276171   3.359   2.273   5.940  0.0875  0.1576 -0.4916
18227TIP3    H176172   3.383   2.362   5.917 -2.5945  1.0442 -0.0092
18227TIP3    H276173   3.265   2.267   5.923  0.1646 -2.5114 -0.3294
18228TIP3   OH276174   4.992   3.419   5.699  0.2795 -0.2642 -0.1958
18228TIP3    H176175   4.998   3.510   5.726  1.3177  0.4392 -2.6125
18228TIP3    H276176   4.915   3.385   5.745  0.5115  1.5237  1.5609
18229TIP3   OH276177   6.989   4.489   4.674 -0.1069  0.0610 -0.8302
18229TIP3    H176178   6.952   4.408   4.711  0.3963 -0.0449 -0.5631
18229TIP3    H276179   7.083   4.481   4.688  0.1108 -0.0586 -2.2740
18230TIP3   OH276180   2.813   0.679   5.567  0.2109  0.1251  0.6449
18230TIP3    H176181   2.788   0.634   5.647 -1.5110 -0.6844 -0.3092
18230TIP3    H276182   2.744   0.744   5.553  0.0050 -0.3555 -0.6539
18231TIP3   OH276183   4.553   2.106   3.844  0.0752 -0.1430  0.2656
18231TIP3    H176184   4.576   2.150   3.762 -0.6623 -0.1325  0.0585
18231TIP3    H276185   4.458   2.097   3.840  0.1491 -1.1633  0.6030
18232TIP3   OH276186   4.086   3.595   2.884  0.3281 -0.2680  0.7252
18232TIP3    H176187   4.170   3.616   2.924  0.0765 -1.2561  1.7865
18232TIP3    H276188   4.091   3.502   2.865 -0.2967 -0.2024  0.2175
18233TIP3   OH276189   5.438   4.999   4.274  0.5454  0.4793  0.2495
18233TIP3    H176190   5.422   5.090   4.249  0.2085  0.5176  0.5952
18233TIP3    H276191   5.363   4.952   4.239  0.7594  0.3232  0.0036
18234TIP3   OH276192   0.325   0.443   3.025  0.1509 -0.0749 -0.4504
18234TIP3    H176193   0.412   0.404   3.024  1.0767  1.8165  2.3154
18234TIP3    H276194   0.308   0.464   3.116 -2.6740  0.8315 -1.1119
18235TIP3   OH276195   3.871   5.324   3.124  0.3639  0.4100 -0.1560
18235TIP3    H176196   3.878   5.354   3.215  3.2828  4.1826 -1.5157
18235TIP3    H276197   3.795   5.370   3.089  0.9582  1.2011 -0.4152
18236TIP3   OH276198   6.045   2.881   4.775 -0.1459 -0.3498 -0.2692
18236TIP3    H176199   5.951   2.860   4.774 -0.6521  1.8244  0.0909
18236TIP3    H276200   6.060   2.931   4.695  1.1213 -2.2514 -1.2733
18237TIP3   OH276201   1.988   4.902   3.756  0.1499 -0.0153  0.3065
18237TIP3    H176202   2.062   4.860   3.801 -1.3021  0.4823  3.2585
18237TIP3    H276203   1.989   4.993   3.786 -1.0226  0.2728 -0.4776
18238TIP3   OH276204   4.188   5.365   4.998  0.2258  0.3054  0.1281
18238TIP3    H176205   4.183   5.420   5.077  0.4903  0.6027 -0.0619
18238TIP3    H276206   4.194   5.275   5.032 -1.4523  0.2892  0.4270
18239TIP3   OH276207   6.350   4.828   5.679  0.7842  0.0522 -0.4433
18239TIP3    H176208   6.443   4.809   5.692  0.8701  1.3220  0.9458
18239TIP3    H276209   6.305   4.775   5.745  0.6123  0.4302 -0.2591
18240TIP3   OH276210   4.123   3.555   1.203 -0.9458 -0.1797  0.0164
18240TIP3    H176211   4.028   3.555   1.212 -0.7778  1.5587  2.3473
18240TIP3    H276212   4.155   3.520   1.286  0.4579 -0.1906 -0.5137
18241TIP3   OH276213   4.891   2.028   5.674 -0.0600  0.1444  0.2163
18241TIP3    H176214   4.889   1.942   5.717  2.1807 -0.1006 -0.1287
18241TIP3    H276215   4.872   2.010   5.582  0.6017  0.0084  0.1104
18242TIP3   OH276216   4.149   5.559   4.251  0.0789  0.0278 -0.2666
18242TIP3    H176217   4.152   5.472   4.292  0.0596  0.3576  0.4533
18242TIP3    H276218   4.127   5.542   4.160  2.1380 -0.8820 -0.6161
18243TIP3   OH276219   3.532   2.388   3.941 -0.8330  0.2356 -0.2063
18243TIP3    H176220   3.530   2.295   3.917  0.1036 -0.1060  0.9656
18243TIP3    H276221   3.528   2.388   4.036  1.7278  1.2691 -0.0566
18244TIP3   OH276222   4.752   2.865   5.828 -0.2703  0.0646  0.2463
18244TIP3    H176223   4.812   2.794   5.853 -1.6765 -0.7703  1.3095
18244TIP3    H276224   4.672   2.820   5.800 -1.0533  1.2280  0.5743
18245TIP3   OH276225   5.775   1.473   5.259 -0.2897 -0.1769  0.2954
18245TIP3    H176226   5.720   1.395   5.270 -0.6548  0.1794  0.9830
18245TIP3    H276227   5.733   1.540   5.312  0.5159  0.2450  0.4112
18246TIP3   OH276228   3.352   3.521   5.713 -0.0402  0.5106  0.0744
18246TIP3    H176229   3.410   3.554   5.781 -0.3100  1.3158 -0.0701
18246TIP3    H276230   3.264   3.532   5.750 -0.0670 -1.8525  0.7951
18247TIP3   OH276231   6.263   1.648   2.522  0.0233 -0.1891  0.0288
18247TIP3    H176232   6.284   1.658   2.615  0.5795 -2.4210  0.1582
18247TIP3    H276233   6.280   1.735   2.485  0.5813  0.5081  1.8458
18248TIP3   OH276234   6.973   3.338   5.532  0.4597 -0.3504  0.2189
18248TIP3    H176235   6.991   3.334   5.626  1.6725 -1.9675 -0.0549
18248TIP3    H276236   6.966   3.431   5.512  3.0994  0.1367  1.3909
18249TIP3   OH276237   5.381   3.131   6.128  0.1484  0.2250 -0.7796
18249TIP3    H176238   5.472   3.135   6.156 -0.1183 -1.7783  0.4058
18249TIP3    H276239   5.336   3.197   6.181  0.3754 -0.8370  0.7675
18250TIP3   OH276240   4.127   3.674   4.569 -0.0007  0.8155 -0.2018
18250TIP3    H176241   4.181   3.598   4.591 -0.8766  0.4424  0.7450
18250TIP3    H276242   4.172   3.748   4.610 -0.8559  0.3234  1.7037
18251TIP3   OH276243   5.085   3.032   6.112 -0.4872 -0.2707  0.0249
18251TIP3    H176244   5.088   3.128   6.105 -1.3406 -0.4031 -2.5946
18251TIP3    H276245   5.127   3.014   6.197  0.3335  2.3642  0.2560
18252TIP3   OH276246   3.197   4.394   4.399  0.6169  0.0567 -0.3777
18252TIP3    H176247   3.193   4.377   4.493 -2.0316  1.0559 -0.2665
18252TIP3    H276248   3.267   4.458   4.389  2.0030 -1.2532  0.7125
18253TIP3   OH276249   4.923   2.913   4.071  0.2229 -0.4718  0.2471
18253TIP3    H176250   4.915   2.830   4.119  0.8628  0.1873  1.4948
18253TIP3    H276251   4.943   2.886   3.981  1.9876 -1.6514  0.9681
18254TIP3   OH276252   4.629   1.562   5.977  0.4314 -0.0458 -0.0875
18254TIP3    H176253   4.611   1.471   6.002 -1.3235  0.0102 -1.1225
18254TIP3    H276254   4.625   1.611   6.059  0.4251 -0.7487  0.3358
18255TIP3   OH276255   5.133   3.477   4.541  0.6264  0.2409 -0.0412
18255TIP3    H176256   5.082   3.396   4.544  0.3901  0.3158 -1.6842
18255TIP3    H276257   5.211   3.458   4.594  0.2522 -0.8268  0.1339
18256TIP3   OH276258   2.991   1.002   5.418  0.1193  0.1476 -0.0676
18256TIP3    H176259   3.060   0.954   5.372 -1.2621 -0.8440 -1.1426
18256TIP3    H276260   3.004   1.093   5.392  0.0868 -0.2445 -1.5192
18257TIP3   OH276261   6.571   4.289   2.427  1.0976  0.4030  0.2697
18257TIP3    H176262   6.596   4.215   2.483  0.9530  0.7057  0.7372
18257TIP3    H276263   6.629   4.360   2.454  0.3710  0.8348  0.7159
18258TIP3   OH276264   0.828   0.796   4.658  0.2847  0.0579 -0.4378
18258TIP3    H176265   0.749   0.823   4.610 -0.9225 -1.4247  0.6514
18258TIP3    H276266   0.838   0.704   4.636  2.2156  0.4420 -1.2153
18259TIP3   OH276267   5.122   2.566   6.120  0.0707 -0.0397  0.0377
18259TIP3    H176268   5.165   2.499   6.068 -0.6333 -1.9881  1.9139
18259TIP3    H276269   5.029   2.544   6.115 -0.0291 -0.0778  1.8649
18260TIP3   OH276270   3.726   1.720   5.163 -0.0954 -0.9461  0.8672
18260TIP3    H176271   3.759   1.641   5.120  1.5434 -0.8580  1.9342
18260TIP3    H276272   3.796   1.746   5.223 -1.5225  0.0838  2.1120
18261TIP3   OH276273   5.837   2.371   5.966 -0.0083 -0.3608 -0.1280
18261TIP3    H176274   5.882   2.324   6.036 -0.2257  0.8952  0.8645
18261TIP3    H276275   5.902   2.378   5.896  0.0901 -1.9615 -0.2284
18262TIP3   OH276276   4.437   3.882   4.457  0.2294  0.7692 -0.5329
18262TIP3    H176277   4.490   3.957   4.482 -2.0743  1.6058  2.1517
18262TIP3    H276278   4.367   3.919   4.403  0.5632  0.1570 -1.3944
18263TIP3   OH276279   5.641   2.481   4.236  0.4926  0.2645  0.7524
18263TIP3    H176280   5.582   2.521   4.172  0.3721 -0.1373  0.6161
18263TIP3    H276281   5.592   2.482   4.318  0.3554  0.0629  0.6700
18264TIP3   OH276282   4.491   1.346   4.449 -0.4420 -0.0779 -0.0100
18264TIP3    H176283   4.434   1.349   4.372 -0.2710 -0.5934 -0.1579
18264TIP3    H276284   4.432   1.361   4.523 -0.5221  0.9502 -0.2759
18265TIP3   OH276285   3.646   3.055   5.541 -0.6709 -0.8903 -0.0268
18265TIP3    H176286   3.611   3.117   5.477 -2.0852 -1.6198  0.0154
18265TIP3    H276287   3.668   2.977   5.490  0.5651 -0.5868  0.0095
18266TIP3   OH276288   5.687   3.718   3.933  0.1045  0.1052 -0.2225
18266TIP3    H176289   5.707   3.811   3.919  1.7733 -0.3700 -1.1865
18266TIP3    H276290   5.755   3.672   3.884 -1.1581 -1.6305 -0.3913
18267TIP3   OH276291   0.080   2.968   4.953 -0.3572  0.3810 -0.8701
18267TIP3    H176292   0.163   3.015   4.944  0.7258 -1.1105  1.0763
18267TIP3    H276293   0.091   2.890   4.899  0.2323 -0.7504  0.8603
18268TIP3   OH276294   3.274   5.060   5.267 -0.2371 -0.5870  0.1083
18268TIP3    H176295   3.274   4.966   5.283  0.3300 -1.0851 -2.5472
18268TIP3    H276296   3.364   5.079   5.239 -0.5898  0.5623 -0.2634
18269TIP3   OH276297   4.338   2.150   5.490  0.3184 -0.1419 -0.1935
18269TIP3    H176298   4.281   2.085   5.449  0.8983 -0.2146 -0.8864
18269TIP3    H276299   4.328   2.229   5.437  2.2784 -0.7024 -1.4519
18270TIP3   OH276300   4.667   2.996   4.093 -0.0816 -0.4870 -0.0963
18270TIP3    H176301   4.650   3.023   4.003 -0.6102  1.0761  0.4589
18270TIP3    H276302   4.756   2.960   4.090 -0.1106 -0.4901 -1.2417
18271TIP3   OH276303   1.383   4.140   4.280 -0.4942 -0.8493  0.1355
18271TIP3    H176304   1.453   4.173   4.336 -1.1135 -0.0332  0.4474
18271TIP3    H276305   1.410   4.161   4.191 -0.0691 -1.0733  0.2115
18272TIP3   OH276306   6.101   1.526   2.951  0.0762 -0.3201  0.3940
18272TIP3    H176307   6.020   1.564   2.986  0.0248  0.4950 -0.5840
18272TIP3    H276308   6.169   1.555   3.012 -0.2706 -0.4470  0.8446
18273TIP3   OH276309   0.574   0.891   3.944  0.1714  0.0932  0.0304
18273TIP3    H176310   0.607   0.889   3.854 -0.6453  2.3276 -0.3386
18273TIP3    H276311   0.479   0.883   3.934 -0.3047  4.2691  0.3909
18274TIP3   OH276312   3.905   3.848   3.770  0.0862  0.1773 -0.4070
18274TIP3    H176313   3.962   3.916   3.807  0.0635 -0.6378  1.1458
18274TIP3    H276314   3.931   3.843   3.677  0.2430  2.1300 -0.4859
18275TIP3   OH276315   4.032   1.848   4.000  0.0472 -0.1675 -0.6463
18275TIP3    H176316   3.983   1.921   4.038 -1.7297 -0.2544 -2.6805
18275TIP3    H276317   4.082   1.886   3.928  0.2239 -0.7168 -0.8238
18276TIP3   OH276318   3.596   2.347   5.479 -0.4610  0.0113 -0.2872
18276TIP3    H176319   3.647   2.278   5.437  0.6357  0.8070 -0.2961
18276TIP3    H276320   3.569   2.403   5.406 -1.4341 -0.4593 -0.2933
18277TIP3   OH276321   4.687   2.961   5.423 -0.5137  0.2666  0.3597
18277TIP3    H176322   4.782   2.973   5.414 -0.6500  0.9850 -0.2568
18277TIP3    H276323   4.652   2.983   5.337 -1.2392 -0.0348  0.5720
18278TIP3   OH276324   4.344   1.149   5.830 -0.4883 -0.0881 -0.7818
18278TIP3    H176325   4.333   1.139   5.735 -2.5699 -0.4608 -0.5271
18278TIP3    H276326   4.297   1.229   5.852 -1.1899 -0.7211  0.1074
18279TIP3   OH276327   5.846   2.124   5.759 -0.6756  0.5442 -0.4475
18279TIP3    H176328   5.937   2.123   5.728 -0.2669 -0.0876  0.7269
18279TIP3    H276329   5.811   2.207   5.728  0.6995  1.3742  0.1648
18280TIP3   OH276330   3.457   6.475   4.008 -0.1217  0.8698  0.3034
18280TIP3    H176331   3.386   6.433   4.056 -1.1523  2.6717  0.4163
18280TIP3    H276332   3.536   6.429   4.036 -1.3398 -1.9005 -0.6399
18281TIP3   OH276333   4.116   1.859   5.654  0.0043  0.2572  0.6122
18281TIP3    H176334   4.191   1.877   5.711  1.0963 -1.4624 -0.2407
18281TIP3    H276335   4.072   1.784   5.696  0.1821 -0.3067 -0.1913
18282TIP3   OH276336   2.525   2.273   2.446  0.3673 -0.7876 -0.4056
18282TIP3    H176337   2.557   2.357   2.477  0.0724 -0.3884 -1.1848
18282TIP3    H276338   2.438   2.265   2.484  0.5203 -0.8903 -0.0711
18283TIP3   OH276339   5.314   6.345   2.961 -0.4357  0.0843 -0.3673
18283TIP3    H176340   5.222   6.366   2.946 -0.9136 -1.3207  0.4850
18283TIP3    H276341   5.315   6.297   3.043  1.3490  2.0228  0.8157
18284TIP3   OH276342   6.252   2.689   4.762 -0.3808  0.2507 -0.9234
18284TIP3    H176343   6.213   2.614   4.807 -0.7006  0.5957 -0.6193
18284TIP3    H276344   6.181   2.753   4.755  0.4423  1.4033  0.7925
18285TIP3   OH276345   2.733   2.232   4.102 -0.0334  0.2755 -0.1081
18285TIP3    H176346   2.752   2.203   4.013 -1.1138  0.3306 -0.3672
18285TIP3    H276347   2.722   2.327   4.095 -0.3247  0.2542  0.0455
18286TIP3   OH276348   2.903   6.440   3.451 -0.5011 -0.4689 -0.6054
18286TIP3    H176349   2.949   6.414   3.531  0.8748  0.5689 -1.0475
18286TIP3    H276350   2.845   6.366   3.432 -0.2486 -1.0831  0.8878
18287TIP3   OH276351   4.236   2.092   6.042 -0.4563  0.6254  1.1326
18287TIP3    H176352   4.204   2.181   6.030 -0.2449  0.4560 -0.9904
18287TIP3    H276353   4.180   2.039   5.984 -0.5792 -0.6104  2.3685
18288TIP3   OH276354   4.760   3.763   5.211 -0.3296 -0.0544  0.2968
18288TIP3    H176355   4.723   3.826   5.149 -1.8518 -0.1474  1.0879
18288TIP3    H276356   4.843   3.802   5.239 -0.2434  0.5880 -0.8188
18289TIP3   OH276357   6.601   2.879   3.682  0.3057 -0.0049  0.7468
18289TIP3    H176358   6.653   2.921   3.614 -2.1395  0.4359 -0.9179
18289TIP3    H276359   6.615   2.785   3.670  0.2261  0.0919 -0.0796
18290TIP3   OH276360   6.858   2.706   4.902 -0.0019 -0.2157  0.1579
18290TIP3    H176361   6.802   2.775   4.937 -0.4948 -1.4245  1.8267
18290TIP3    H276362   6.907   2.674   4.977 -0.3017 -2.1537 -0.4217
18291TIP3   OH276363   4.340   1.626   5.577 -0.2799 -0.0769  0.2268
18291TIP3    H176364   4.334   1.697   5.640 -0.0907  0.3680 -0.2589
18291TIP3    H276365   4.257   1.578   5.586 -1.1051  1.1735 -0.6128
18292TIP3   OH276366   5.639   3.013   2.749 -0.3248  0.0147  0.8025
18292TIP3    H176367   5.607   3.096   2.784  0.6702  1.1956 -1.0059
18292TIP3    H276368   5.654   2.958   2.826 -0.2362  1.7909  2.0746
18293TIP3   OH276369   5.116   2.899   3.386 -0.0701 -0.1920 -0.6689
18293TIP3    H176370   5.151   2.976   3.341 -0.1969  0.6410  0.6151
18293TIP3    H276371   5.023   2.896   3.360 -0.0262 -0.0083 -0.8477
18294TIP3   OH276372   4.383   4.335   4.558 -0.7172  0.3048 -0.6138
18294TIP3    H176373   4.348   4.278   4.489 -1.8648  0.9021 -0.5328
18294TIP3    H276374   4.404   4.417   4.513 -0.6335  0.3906 -0.4186
18295TIP3   OH276375   5.448   4.471   4.636 -0.1442 -0.0645  0.1090
18295TIP3    H176376   5.423   4.563   4.645 -0.6966 -0.2295  0.3332
18295TIP3    H276377   5.526   4.461   4.691 -0.8332 -0.0194  1.1269
18296TIP3   OH276378   0.663   3.572   5.180 -0.1659 -0.1979  0.1390
18296TIP3    H176379   0.709   3.638   5.128 -0.6466 -0.5047 -0.6919
18296TIP3    H276380   0.571   3.595   5.172 -0.3071 -0.7627  0.1301
18297TIP3   OH276381   0.131   6.021   4.368 -0.8735 -0.1646 -0.3136
18297TIP3    H176382   0.119   5.943   4.423 -0.2558 -0.2762 -0.3325
18297TIP3    H276383   0.220   6.012   4.334 -0.0400  1.6329  1.3465
18298TIP3   OH276384   7.020   3.985   2.615  0.1571  0.1744 -0.1858
18298TIP3    H176385   6.995   3.894   2.602  0.7317 -0.0604  0.3209
18298TIP3    H276386   7.089   3.982   2.681 -0.1418  1.0187  0.1766
18299TIP3   OH276387   5.259   2.106   5.687 -0.1959 -0.1677  0.3704
18299TIP3    H176388   5.327   2.174   5.694 -0.9751  0.5650  0.8864
18299TIP3    H276389   5.177   2.155   5.682 -0.5892 -0.9895 -1.7937
18300TIP3   OH276390   5.704   4.098   5.387 -0.5800 -0.0361 -0.1622
18300TIP3    H176391   5.784   4.052   5.363  0.9398  2.1927  0.5363
18300TIP3    H276392   5.687   4.071   5.477 -0.6075 -0.4560 -0.2891
18301TIP3   OH276393   3.583   2.764   5.552  0.1827  0.3387 -0.3432
18301TIP3    H176394   3.497   2.800   5.531  0.7221  1.9886  0.1531
18301TIP3    H276395   3.600   2.794   5.641  0.6704 -1.1608  0.0743
18302TIP3   OH276396   6.195   4.694   5.519 -0.0984 -0.8290 -0.5295
18302TIP3    H176397   6.266   4.745   5.558  1.0019 -1.8357 -1.1906
18302TIP3    H276398   6.207   4.704   5.425 -1.2476 -0.4466 -0.6375
18303TIP3   OH276399   5.730   2.948   3.732  0.5283  0.6004 -0.2740
18303TIP3    H176400   5.736   3.025   3.676 -1.2627  0.9104 -0.0652
18303TIP3    H276401   5.636   2.934   3.744  0.8460 -1.1295  0.3607
18304TIP3   OH276402   7.200   2.865   5.071 -0.3148  0.4057 -0.4533
18304TIP3    H176403   7.279   2.915   5.050  0.6020 -0.9538 -0.2317
18304TIP3    H276404   7.228   2.800   5.134 -1.3540 -0.8839 -1.2908
18305TIP3   OH276405   5.556   2.454   0.574  0.0022 -0.3776  0.0976
18305TIP3    H176406   5.477   2.494   0.538  0.9854  0.6757 -0.9700
18305TIP3    H276407   5.576   2.506   0.652  1.0133  0.9782 -1.0254
18306TIP3   OH276408   2.670   3.991   4.425 -0.0302  0.4652  0.2354
18306TIP3    H176409   2.588   3.981   4.473  1.2351 -0.3255  2.2977
18306TIP3    H276410   2.690   4.084   4.431  0.6262  0.2367  2.1967
18307TIP3   OH276411   4.499   2.247   4.881 -0.0542  0.1042 -0.1786
18307TIP3    H176412   4.547   2.292   4.950 -2.3673  1.0103  0.8784
18307TIP3    H276413   4.514   2.299   4.803  1.2309 -0.0151 -0.0249
18308TIP3   OH276414   3.927   2.775   5.618  0.5219  0.0507 -0.5084
18308TIP3    H176415   4.004   2.826   5.642  2.2746 -1.8412 -1.9659
18308TIP3    H276416   3.931   2.769   5.522 -0.2804 -1.8181 -0.4530
18309TIP3   OH276417   6.360   2.171   3.907  0.5577 -0.0258 -0.0017
18309TIP3    H176418   6.430   2.123   3.951  0.9506 -2.7537 -3.4142
18309TIP3    H276419   6.282   2.118   3.921  0.2264  0.2912 -0.6338
18310TIP3   OH276420   0.050   3.765   4.029 -0.0620  0.3457  0.6770
18310TIP3    H176421   0.081   3.715   3.954  1.7280  0.7462  1.1098
18310TIP3    H276422  -0.038   3.793   4.005  0.1224 -0.3422 -0.8621
18311TIP3   OH276423   7.224   1.756   4.365  0.5549  0.6093 -0.5432
18311TIP3    H176424   7.212   1.684   4.302  0.3015 -0.5787  0.8304
18311TIP3    H276425   7.319   1.766   4.373  0.5865  0.7021 -1.0470
18312TIP3   OH276426   6.715   3.948   5.015 -0.2952 -0.2294  0.1505
18312TIP3    H176427   6.691   4.016   5.078 -0.3635  0.9550 -1.1286
18312TIP3    H276428   6.743   3.996   4.937 -0.5151 -1.6790 -0.8406
18313TIP3   OH276429   6.306   2.318   3.342  0.2765 -0.8088 -0.0050
18313TIP3    H176430   6.351   2.309   3.426  2.5370  0.0048 -1.0888
18313TIP3    H276431   6.373   2.353   3.282 -2.0502  1.3399 -1.4521
18314TIP3   OH276432   6.589   3.167   4.369  0.0948 -0.2571 -0.4570
18314TIP3    H176433   6.632   3.152   4.453 -1.5371  0.9177  0.6155
18314TIP3    H276434   6.544   3.084   4.351  1.4009 -0.9132 -0.7646
18315TIP3   OH276435   5.326   4.717   4.657  0.5079  0.1527 -0.2315
18315TIP3    H176436   5.344   4.794   4.602 -0.3661  0.1467 -0.5384
18315TIP3    H276437   5.248   4.677   4.618 -2.9865  2.7246  3.6555
18316TIP3   OH276438   6.989   1.659   4.511 -0.1842  0.2343  0.2643
18316TIP3    H176439   7.066   1.702   4.474 -0.1658  0.4490  0.5565
18316TIP3    H276440   6.929   1.651   4.437 -0.2772  0.9590  0.2635
18317TIP3   OH276441   6.130   2.690   5.857  0.0425  0.3410  0.4297
18317TIP3    H176442   6.036   2.710   5.863  0.2077  1.0870  0.5747
18317TIP3    H276443   6.141   2.612   5.911 -0.2597  1.0867  1.5871
18318TIP3   OH276444   4.841   4.644   1.465  0.2243 -0.2711  0.4298
18318TIP3    H176445   4.838   4.550   1.450  0.0529 -0.3735  1.0955
18318TIP3    H276446   4.751   4.668   1.487  0.4349 -0.0945  1.1066
18319TIP3   OH276447   0.652   2.507   4.162 -0.7938 -0.3940  0.1282
18319TIP3    H176448   0.695   2.584   4.197  0.9118 -0.1144 -2.4642
18319TIP3    H276449   0.560   2.532   4.153 -0.5398  0.7807  0.8123
18320TIP3   OH276450   4.923   2.540   4.849 -0.5324 -0.5295 -0.0509
18320TIP3    H176451   4.911   2.545   4.944  0.5579  1.5010  0.0125
18320TIP3    H276452   4.853   2.596   4.814  0.0284 -0.0127 -0.3564
18321TIP3   OH276453   6.373   3.339   4.065 -0.1302  0.2101 -0.2016
18321TIP3    H176454   6.423   3.330   4.145 -2.0180  2.0367  1.2268
18321TIP3    H276455   6.285   3.307   4.087 -0.4516 -0.0557 -1.7634
18322TIP3   OH276456   1.291   1.056   3.360 -0.0121  0.7207  0.0206
18322TIP3    H176457   1.235   1.111   3.414 -0.2833  1.0472 -0.5859
18322TIP3    H276458   1.380   1.085   3.381 -0.1380  1.1555 -0.0378
18323TIP3   OH276459   0.369   2.702   5.039 -0.2458  0.1024  0.1184
18323TIP3    H176460   0.350   2.773   4.977  0.0020 -0.9648 -1.2263
18323TIP3    H276461   0.457   2.672   5.013 -0.8333 -1.4667 -0.1011
18324TIP3   OH276462   0.603   3.505   5.456  0.2083  0.3582 -0.5267
18324TIP3    H176463   0.562   3.419   5.463  2.4802 -0.7251 -0.0181
18324TIP3    H276464   0.605   3.523   5.362 -0.2433 -0.1455 -0.6345
18325TIP3   OH276465   0.463   4.580   4.089  0.3788 -0.2537  0.4618
18325TIP3    H176466   0.473   4.530   4.170  1.1746 -2.2572 -0.8199
18325TIP3    H276467   0.387   4.540   4.046  0.3798  0.3420 -0.1038
18326TIP3   OH276468   0.634   2.668   3.059 -0.0371 -0.5238 -0.3222
18326TIP3    H176469   0.705   2.707   3.110 -0.6560 -2.2667  1.9312
18326TIP3    H276470   0.679   2.609   2.998  0.5702 -0.2030 -0.1902
18327TIP3   OH276471   6.448   4.612   4.541 -0.0510  0.0865  0.2698
18327TIP3    H176472   6.445   4.556   4.463  0.5253 -0.5633  0.6952
18327TIP3    H276473   6.499   4.688   4.514  0.7409 -0.4612  0.2038
18328TIP3   OH276474   5.448   2.479   4.418 -0.2174  0.2622 -0.1315
18328TIP3    H176475   5.470   2.451   4.507  0.1031 -0.6753 -0.4931
18328TIP3    H276476   5.452   2.574   4.420 -1.5366  0.3038  1.1990
18329TIP3   OH276477   6.286   4.771   2.487  0.0535 -0.1983  0.1981
18329TIP3    H176478   6.362   4.808   2.441  0.0631  0.2981  0.6114
18329TIP3    H276479   6.299   4.676   2.481  1.8189 -0.1342  2.0406
18330TIP3   OH276480   4.480   4.897   4.585  0.2432  0.5366  0.1998
18330TIP3    H176481   4.569   4.865   4.575 -0.5072 -1.1080 -1.4811
18330TIP3    H276482   4.435   4.830   4.637 -0.4002  0.6173 -0.2397
18331TIP3   OH276483   3.130   2.553   3.695  0.4966 -0.2153 -0.1992
18331TIP3    H176484   3.183   2.478   3.721  1.2733  0.3771 -0.0602
18331TIP3    H276485   3.172   2.628   3.737  1.8933  0.8110 -3.2997
18332TIP3   OH276486   5.304   3.693   4.420 -0.5962  0.2665  0.4145
18332TIP3    H176487   5.360   3.766   4.394 -0.4605 -0.3458 -1.0105
18332TIP3    H276488   5.363   3.618   4.426 -1.0719 -0.1449 -0.0194
18333TIP3   OH276489   6.614   2.075   4.929  0.5242  0.2980 -0.4278
18333TIP3    H176490   6.546   2.129   4.969  0.0931 -0.1719 -0.5302
18333TIP3    H276491   6.634   2.119   4.846  0.0706  0.2166 -0.5780
18334TIP3   OH276492   6.959   6.501   2.492  0.5390 -0.5326  0.3895
18334TIP3    H176493   6.881   6.538   2.451  0.6019 -0.9765 -0.1248
18334TIP3    H276494   6.926   6.459   2.572  0.0220 -2.1132 -0.6463
18335TIP3   OH276495   7.062   4.360   3.873  0.1332  0.2633 -0.3853
18335TIP3    H176496   7.056   4.266   3.857 -0.7032 -0.0738  1.7723
18335TIP3    H276497   6.989   4.379   3.932  1.1401  1.9911  0.3387
18336TIP3   OH276498   1.038   3.269   4.031 -0.2017  0.2250 -0.3308
18336TIP3    H176499   0.983   3.347   4.027 -0.2814  0.5064  3.8486
18336TIP3    H276500   0.977   3.198   4.049  0.0742 -0.5668 -2.4195
18337TIP3   OH276501   2.565   4.763   4.607  0.5038 -0.0359 -0.2873
18337TIP3    H176502   2.643   4.728   4.652  1.4183  2.0099 -0.2271
18337TIP3    H276503   2.600   4.823   4.542 -0.9957 -0.0783 -1.1420
18338TIP3   OH276504   6.820   5.337   3.677  0.4358  0.9521  0.6257
18338TIP3    H176505   6.833   5.243   3.683 -2.1395  0.5865  1.1466
18338TIP3    H276506   6.858   5.361   3.592 -2.1458 -1.2003 -1.2376
18339TIP3   OH276507   4.485   4.469   3.584 -0.1361 -0.0426  0.4395
18339TIP3    H176508   4.514   4.377   3.584  0.6988  0.2084 -0.6112
18339TIP3    H276509   4.527   4.507   3.507 -0.1724  1.3238  1.0850
18340TIP3   OH276510   5.601   3.451   5.521 -0.2722 -0.9553 -0.6356
18340TIP3    H176511   5.589   3.369   5.569  1.1251 -0.2575  0.9265
18340TIP3    H276512   5.686   3.483   5.548 -0.7774  0.9996 -1.2866
18341TIP3   OH276513   5.883   3.100   4.274 -0.4911 -0.1169 -0.6983
18341TIP3    H176514   5.824   3.174   4.288 -0.2278  0.0119 -0.2545
18341TIP3    H276515   5.883   3.087   4.180 -1.4928 -0.3309 -0.6726
18342TIP3   OH276516   6.405   2.673   6.123 -0.0207 -0.5654  0.3334
18342TIP3    H176517   6.376   2.597   6.174  0.4503 -0.7721  0.2925
18342TIP3    H276518   6.329   2.731   6.122 -0.9099 -1.7147 -0.9716
18343TIP3   OH276519   0.864   3.314   2.841 -0.6277 -0.0596 -0.1462
18343TIP3    H176520   0.813   3.260   2.901  0.0874 -1.0592 -0.4350
18343TIP3    H276521   0.851   3.403   2.873 -1.2787 -0.4609  0.7327
18344TIP3   OH276522   6.937   2.538   4.457 -0.3440  0.2920  0.1478
18344TIP3    H176523   6.974   2.620   4.424 -0.1885  0.4629  0.7558
18344TIP3    H276524   6.842   2.550   4.448 -0.2599 -0.5079 -2.2898
18345TIP3   OH276525   6.283   4.773   5.257 -0.0736  0.0183  0.0129
18345TIP3    H176526   6.304   4.834   5.186 -2.2372  0.3552 -0.3769
18345TIP3    H276527   6.275   4.688   5.214  1.7086 -0.3298  0.3580
18346TIP3   OH276528   3.555   4.840   5.315 -0.1252 -0.0107  0.0917
18346TIP3    H176529   3.472   4.815   5.356  0.1304  1.3912  1.4900
18346TIP3    H276530   3.616   4.850   5.388  0.7243  1.0244 -0.7498
18347TIP3   OH276531   6.106   5.121   5.342  0.3211  0.2236  0.1433
18347TIP3    H176532   6.115   5.076   5.426 -0.3808 -2.7901 -1.3107
18347TIP3    H276533   6.193   5.157   5.324  1.3021 -1.7980  0.7234
18348TIP3   OH276534   6.666   2.520   5.254 -1.0021 -0.1555 -0.5609
18348TIP3    H176535   6.752   2.480   5.272 -0.7492  0.9069  0.6423
18348TIP3    H276536   6.623   2.524   5.340 -2.0014 -0.0920 -1.0608
18349TIP3   OH276537   5.469   2.925   4.595 -0.0565 -0.0617  0.1660
18349TIP3    H176538   5.488   2.942   4.688 -0.1888 -0.2452  0.2247
18349TIP3    H276539   5.519   2.993   4.548  2.7725 -2.0381  0.1890
18350TIP3   OH276540   5.111   2.835   4.430  0.7014 -0.1150  0.4084
18350TIP3    H176541   5.115   2.762   4.491  1.9899 -0.1852  0.2664
18350TIP3    H276542   5.152   2.908   4.477  0.6627  0.1418  0.0531
18351TIP3   OH276543   0.695   2.635   0.041  0.0892  0.0527  0.4151
18351TIP3    H176544   0.614   2.653  -0.007  1.1061  0.8361 -1.0348
18351TIP3    H276545   0.714   2.716   0.089  0.9409  0.4753 -0.6242
18352TIP3   OH276546   5.937   0.565   2.842  0.3470  0.9338  0.0473
18352TIP3    H176547   5.907   0.617   2.768  1.5861  0.6013 -0.7038
18352TIP3    H276548   5.993   0.625   2.892  0.4081  0.8375  0.0955
18353TIP3   OH276549   3.629   3.264   4.290 -0.2525 -0.2672 -0.5177
18353TIP3    H176550   3.575   3.293   4.363  0.3183  0.4184 -0.3596
18353TIP3    H276551   3.634   3.341   4.233  3.6984  0.9579  1.3200
18354TIP3   OH276552   0.478   5.254   4.019  0.2767 -0.3922  0.1398
18354TIP3    H176553   0.568   5.286   4.014 -0.7242  2.5907 -0.0824
18354TIP3    H276554   0.476   5.178   3.961  2.4331  0.0132 -0.5106
18355TIP3   OH276555   4.933   5.053   3.798 -0.0164 -0.0346 -0.4039
18355TIP3    H176556   4.918   4.989   3.867  0.7308 -0.1714 -0.3642
18355TIP3    H276557   4.950   5.135   3.844  1.9097 -0.4282 -0.3776
18356TIP3   OH276558   5.561   2.343   5.302  0.0872 -0.6139  0.2311
18356TIP3    H176559   5.652   2.359   5.324  0.1019 -1.3176  0.6880
18356TIP3    H276560   5.556   2.360   5.208  0.6948 -0.5862  0.2026
18357TIP3   OH276561   0.373   4.214   2.745 -0.3715  0.3796 -0.0412
18357TIP3    H176562   0.394   4.203   2.838 -1.0819 -1.4206 -0.0843
18357TIP3    H276563   0.359   4.308   2.735 -1.5874  0.4337  1.9651
18358TIP3   OH276564   6.277   2.099   3.149 -0.0895 -0.4870 -0.4515
18358TIP3    H176565   6.229   2.153   3.211 -2.9079 -1.4393 -1.7263
18358TIP3    H276566   6.242   2.123   3.064  0.3246 -2.5959 -1.2538
18359TIP3   OH276567   6.540   1.970   3.946  0.0309  0.8966 -0.3028
18359TIP3    H176568   6.484   1.908   3.900 -0.7492 -0.2053  2.0715
18359TIP3    H276569   6.602   1.916   3.995  0.3071  2.0056  0.6118
18360TIP3   OH276570   7.126   3.292   4.865  0.0673  0.5012 -0.3955
18360TIP3    H176571   7.185   3.271   4.937 -0.0349  3.0330  0.4750
18360TIP3    H276572   7.145   3.383   4.844 -0.9700  0.2428 -2.5658
18361TIP3   OH276573   6.544   2.398   5.956 -0.3054 -0.2358 -0.2075
18361TIP3    H176574   6.605   2.443   6.014 -2.5883  0.8642  1.4390
18361TIP3    H276575   6.511   2.467   5.898 -0.9614 -0.5379 -0.1986
18362TIP3   OH276576   6.508   1.936   5.549  0.1898  0.0979  0.4599
18362TIP3    H176577   6.528   2.010   5.492  0.0658 -1.0970 -1.1696
18362TIP3    H276578   6.423   1.958   5.587 -1.4799 -0.7239 -2.6455
18363TIP3   OH276579   4.157   4.532   5.143 -0.6383  0.3813 -0.2445
18363TIP3    H176580   4.127   4.521   5.053 -2.7126 -2.9327  0.7612
18363TIP3    H276581   4.079   4.560   5.191 -0.5799 -1.9217  1.2487
18364TIP3   OH276582   6.367   2.560   5.775 -0.4025  0.0063  0.0463
18364TIP3    H176583   6.332   2.630   5.830 -1.8311  1.4912 -2.6671
18364TIP3    H276584   6.291   2.507   5.752  0.2206 -0.7383 -0.3285
18365TIP3   OH276585   4.192   2.285   4.461 -0.1817  0.3009  0.7710
18365TIP3    H176586   4.199   2.361   4.519  0.8297  0.5250  0.3584
18365TIP3    H276587   4.150   2.319   4.382  2.8333  1.0823 -0.5454
18366TIP3   OH276588   1.986   3.341   5.185 -0.2131  0.3522  0.0553
18366TIP3    H176589   2.054   3.344   5.253  0.4004  0.0322 -0.5474
18366TIP3    H276590   1.904   3.359   5.233  0.2526  0.4405  0.8279
18367TIP3   OH276591   7.329   2.713   4.860 -0.4542  0.0324 -0.1227
18367TIP3    H176592   7.239   2.699   4.827 -0.5916 -0.2702  0.3857
18367TIP3    H276593   7.317   2.752   4.946 -0.0861  0.6178 -0.3326
18368TIP3   OH276594   0.318   4.435   2.297 -0.4241  0.5985 -0.0432
18368TIP3    H176595   0.228   4.462   2.315 -1.1209 -1.2204 -0.6821
18368TIP3    H276596   0.350   4.501   2.235 -1.8595  0.4045 -1.0327
18369TIP3   OH276597   3.455   2.512   5.258 -0.2820 -0.0402 -0.4042
18369TIP3    H176598   3.416   2.558   5.332 -0.6069 -1.4702  0.3258
18369TIP3    H276599   3.381   2.475   5.211 -0.0236  0.2402 -1.0359
18370TIP3   OH276600   6.021   4.512   3.221  0.1829  0.0273 -0.3626
18370TIP3    H176601   5.949   4.448   3.222 -0.6435  0.9544 -0.0265
18370TIP3    H276602   5.983   4.589   3.179  0.2312  1.3949  2.0696
18371TIP3   OH276603   6.662   2.432   3.891 -0.2245 -0.5321 -0.1451
18371TIP3    H176604   6.639   2.344   3.861  1.5539 -0.3964 -1.9951
18371TIP3    H276605   6.673   2.423   3.986 -1.2607 -2.0276 -0.1573
18372TIP3   OH276606   5.724   2.136   4.778  0.3784  0.1576  0.5053
18372TIP3    H176607   5.686   2.149   4.865  2.7030 -2.9436  2.0544
18372TIP3    H276608   5.709   2.044   4.758  2.7006  0.0716 -1.0132
18373TIP3   OH276609   5.785   2.881   5.628 -0.1462 -0.1692  0.6012
18373TIP3    H176610   5.726   2.812   5.659  1.7124 -1.4326  1.4455
18373TIP3    H276611   5.860   2.876   5.687  1.2307  0.7637 -1.0274
18374TIP3   OH276612   5.565   5.427   4.046 -0.6957 -0.8583 -0.0562
18374TIP3    H176613   5.630   5.400   4.110 -1.8635  0.1086  1.5567
18374TIP3    H276614   5.606   5.410   3.961  0.9343 -1.9540  0.9416
18375TIP3   OH276615   1.409   2.431   0.818 -0.1857  0.1061  0.4502
18375TIP3    H176616   1.377   2.459   0.904  0.0774  2.8659 -0.2915
18375TIP3    H276617   1.344   2.366   0.789 -0.6942 -0.2985  2.3841
18376TIP3   OH276618   6.137   3.593   3.571  0.9506  0.0976 -0.1006
18376TIP3    H176619   6.175   3.546   3.497 -0.3500 -0.8298 -0.1783
18376TIP3    H276620   6.071   3.534   3.607  1.6039  0.5145  1.8407
18377TIP3   OH276621   6.214   5.202   2.256  0.2288 -0.1282 -0.4305
18377TIP3    H176622   6.128   5.237   2.235  0.2578 -0.3003 -0.8422
18377TIP3    H276623   6.205   5.107   2.247  0.6297 -0.1044 -1.1163
18378TIP3   OH276624   6.158   3.120   2.511  0.4996  0.3666 -0.0148
18378TIP3    H176625   6.113   3.058   2.455  2.0311 -1.5050  0.7679
18378TIP3    H276626   6.104   3.124   2.591  0.7611 -0.5067  0.2116
18379TIP3   OH276627   4.165   3.393   4.657  0.1746 -0.5870  0.4015
18379TIP3    H176628   4.116   3.325   4.610  0.4208 -1.1279  0.9289
18379TIP3    H276629   4.175   3.359   4.746  1.7787 -0.6146  0.2194
18380TIP3   OH276630   1.873   2.067   5.044  0.1768  0.0553  0.5311
18380TIP3    H176631   1.856   2.116   4.963 -0.8525 -0.9960  0.0920
18380TIP3    H276632   1.816   1.990   5.038  1.3125 -0.8853  1.4911
18381TIP3   OH276633   1.168   4.328   5.205 -0.3851 -0.0630 -0.3223
18381TIP3    H176634   1.201   4.314   5.117  0.5888 -0.0804  0.0432
18381TIP3    H276635   1.073   4.331   5.195 -0.2985 -0.5773 -1.2959
18382TIP3   OH276636   5.486   1.969   5.518 -0.4549 -0.9894  0.3059
18382TIP3    H176637   5.579   1.954   5.535 -0.3929 -3.0153 -1.6223
18382TIP3    H276638   5.451   1.996   5.603  2.1431  1.3315  0.7389
18383TIP3   OH276639   6.171   3.622   3.933  0.5282 -0.1102 -0.0890
18383TIP3    H176640   6.110   3.552   3.908 -0.3938 -0.0479  1.8204
18383TIP3    H276641   6.237   3.578   3.987  0.0634  0.4273  0.9405
18384TIP3   OH276642   6.404   4.253   4.524  0.4922 -0.1592 -0.0424
18384TIP3    H176643   6.371   4.165   4.505 -0.3903  0.5292 -1.8692
18384TIP3    H276644   6.441   4.282   4.441 -0.1643  1.5961  0.2661
18385TIP3   OH276645   6.276   4.780   3.907 -0.1512 -0.0768  0.2827
18385TIP3    H176646   6.212   4.825   3.963 -0.9902 -0.8329 -0.0468
18385TIP3    H276647   6.266   4.688   3.929  2.4103 -0.0176  1.8244
18386TIP3   OH276648   2.413   5.791   5.311  0.2514  0.5143 -0.0784
18386TIP3    H176649   2.361   5.739   5.250 -0.9244  0.3597  1.0287
18386TIP3    H276650   2.373   5.878   5.309 -0.6001  0.1889  1.3663
18387TIP3   OH276651   4.797   2.972   4.792  0.5666 -0.2853  0.0944
18387TIP3    H176652   4.869   2.955   4.731  1.4047 -1.4507  1.3833
18387TIP3    H276653   4.748   3.043   4.751 -0.7233 -3.1218 -3.4942
18388TIP3   OH276654   6.026   2.885   2.424  0.1641  0.2435  0.0082
18388TIP3    H176655   5.936   2.911   2.442 -0.2767 -0.3592 -1.3099
18388TIP3    H276656   6.024   2.852   2.334  1.3871 -1.2021  0.5027
18389TIP3   OH276657   0.630   3.536   2.743 -0.0581  0.6058  0.1480
18389TIP3    H176658   0.559   3.482   2.776  0.4438  0.9425  1.8345
18389TIP3    H276659   0.697   3.532   2.811  0.9238  1.4916 -0.7446
18390TIP3   OH276660   6.983   2.820   3.925  0.1830 -0.3474 -0.3264
18390TIP3    H176661   6.917   2.762   3.888  0.2069 -0.5815 -0.0059
18390TIP3    H276662   6.935   2.872   3.990  0.4177 -0.8820  0.2827
18391TIP3   OH276663   5.044   1.662   4.825 -0.6330  0.8194 -0.4838
18391TIP3    H176664   5.105   1.729   4.795  1.2776 -0.1799  0.9969
18391TIP3    H276665   5.094   1.580   4.816 -1.6937  0.0020  0.9151
18392TIP3   OH276666   6.413   4.274   2.840 -0.6075 -0.4465  0.0849
18392TIP3    H176667   6.438   4.359   2.806 -3.1687  0.4945  0.4457
18392TIP3    H276668   6.370   4.229   2.767  0.6131 -1.3769 -0.0700
18393TIP3   OH276669   0.736   5.451   5.962 -0.3104 -0.1879  0.2699
18393TIP3    H176670   0.828   5.472   5.975 -0.3904  1.0133 -1.0050
18393TIP3    H276671   0.731   5.421   5.871 -1.0401 -1.0871  0.5910
18394TIP3   OH276672   6.681   4.800   4.175  0.1622  0.7285 -0.3496
18394TIP3    H176673   6.762   4.844   4.149 -0.3002  1.4693 -0.5368
18394TIP3    H276674   6.616   4.832   4.114 -0.4607  0.7937  0.3412
18395TIP3   OH276675   7.071   3.623   3.268  0.4996  0.2159  0.0452
18395TIP3    H176676   7.044   3.682   3.339 -1.6873 -0.6629 -0.0016
18395TIP3    H276677   7.160   3.649   3.248  0.8510  1.0721  2.5231
18396TIP3   OH276678   6.260   2.396   3.770  0.8294  0.0553 -0.7092
18396TIP3    H176679   6.292   2.318   3.816  0.3896 -1.1661 -2.4337
18396TIP3    H276680   6.339   2.436   3.733  0.8497 -0.6290 -1.4181
18397TIP3   OH276681   7.002   3.052   5.123 -0.4142  0.0272 -0.2003
18397TIP3    H176682   7.047   2.969   5.109 -0.2484 -0.0879  1.0207
18397TIP3    H276683   6.998   3.091   5.036  0.6477 -0.6683 -0.5742
18398TIP3   OH276684   4.256   3.201   5.161 -0.6224  0.2087  0.8123
18398TIP3    H176685   4.270   3.209   5.255 -0.9180 -0.2353  0.8966
18398TIP3    H276686   4.299   3.119   5.137 -3.0127 -1.1573  1.0643
18399TIP3   OH276687   0.441   1.880   5.845  0.2965 -0.3462  0.1912
18399TIP3    H176688   0.360   1.878   5.794  1.8353  2.5803 -2.6225
18399TIP3    H276689   0.431   1.955   5.903  0.9802  0.0962 -0.2480
18400TIP3   OH276690   0.336   3.126   4.918  0.1108 -0.0623  0.0971
18400TIP3    H176691   0.414   3.131   4.861  0.1910  0.8868  0.2886
18400TIP3    H276692   0.309   3.217   4.929 -0.9066 -0.3823  0.2114
18401TIP3   OH276693   6.413   2.979   4.320 -0.6853  0.1548  0.1381
18401TIP3    H176694   6.382   2.897   4.360  0.8105 -0.5538 -0.0969
18401TIP3    H276695   6.345   3.003   4.258 -2.0905  0.1738  1.6668
18402TIP3   OH276696   5.938   2.627   3.996  0.1217 -0.5001 -0.5465
18402TIP3    H176697   5.894   2.652   4.076 -0.1698  1.1949 -1.2156
18402TIP3    H276698   5.870   2.632   3.928  0.2784 -2.2501 -0.8413
18403TIP3   OH276699   7.280   4.396   5.762 -0.1158  0.3448 -0.1643
18403TIP3    H176700   7.325   4.456   5.821 -0.9765  0.2561  0.5983
18403TIP3    H276701   7.223   4.345   5.819  0.6251 -1.2318 -0.7866
18404TIP3   OH276702   0.144   1.866   5.200 -0.4749  0.1280  0.3050
18404TIP3    H176703   0.210   1.884   5.268  0.3111 -3.4132  0.5725
18404TIP3    H276704   0.195   1.838   5.124 -1.6054 -1.7587  0.2204
18405TIP3   OH276705   5.208   4.836   4.288  0.4416  0.0644  0.2975
18405TIP3    H176706   5.185   4.889   4.364 -0.7045 -0.2996  0.2126
18405TIP3    H276707   5.178   4.748   4.310  1.0447 -0.2603 -0.1530
18406TIP3   OH276708   5.702   3.269   5.719  0.2489  0.1152  0.4497
18406TIP3    H176709   5.773   3.305   5.772 -0.2486  1.5818  0.1402
18406TIP3    H276710   5.683   3.184   5.759  0.4758  0.8060  2.0824
18407TIP3   OH276711   6.861   2.048   3.524 -0.0294  0.0618 -0.7876
18407TIP3    H176712   6.857   2.113   3.594  0.4830  0.2286 -0.9101
18407TIP3    H276713   6.787   1.989   3.541 -0.1817  0.3731 -0.3771
18408TIP3   OH276714   0.315   3.413   4.954  0.0214 -1.0073  0.0129
18408TIP3    H176715   0.283   3.500   4.980  0.1712 -1.2232  0.9146
18408TIP3    H276716   0.391   3.431   4.899 -1.9188 -0.4668 -2.5641
18409TIP3   OH276717   6.530   6.104   2.211  0.1946 -0.0421  1.2204
18409TIP3    H176718   6.473   6.058   2.273 -1.1821  0.2749  0.2062
18409TIP3    H276719   6.594   6.038   2.184 -2.4886 -1.7993 -1.1581
18410TIP3   OH276720   6.154   3.984   5.048 -0.0313  0.3151  0.4561
18410TIP3    H176721   6.172   3.973   4.955 -2.2908  0.8169 -0.0516
18410TIP3    H276722   6.178   3.900   5.087 -0.0587 -0.2451 -0.7142
18411TIP3   OH276723   6.894   4.934   4.109  0.5790 -0.1284 -0.1212
18411TIP3    H176724   6.888   4.993   4.034  0.8413  0.8587  0.6235
18411TIP3    H276725   6.981   4.951   4.145  0.0674  0.1260  1.0032
18412TIP3   OH276726   6.615   2.681   5.933  0.2989  0.2380 -0.7751
18412TIP3    H176727   6.670   2.619   5.982 -0.5343 -1.1123 -1.5160
18412TIP3    H276728   6.534   2.686   5.983  0.3128  0.6469 -0.7893
18413TIP3   OH276729   1.191   1.623   4.241  0.3173  0.2437  0.1597
18413TIP3    H176730   1.142   1.550   4.203 -1.3869  1.3233  0.2222
18413TIP3    H276731   1.186   1.608   4.336  1.0392 -0.2187  0.1301
18414TIP3   OH276732   1.841   2.857   4.124  0.1814  0.1268  0.1184
18414TIP3    H176733   1.889   2.832   4.045 -0.8554 -0.1410 -0.4367
18414TIP3    H276734   1.772   2.915   4.093 -2.1696 -2.4162  0.3647
18415TIP3   OH276735   3.869   1.369   3.837 -0.4502  0.2059 -0.5429
18415TIP3    H176736   3.875   1.449   3.890  3.4732 -1.4600  1.6965
18415TIP3    H276737   3.916   1.390   3.757 -0.5709  0.5651 -0.5204
18416TIP3   OH276738   6.218   4.506   3.945 -0.2688 -0.0311  0.1887
18416TIP3    H176739   6.242   4.430   3.997  0.1231  0.1831  0.3279
18416TIP3    H276740   6.125   4.495   3.926  0.0385 -1.1248 -0.7730
18417TIP3   OH276741   0.067   2.800   4.401 -0.7666 -0.7491  0.4663
18417TIP3    H176742   0.017   2.763   4.328 -1.0761 -0.5147  0.5618
18417TIP3    H276743   0.058   2.736   4.471 -0.8542 -0.7495  0.4541
18418TIP3   OH276744   5.289   4.829   3.415 -0.1019  0.5802 -0.1274
18418TIP3    H176745   5.371   4.870   3.442 -0.0910  0.6279 -0.2364
18418TIP3    H276746   5.258   4.785   3.494  0.5497 -0.2888 -0.3426
18419TIP3   OH276747   6.175   3.292   4.261  0.3622  0.0793  0.1488
18419TIP3    H176748   6.106   3.228   4.244 -0.7463  0.8114  1.6976
18419TIP3    H276749   6.189   3.286   4.356 -0.0504  2.3976  0.3732
18420TIP3   OH276750   6.163   0.366   5.021  0.2947  0.5094  0.2043
18420TIP3    H176751   6.105   0.318   5.080  2.9627 -0.7658  1.8764
18420TIP3    H276752   6.166   0.455   5.057  0.3968  0.2355  0.8820
18421TIP3   OH276753   7.111   2.173   5.407 -0.0939 -0.1546 -0.0058
18421TIP3    H176754   7.176   2.138   5.346 -0.0725  1.5143 -0.9539
18421TIP3    H276755   7.152   2.163   5.493  1.4984  1.0210 -0.6028
18422TIP3   OH276756   4.677   2.462   5.730 -0.2102  0.4964  0.6952
18422TIP3    H176757   4.766   2.495   5.741  0.0470 -0.3781  1.2969
18422TIP3    H276758   4.636   2.524   5.670  0.5726  1.3246  1.0007
18423TIP3   OH276759   6.797   1.604   4.972 -0.9717  0.2124 -0.2668
18423TIP3    H176760   6.732   1.620   4.903 -1.0430  0.7199 -0.0870
18423TIP3    H276761   6.745   1.580   5.049 -0.9593  0.7421 -0.0880
18424TIP3   OH276762   0.864   1.195   4.701  0.0614 -0.2556  0.1813
18424TIP3    H176763   0.888   1.259   4.634  1.0315 -0.6945  0.1027
18424TIP3    H276764   0.887   1.236   4.784  1.0485 -0.6554  0.1089
18425TIP3   OH276765   6.500   3.623   3.961 -0.0767 -0.1119  0.0671
18425TIP3    H176766   6.572   3.569   3.992 -1.0835 -1.0812  0.7554
18425TIP3    H276767   6.475   3.585   3.876 -0.3991 -0.3607  0.2739
18426TIP3   OH276768   5.888   3.247   5.255 -0.2195  0.5909 -0.0213
18426TIP3    H176769   5.896   3.247   5.350 -0.1782 -0.8779 -0.0190
18426TIP3    H276770   5.964   3.297   5.225 -1.2439  2.7198  0.7673
18427TIP3   OH276771   6.723   2.126   6.103 -0.4189 -0.2242  0.4938
18427TIP3    H176772   6.653   2.165   6.155 -0.2199 -2.9532  2.9257
18427TIP3    H276773   6.803   2.169   6.133 -0.5820 -0.0383  0.6586
18428TIP3   OH276774   0.985   2.685   5.535 -0.2206  0.7584 -0.2070
18428TIP3    H176775   0.997   2.709   5.443 -1.2052 -0.9684 -0.8105
18428TIP3    H276776   0.903   2.727   5.560 -0.2202  0.7998 -0.2751
18429TIP3   OH276777   5.258   2.088   6.095  0.3314 -0.0168 -0.0561
18429TIP3    H176778   5.347   2.065   6.068  0.6239  0.6815  0.3065
18429TIP3    H276779   5.257   2.070   6.189 -0.2070 -0.9382 -0.2325
18430TIP3   OH276780   7.147   3.241   5.332 -0.8713 -0.4854 -0.2703
18430TIP3    H176781   7.085   3.258   5.403 -0.7339  0.9437 -0.4666
18430TIP3    H276782   7.230   3.276   5.365 -0.3901 -1.4974 -0.4008
18431TIP3   OH276783   1.803   3.151   4.021  0.5586  0.1674 -0.3635
18431TIP3    H176784   1.894   3.153   3.989  0.0218  0.4820 -1.9400
18431TIP3    H276785   1.755   3.103   3.953 -0.8428  1.9233 -0.6563
18432TIP3   OH276786   1.272   3.479   3.030 -0.2026 -0.4598  0.1775
18432TIP3    H176787   1.363   3.485   3.003  0.0332  0.3269  1.1220
18432TIP3    H276788   1.226   3.445   2.953  0.4553  1.7895 -1.2503
18433TIP3   OH276789   4.152   4.268   4.106 -0.1003  0.2947 -0.3163
18433TIP3    H176790   4.181   4.232   4.022 -2.4419 -1.5078 -0.4128
18433TIP3    H276791   4.067   4.308   4.087 -1.0027 -0.7724  1.2914
18434TIP3   OH276792   3.459   4.732   3.829 -0.1910  0.1015 -0.1078
18434TIP3    H176793   3.430   4.752   3.741  0.0791  0.3153 -0.1509
18434TIP3    H276794   3.514   4.806   3.853 -0.4539  0.1576  0.3285
18435TIP3   OH276795   6.348   2.998   6.129 -0.3214  0.5053 -0.2886
18435TIP3    H176796   6.282   2.928   6.136 -0.8736  0.8819 -1.5407
18435TIP3    H276797   6.355   3.033   6.218  0.1321 -1.2866  0.4007
18436TIP3   OH276798   6.857   3.635   6.197 -0.0183  0.3539  0.1919
18436TIP3    H176799   6.868   3.548   6.158  1.3625 -0.8367  3.0929
18436TIP3    H276800   6.942   3.656   6.235 -0.4262  2.8611 -0.1742
18437TIP3   OH276801   6.372   3.065   2.743  0.5619  0.4549 -0.7219
18437TIP3    H176802   6.314   3.087   2.670 -1.3303 -1.0789  0.2579
18437TIP3    H276803   6.318   3.008   2.799  2.0830  1.3178  1.6668
18438TIP3   OH276804   7.324   3.200   2.162  0.6796 -0.5320  0.8553
18438TIP3    H176805   7.293   3.129   2.106 -1.8421 -0.0489  1.5536
18438TIP3    H276806   7.416   3.212   2.138 -0.0537 -1.0110 -2.4565
18439TIP3   OH276807   6.385   5.015   4.617  0.2259 -0.6423 -0.0266
18439TIP3    H176808   6.425   5.090   4.661 -0.2881 -0.0654 -0.5190
18439TIP3    H276809   6.291   5.030   4.625  0.1107 -0.0831 -2.0158
18440TIP3   OH276810   4.544   5.167   4.770 -0.2575  0.0997 -0.1822
18440TIP3    H176811   4.560   5.113   4.847  0.8436 -0.7810 -1.0003
18440TIP3    H276812   4.613   5.233   4.772 -0.4180  0.2692 -0.2396
18441TIP3   OH276813   1.826   0.973   3.464  0.2177  0.0738 -0.1166
18441TIP3    H176814   1.834   1.039   3.533  0.8265 -1.2579  1.1253
18441TIP3    H276815   1.887   0.904   3.491 -1.6656 -1.7744 -0.4837
18442TIP3   OH276816   0.741   3.305   4.046 -0.0028 -0.4087  0.0950
18442TIP3    H176817   0.783   3.375   4.094  0.4300  0.5229 -1.6011
18442TIP3    H276818   0.677   3.268   4.107  1.5720 -0.2611  1.8635
18443TIP3   OH276819   1.490   1.638   4.615  0.3849 -0.3862 -0.5309
18443TIP3    H176820   1.437   1.695   4.671  0.9366 -0.9276  0.5336
18443TIP3    H276821   1.500   1.688   4.534 -2.7839 -0.7622 -1.2126
18444TIP3   OH276822   0.265   1.150   5.114  0.4156 -0.4334 -0.2651
18444TIP3    H176823   0.322   1.138   5.038  1.6667  1.0789  0.3906
18444TIP3    H276824   0.315   1.208   5.172 -2.0240  1.3764  0.1006
18445TIP3   OH276825   1.032   2.647   5.284 -0.6869 -0.2742  0.5271
18445TIP3    H176826   0.955   2.665   5.231  0.0023 -1.2885 -0.8707
18445TIP3    H276827   1.101   2.703   5.246 -0.5123 -0.0331  1.1930
18446TIP3   OH276828   5.707   2.564   6.099 -0.5508 -0.3508  0.0547
18446TIP3    H176829   5.758   2.491   6.063  0.5520  0.1919  0.4782
18446TIP3    H276830   5.620   2.554   6.061  0.0039 -1.0283 -1.0538
18447TIP3   OH276831   6.187   2.473   5.556 -0.2544 -0.2916 -0.0238
18447TIP3    H176832   6.253   2.424   5.507 -0.6543 -0.6149 -0.2390
18447TIP3    H276833   6.195   2.563   5.524 -2.1739 -0.9503 -2.4783
18448TIP3   OH276834   5.184   2.553   5.349 -0.6518  0.2701  0.2058
18448TIP3    H176835   5.172   2.614   5.422 -0.5874 -0.2716  0.6762
18448TIP3    H276836   5.214   2.472   5.390 -2.6618 -0.7155 -0.1921
18449TIP3   OH276837   5.041   1.990   5.981 -0.3895  0.1429  0.1654
18449TIP3    H176838   5.129   1.999   6.016  0.0363 -0.6446 -0.6919
18449TIP3    H276839   5.004   2.078   5.989  0.9031  0.7770 -0.5832
18450TIP3   OH276840   6.710   3.465   4.060 -0.0774 -0.8821 -0.1667
18450TIP3    H176841   6.723   3.409   3.983  0.6360 -0.9271 -0.0159
18450TIP3    H276842   6.673   3.406   4.126  0.9534 -1.2464  0.0901
18451TIP3   OH276843   1.152   2.628   4.541 -0.3804 -0.2070  0.0909
18451TIP3    H176844   1.162   2.627   4.446 -1.1989  3.6726 -0.0874
18451TIP3    H276845   1.123   2.539   4.562 -1.4587 -0.7675 -3.4079
18452TIP3   OH276846   0.431   3.365   5.754 -0.0060 -0.0179 -0.0603
18452TIP3    H176847   0.524   3.353   5.771  0.3584  0.7409 -1.4527
18452TIP3    H276848   0.404   3.433   5.816  0.5555  0.3146 -0.1680
18453TIP3   OH276849   6.774   1.233   3.181  0.3466  0.0104  0.2364
18453TIP3    H176850   6.859   1.216   3.223  0.0988  0.4070  0.9043
18453TIP3    H276851   6.794   1.297   3.113  0.1815  2.0532  2.0476
18454TIP3   OH276852   0.492   3.248   3.553 -0.2150 -0.0084  0.0539
18454TIP3    H176853   0.443   3.288   3.625  0.2685  0.0149  0.3687
18454TIP3    H276854   0.425   3.205   3.499 -0.6807  0.7565  0.0131
18455TIP3   OH276855   0.543   0.862   4.213  0.4026 -0.0284 -0.2118
18455TIP3    H176856   0.468   0.919   4.226 -0.1181 -0.3486 -1.7084
18455TIP3    H276857   0.580   0.889   4.129  1.4913 -0.3905  0.1354
18456TIP3   OH276858   6.189   4.463   5.660  0.9045 -0.1250 -0.4099
18456TIP3    H176859   6.118   4.471   5.724  0.7718  0.7649 -0.6672
18456TIP3    H276860   6.184   4.543   5.608  2.0539 -0.0869 -0.4774
18457TIP3   OH276861   6.429   3.600   2.540  0.1339  0.2668  0.1510
18457TIP3    H176862   6.370   3.593   2.465 -0.1555  1.4185  0.2682
18457TIP3    H276863   6.375   3.577   2.615 -0.1292  1.1510  0.2384
18458TIP3   OH276864   5.840   2.707   5.305 -0.1191  0.2957 -0.0495
18458TIP3    H176865   5.790   2.699   5.224  1.2624  0.0372 -0.9099
18458TIP3    H276866   5.819   2.794   5.338 -1.5719 -0.0320 -0.0808
18459TIP3   OH276867   4.658   5.115   5.332 -0.8200 -0.2002  0.2562
18459TIP3    H176868   4.641   5.136   5.240 -0.1249 -0.7388  0.0019
18459TIP3    H276869   4.710   5.035   5.329  0.6273  0.7009  1.0757
18460TIP3   OH276870   6.694   4.857   5.206 -0.0711 -0.5242 -0.5175
18460TIP3    H176871   6.768   4.810   5.245  0.3170  1.6414  1.4850
18460TIP3    H276872   6.627   4.856   5.274 -1.1021 -0.6262 -1.5292
18461TIP3   OH276873   6.658   5.075   3.295 -0.3138  0.5711  0.3497
18461TIP3    H176874   6.631   5.002   3.239 -0.1695  1.5383 -0.9945
18461TIP3    H276875   6.750   5.058   3.314  0.0057  0.9360 -0.8259
18462TIP3   OH276876   4.898   4.036   2.933 -0.4064 -0.0586 -0.1632
18462TIP3    H176877   4.957   4.017   2.860 -0.2347 -0.7229  0.1472
18462TIP3    H276878   4.870   4.126   2.918  1.2268  0.5156  0.0457
18463TIP3   OH276879   0.527   5.213   4.348 -0.0022 -0.5444  0.1380
18463TIP3    H176880   0.482   5.213   4.263  0.1335  2.2718  0.0178
18463TIP3    H276881   0.458   5.198   4.412 -0.2889 -1.4626 -0.3752
18464TIP3   OH276882   4.349   2.005   4.981 -0.4775 -0.3501 -0.7289
18464TIP3    H176883   4.410   2.071   4.946 -1.1415 -0.3541 -1.9276
18464TIP3    H276884   4.299   2.051   5.048 -2.0122  0.8191 -2.6319
18465TIP3   OH276885   0.954   2.409   5.669 -0.0436 -0.1174  0.2842
18465TIP3    H176886   1.006   2.364   5.602 -1.4370 -2.1246  0.4967
18465TIP3    H276887   0.946   2.498   5.637 -0.0177 -0.8439 -1.8377
18466TIP3   OH276888   6.480   2.793   5.004 -0.4689 -0.1894  0.1769
18466TIP3    H176889   6.425   2.807   5.080 -0.8401  1.6340 -0.4044
18466TIP3    H276890   6.564   2.833   5.027  0.7823 -3.1792  1.1652
18467TIP3   OH276891   0.061   1.162   4.467 -0.0044  0.4981  0.3642
18467TIP3    H176892   0.154   1.169   4.488  0.5124  1.1722 -1.9840
18467TIP3    H276893   0.025   1.247   4.493 -0.0692  0.0950  1.6456
18468TIP3   OH276894   0.104   3.313   4.830 -0.2184 -0.1854  0.0852
18468TIP3    H176895   0.187   3.321   4.876 -0.0550  0.2969 -0.2793
18468TIP3    H276896   0.038   3.307   4.899 -0.1719  2.5377  0.4286
18469TIP3   OH276897   5.478   2.334   5.743  0.2658  0.4833  0.6356
18469TIP3    H176898   5.566   2.353   5.710  0.0523 -0.3479 -0.4418
18469TIP3    H276899   5.422   2.398   5.699  0.0766 -0.1819 -0.0967
18470TIP3   OH276900   6.835   2.086   5.603 -0.2551  0.0066  0.1599
18470TIP3    H176901   6.912   2.081   5.659  1.2584  0.6256 -1.8119
18470TIP3    H276902   6.769   2.032   5.648  0.8316  0.6353  2.6026
18471TIP3   OH276903   0.739   2.733   4.275 -0.2821 -0.1210 -0.2689
18471TIP3    H176904   0.790   2.804   4.315  2.0046 -0.1958 -2.8642
18471TIP3    H276905   0.727   2.762   4.184  1.3776 -3.3640 -1.6072
18472TIP3   OH276906   6.197   6.554   4.039  0.3552  0.0126  0.1443
18472TIP3    H176907   6.243   6.606   3.974  3.4872 -3.6493 -0.7882
18472TIP3    H276908   6.206   6.603   4.121  2.8158  1.1255 -0.7662
18473TIP3   OH276909   6.244   2.274   2.899 -0.0737 -0.4899 -0.5452
18473TIP3    H176910   6.283   2.269   2.812  0.0940  0.8000 -0.5502
18473TIP3    H276911   6.294   2.342   2.944 -3.6288  2.7730 -1.2680
18474TIP3   OH276912   5.695   1.080   3.048  0.2199  0.0474 -0.5747
18474TIP3    H176913   5.600   1.068   3.041 -0.0739  1.6408  0.1917
18474TIP3    H276914   5.731   1.045   2.967 -1.2150  1.0700 -1.6786
18475TIP3   OH276915   7.254   4.094   4.316 -0.2196 -0.6584 -0.2438
18475TIP3    H176916   7.171   4.107   4.270  0.2213  1.5621 -0.4529
18475TIP3    H276917   7.317   4.075   4.247 -0.2906 -1.0252 -0.2075
18476TIP3   OH276918   5.652   3.568   5.259  0.0486  0.4537 -0.2524
18476TIP3    H176919   5.631   3.514   5.335  1.6207 -0.6313 -0.5524
18476TIP3    H276920   5.712   3.635   5.292 -1.5815  1.8244  0.0350
18477TIP3   OH276921   5.500   2.215   6.008 -0.0929 -0.3153 -0.2313
18477TIP3    H176922   5.548   2.250   6.082  0.0672  0.4613 -0.7028
18477TIP3    H276923   5.486   2.290   5.950  0.2757 -1.0150 -1.2489
18478TIP3   OH276924   6.596   4.279   3.359 -0.2673  0.0290 -0.2650
18478TIP3    H176925   6.617   4.269   3.266 -1.2555 -0.9299 -0.3964
18478TIP3    H276926   6.564   4.192   3.385  1.0362 -0.0031  1.2344
18479TIP3   OH276927   0.431   4.940   5.807  0.6427  0.2508 -0.5023
18479TIP3    H176928   0.383   4.874   5.858  0.7294 -0.3224 -1.1616
18479TIP3    H276929   0.416   5.022   5.855 -0.6802  0.0155 -0.4768
18480TIP3   OH276930   7.225   5.431   4.533 -0.6128  0.5244 -0.4022
18480TIP3    H176931   7.245   5.403   4.622  0.2647 -0.9751 -1.0318
18480TIP3    H276932   7.267   5.364   4.478 -0.8936  1.5893 -1.9310
18481TIP3   OH276933   1.930   6.487   3.742  0.4698 -0.3294  0.1127
18481TIP3    H176934   1.877   6.495   3.821 -1.1885 -1.0656 -0.8912
18481TIP3    H276935   1.904   6.562   3.688  1.8213  0.3441  0.3863
18482TIP3   OH276936   6.789   2.921   4.112 -0.2264  0.2879 -0.4886
18482TIP3    H176937   6.703   2.960   4.094 -0.0779  0.8128 -0.0502
18482TIP3    H276938   6.771   2.853   4.177 -0.3699  0.1189 -0.7026
18483TIP3   OH276939   1.660   6.817   4.239  0.2753 -0.0234  0.1348
18483TIP3    H176940   1.720   6.886   4.269  2.1555 -0.9651 -1.3748
18483TIP3    H276941   1.621   6.852   4.160  0.4367 -0.2724 -0.0543
18484TIP3   OH276942   5.982   4.625   3.782 -0.3614  0.1447 -0.0525
18484TIP3    H176943   6.075   4.617   3.799 -0.3098 -1.7891 -1.1215
18484TIP3    H276944   5.976   4.659   3.693 -0.6565 -2.3098 -1.0041
18485TIP3   OH276945   1.336   3.234   5.089 -0.1274  0.1855 -0.1334
18485TIP3    H176946   1.243   3.215   5.089 -0.3899  1.4270  0.7719
18485TIP3    H276947   1.375   3.162   5.139 -0.7604  0.3838  0.6584
18486TIP3   OH276948   0.570   5.305   3.565  0.5081 -0.0437 -0.2232
18486TIP3    H176949   0.493   5.340   3.609  1.3240  0.5513  0.7740
18486TIP3    H276950   0.638   5.371   3.581  0.8661  0.1262 -2.2754
18487TIP3   OH276951   0.698   4.264   3.782 -0.3447 -0.3826 -0.4691
18487TIP3    H176952   0.652   4.347   3.769 -1.3236 -0.4283  2.4510
18487TIP3    H276953   0.628   4.198   3.782  0.1876 -0.9518 -0.3180
18488TIP3   OH276954   2.726   6.706   4.606  0.6845 -0.3412  0.6281
18488TIP3    H176955   2.755   6.666   4.688  1.0653 -2.3261 -0.4532
18488TIP3    H276956   2.651   6.653   4.579  0.2409  0.6223 -0.0586
18489TIP3   OH276957   2.069   3.720   4.798  0.0372  0.1903 -0.5143
18489TIP3    H176958   2.064   3.631   4.833  2.3966  0.0089 -0.5480
18489TIP3    H276959   2.099   3.709   4.708  1.3212  1.0489 -0.2100
18490TIP3   OH276960   7.105   4.310   5.396 -0.6474 -0.2002  0.1513
18490TIP3    H176961   7.161   4.383   5.424  0.4752 -0.9168 -0.2277
18490TIP3    H276962   7.043   4.299   5.468 -0.0797  0.3602  0.7335
18491TIP3   OH276963   0.035   4.997   5.711 -0.2267 -0.1146 -0.4934
18491TIP3    H176964   0.025   5.000   5.806  1.5522 -0.2493 -0.2942
18491TIP3    H276965   0.096   5.067   5.690 -0.4684 -0.1944 -1.5226
18492TIP3   OH276966   0.523   4.223   6.021  0.2428 -0.7205  0.5696
18492TIP3    H176967   0.522   4.282   6.096 -2.2260  0.3646 -0.2588
18492TIP3    H276968   0.547   4.278   5.947 -0.4462 -1.0852  0.0641
18493TIP3   OH276969   0.716   0.031   4.850 -0.0090  0.0325 -0.6176
18493TIP3    H176970   0.806   0.063   4.854  0.0711 -0.1388 -1.0100
18493TIP3    H276971   0.704   0.007   4.758 -0.8919  1.3205 -0.8428
18494TIP3   OH276972   0.997   6.499   3.545  0.0721  0.1106  0.0057
18494TIP3    H176973   1.059   6.570   3.524 -0.3456  0.5179  0.1266
18494TIP3    H276974   1.050   6.420   3.543  0.2978  0.2871 -1.3194
18495TIP3   OH276975   0.101   2.042   2.693  0.0107  0.7365  0.7823
18495TIP3    H176976   0.109   2.061   2.786  0.0199 -0.4031  1.0185
18495TIP3    H276977   0.187   2.008   2.668  0.3922  2.1559  0.0832
18496TIP3   OH276978   6.519   3.018   5.895 -0.3882  0.1979  0.2308
18496TIP3    H176979   6.464   3.046   5.821  0.8148  3.2334  0.4306
18496TIP3    H276980   6.457   2.981   5.958 -2.1280  2.5332 -0.0196
18497TIP3   OH276981   2.945   6.388   2.722 -0.0067  0.6899 -0.0643
18497TIP3    H176982   2.963   6.473   2.763 -0.4674  0.9489 -0.3827
18497TIP3    H276983   2.987   6.324   2.779 -3.6208  0.7255  2.8128
18498TIP3   OH276984   6.158   4.755   4.902 -0.0334 -0.0012 -0.4855
18498TIP3    H176985   6.246   4.757   4.864  0.2427  0.3564  0.1707
18498TIP3    H276986   6.162   4.815   4.976 -0.0044 -2.1344  1.3127
18499TIP3   OH276987   0.592   7.156   4.981  0.7780  0.1041 -0.2621
18499TIP3    H176988   0.585   7.205   5.064  0.7940  0.5970 -0.5476
18499TIP3    H276989   0.650   7.209   4.927 -0.2325  0.4407 -1.0460
18500TIP3   OH276990   1.113   2.987   4.913 -0.5673 -0.0052 -0.3734
18500TIP3    H176991   1.056   3.054   4.951  0.8360  2.4707 -2.4625
18500TIP3    H276992   1.058   2.941   4.850 -0.5425  1.7465 -1.7005
18501TIP3   OH276993   1.803   3.805   4.261  0.8328 -1.1696 -0.3066
18501TIP3    H176994   1.885   3.780   4.304  0.4135  0.4167  1.4602
18501TIP3    H276995   1.756   3.856   4.327 -1.4719 -1.8434 -1.4063
18502TIP3   OH276996   1.072   4.091   4.838 -0.2569  0.6832  0.7047
18502TIP3    H176997   1.008   4.021   4.826  0.0795  0.6311 -0.8203
18502TIP3    H276998   1.056   4.152   4.766  0.9765  1.0076  0.6919
18503TIP3   OH276999   1.248   4.426   3.366  0.2647  0.1075 -0.7241
18503TIP3    H177000   1.289   4.400   3.448  0.4014 -0.3026 -0.9233
18503TIP3    H277001   1.266   4.354   3.306  0.9087  0.7830 -1.3618
18504TIP3   OH277002   1.181   5.491   5.195  0.1531 -0.1595 -0.1747
18504TIP3    H177003   1.135   5.561   5.242 -3.1432 -2.3090 -0.0125
18504TIP3    H277004   1.235   5.449   5.262  0.5164  0.8905  0.1971
18505TIP3   OH277005   0.158   3.985   5.691  0.0237  0.5203 -0.4877
18505TIP3    H177006   0.218   4.007   5.762 -0.9976  0.8833  0.2820
18505TIP3    H277007   0.143   4.067   5.644  0.8303  0.2467 -1.2368
18506TIP3   OH277008   3.103   5.420   5.634 -0.3657  0.8783  0.6889
18506TIP3    H177009   3.146   5.398   5.716 -0.8822  1.3991  1.0941
18506TIP3    H277010   3.038   5.350   5.622  2.8082 -1.8720 -1.6204
18507TIP3   OH277011   1.709   4.146   1.901 -0.2344 -0.0280  0.2813
18507TIP3    H177012   1.794   4.106   1.921 -0.5675  0.1393  2.1297
18507TIP3    H277013   1.649   4.109   1.966 -1.9256 -1.2411 -1.9276
18508TIP3   OH277014   0.591   0.863   4.505  0.1978 -0.2532  0.5610
18508TIP3    H177015   0.572   0.867   4.411 -0.0620  2.1095  0.6832
18508TIP3    H277016   0.515   0.903   4.546  1.9492  2.1474  1.5331
18509TIP3   OH277017   2.646   6.211   1.887 -0.0373 -0.0194 -0.1403
18509TIP3    H177018   2.680   6.126   1.914 -1.7354 -0.7938 -0.3891
18509TIP3    H277019   2.572   6.190   1.830  1.2322  1.5987 -2.4756
18510TIP3   OH277020   1.077   1.739   1.766  0.0031  0.5533 -0.0541
18510TIP3    H177021   1.055   1.738   1.672  0.9717  1.8456 -0.3144
18510TIP3    H277022   1.008   1.688   1.807  0.5162 -1.5215 -1.6755
18511TIP3   OH277023   5.392   5.185   3.750 -0.4762  0.2106  0.2656
18511TIP3    H177024   5.365   5.166   3.660  3.8660 -0.5473 -1.0170
18511TIP3    H277025   5.349   5.268   3.771 -3.1205 -0.5825 -1.7346
18512TIP3   OH277026   2.110   3.648   3.070 -0.3835  0.0635 -0.3477
18512TIP3    H177027   2.193   3.600   3.065  0.2451  1.1170 -0.2084
18512TIP3    H277028   2.121   3.720   3.008 -0.8221  0.7612  0.3820
18513TIP3   OH277029   1.321   5.539   3.353  0.3148  0.1634 -0.7205
18513TIP3    H177030   1.318   5.634   3.365 -0.8867  0.0673 -0.2107
18513TIP3    H277031   1.233   5.515   3.323  0.4719 -0.8477 -0.4115
18514TIP3   OH277032   6.974   4.781   4.665 -0.3650  0.1309  0.0020
18514TIP3    H177033   6.888   4.821   4.673 -0.7136 -0.2986 -1.5651
18514TIP3    H277034   6.959   4.688   4.681 -0.1594  0.0836 -0.0711
18515TIP3   OH277035   2.197   3.690   5.458  0.0867 -1.0988 -0.4959
18515TIP3    H177036   2.177   3.765   5.514 -0.6615 -1.5181 -0.1936
18515TIP3    H277037   2.265   3.722   5.399  0.9284 -0.6799  0.6886
18516TIP3   OH277038   1.179   3.115   4.626 -0.3087  0.3925  0.2436
18516TIP3    H177039   1.212   3.165   4.700 -2.0939  1.0954  0.6073
18516TIP3    H277040   1.230   3.145   4.551  0.9470  0.2733  1.0526
18517TIP3   OH277041   0.171   4.746   5.513  0.1991 -0.1102 -0.0822
18517TIP3    H177042   0.077   4.764   5.522  0.0566 -1.2693  0.8184
18517TIP3    H277043   0.213   4.825   5.546 -0.4483 -0.0030  0.5034
18518TIP3   OH277044   2.433   5.436   6.280  0.5837 -0.0353  0.2572
18518TIP3    H177045   2.442   5.391   6.197  2.0115  0.1021  0.3304
18518TIP3    H277046   2.522   5.458   6.306  0.2476 -0.9512  2.3048
18519TIP3   OH277047   1.372   2.339   3.139 -0.0962 -0.1615  0.2386
18519TIP3    H177048   1.289   2.294   3.152 -0.3621  0.9886  2.9150
18519TIP3    H277049   1.434   2.292   3.194  0.6725 -0.0100 -0.4826
18520TIP3   OH277050   6.510   3.081   4.689 -0.3682  0.6385  0.4259
18520TIP3    H177051   6.483   2.992   4.710 -1.3672  1.1256  1.2750
18520TIP3    H277052   6.605   3.079   4.694 -0.3794 -0.4078  0.3438
18521TIP3   OH277053   1.174   3.748   5.032 -0.4643  0.3173 -0.1387
18521TIP3    H177054   1.080   3.764   5.044 -0.5874  0.2231 -1.0046
18521TIP3    H277055   1.183   3.718   4.942  0.0774 -2.2883  0.7394
18522TIP3   OH277056   0.388   0.062   4.789  0.1783  0.0898  0.2819
18522TIP3    H177057   0.437  -0.013   4.822 -0.6293 -1.1393 -1.2780
18522TIP3    H277058   0.436   0.090   4.711  0.8056  1.5899  1.1679
18523TIP3   OH277059   1.164   4.297   4.649 -0.1430 -0.2231 -0.1554
18523TIP3    H177060   1.178   4.354   4.574  0.5255 -0.7047 -0.3960
18523TIP3    H277061   1.238   4.236   4.648  0.3806  0.3682  1.4395
18524TIP3   OH277062   1.597   4.083   5.433 -0.5940 -0.1544 -0.3437
18524TIP3    H177063   1.535   4.102   5.363  1.1284 -0.7154 -2.0816
18524TIP3    H277064   1.608   3.988   5.429  1.1944  0.0488 -0.8138
18525TIP3   OH277065   3.098   5.677   1.957  0.4423  0.2217 -0.0291
18525TIP3    H177066   3.156   5.741   1.916  0.4893  0.7867  0.9025
18525TIP3    H277067   3.130   5.592   1.927  0.8613  0.5991 -0.6582
18526TIP3   OH277068   7.172   3.483   3.600  0.5956  0.2234  0.0849
18526TIP3    H177069   7.080   3.482   3.574  0.3965 -0.0734  0.7793
18526TIP3    H277070   7.212   3.552   3.547 -0.0208  0.3302 -0.2399
18527TIP3   OH277071   5.414   3.720   3.994 -0.1578 -0.3010 -0.1230
18527TIP3    H177072   5.383   3.630   3.998  1.2679 -0.8028  0.0220
18527TIP3    H277073   5.508   3.713   3.980 -0.3772  1.1903 -2.8375
18528TIP3   OH277074   1.549   6.388   5.661 -0.3422  0.7300  0.2306
18528TIP3    H177075   1.583   6.321   5.601 -0.3570 -0.4459  1.5085
18528TIP3    H277076   1.531   6.340   5.742 -0.1897  2.3356  1.2196
18529TIP3   OH277077   6.998   3.270   4.567 -0.2523  0.2638 -0.1275
18529TIP3    H177078   7.085   3.232   4.570 -0.2092  0.2485 -1.3991
18529TIP3    H277079   6.986   3.310   4.653  0.2284 -1.4455  0.7649
18530TIP3   OH277080   3.696   3.427   4.955  0.1213  0.7205  0.2870
18530TIP3    H177081   3.718   3.362   4.888 -0.9597  0.5267  0.1065
18530TIP3    H277082   3.624   3.478   4.917  0.4140  1.4905  0.7543
18531TIP3   OH277083   0.115   6.140   4.705  0.9336  0.7426  0.4496
18531TIP3    H177084   0.037   6.185   4.672  0.7523  0.8942  1.0848
18531TIP3    H277085   0.083   6.057   4.738  1.1095  0.6111  0.2929
18532TIP3   OH277086   7.090   0.838   1.583 -0.4871  0.0035  0.2357
18532TIP3    H177087   7.115   0.864   1.672 -2.1504  1.5793  0.2691
18532TIP3    H277088   7.044   0.755   1.594  0.2395 -0.3383  0.7245
18533TIP3   OH277089   1.383   6.045   1.903 -0.4651  0.5176 -0.0591
18533TIP3    H177090   1.362   6.138   1.892 -0.5663  0.8474  2.6928
18533TIP3    H277091   1.416   6.038   1.992 -2.0049 -2.3525  0.3452
18534TIP3   OH277092   0.543   5.550   5.615  0.7131  0.3829 -0.4620
18534TIP3    H177093   0.541   5.455   5.612  1.0811  0.2831  1.5063
18534TIP3    H277094   0.624   5.574   5.571  1.8752 -0.3631  1.2088
18535TIP3   OH277095   1.886   0.530   5.667  0.3492 -0.3113 -0.2430
18535TIP3    H177096   1.901   0.506   5.575  1.9721  0.2592 -0.1480
18535TIP3    H277097   1.966   0.576   5.693 -0.1378 -0.3740  1.4328
18536TIP3   OH277098   6.728   4.266   4.544 -0.1474  0.0473  0.3941
18536TIP3    H177099   6.686   4.307   4.468  0.1685 -1.3600 -0.5452
18536TIP3    H277100   6.807   4.225   4.509  0.1440 -0.3904  1.5379
18537TIP3   OH277101   6.745   3.841   4.682 -0.1772 -0.0049  0.5899
18537TIP3    H177102   6.678   3.909   4.693 -0.2133 -0.0363  0.5640
18537TIP3    H277103   6.741   3.790   4.763 -0.6555 -0.4219  0.3063
18538TIP3   OH277104   2.246   3.222   4.360 -0.0644 -0.1779  0.1473
18538TIP3    H177105   2.318   3.276   4.328  0.4075 -0.1129  1.2656
18538TIP3    H277106   2.213   3.176   4.283  1.7109 -0.8200 -0.2545
18539TIP3   OH277107   5.269   4.581   5.241 -0.4862 -0.1568  0.4092
18539TIP3    H177108   5.309   4.630   5.169 -0.9961  0.0683  0.2811
18539TIP3    H277109   5.336   4.580   5.309  0.0227 -0.4145 -0.0820
18540TIP3   OH277110   1.011   2.832   4.379 -0.4947  0.4598  0.3108
18540TIP3    H177111   1.038   2.758   4.433  0.9717  1.1725  0.5729
18540TIP3    H277112   0.968   2.892   4.441 -2.6957 -0.6548 -0.0989
18541TIP3   OH277113   6.768   5.230   5.992  0.0003 -0.2267 -0.3046
18541TIP3    H177114   6.817   5.150   6.012 -0.6345 -0.5278  0.0231
18541TIP3    H277115   6.689   5.225   6.045 -0.6394  0.0232 -1.2129
18542TIP3   OH277116   2.654   3.794   5.619  0.3783  0.2507 -0.4084
18542TIP3    H177117   2.568   3.764   5.648 -0.2673  0.6036 -1.8872
18542TIP3    H277118   2.676   3.867   5.677 -1.3585  1.6440 -1.4650
18543TIP3   OH277119   6.607   6.600   5.802  0.4150 -0.3112  0.1742
18543TIP3    H177120   6.622   6.631   5.712 -3.1755 -2.0927 -1.1597
18543TIP3    H277121   6.633   6.508   5.799  0.2873 -0.3708  0.9417
18544TIP3   OH277122   6.750   3.148   5.904  0.0048 -0.1259  0.2854
18544TIP3    H177123   6.790   3.135   5.990  0.9374  1.3247  0.0936
18544TIP3    H277124   6.661   3.115   5.914 -0.8449  2.7144  2.7237
18545TIP3   OH277125   2.323   3.310   5.497  0.2727  0.0377 -0.5815
18545TIP3    H177126   2.384   3.339   5.429  1.4387 -1.7031 -0.2935
18545TIP3    H277127   2.375   3.311   5.577 -0.2013 -1.0342 -0.2599
18546TIP3   OH277128   0.355   3.292   4.163 -0.0285  0.3405  0.5644
18546TIP3    H177129   0.350   3.385   4.144  1.3262  0.4635  0.8263
18546TIP3    H277130   0.432   3.282   4.218  0.2972 -1.0453 -0.1127
18547TIP3   OH277131   7.246   4.606   3.511  0.4617  0.3954  0.6661
18547TIP3    H177132   7.209   4.693   3.491  1.7538  1.1261  1.3586
18547TIP3    H277133   7.330   4.626   3.553  0.5207 -1.1981  1.3055
18548TIP3   OH277134   5.269   4.304   5.145 -0.1309 -0.3984  0.5406
18548TIP3    H177135   5.315   4.244   5.203 -0.9558 -0.6510  0.9449
18548TIP3    H277136   5.242   4.376   5.202  0.3575  0.0734  0.1725
18549TIP3   OH277137   2.210   4.240   4.579 -0.6441  0.2643 -0.2178
18549TIP3    H177138   2.142   4.176   4.559 -1.2002  1.1638 -1.2724
18549TIP3    H277139   2.170   4.324   4.559  0.7009  0.8173 -0.6305
18550TIP3   OH277140   1.861   5.728   5.122  0.5335 -0.0288  0.2414
18550TIP3    H177141   1.832   5.647   5.081  0.7333  0.9322 -1.8401
18550TIP3    H277142   1.817   5.729   5.207  0.5185 -2.2929  0.2680
18551TIP3   OH277143   0.126   4.064   3.512  0.1846  0.1412 -0.1596
18551TIP3    H177144   0.128   4.044   3.418  2.5978  0.8021 -0.2823
18551TIP3    H277145   0.155   3.983   3.554  0.3098  0.2408 -0.0563
18552TIP3   OH277146   2.722   4.375   4.702 -0.3161  0.7429 -0.2537
18552TIP3    H177147   2.714   4.399   4.610 -1.8459 -0.4980 -0.4766
18552TIP3    H277148   2.632   4.356   4.729  0.5438 -2.7635  0.3910
18553TIP3   OH277149   7.293   3.205   2.902 -0.1308 -0.2168 -0.5608
18553TIP3    H177150   7.378   3.179   2.867 -1.2493 -0.3736 -3.2733
18553TIP3    H277151   7.271   3.136   2.965  1.4658 -0.4745 -0.2625
18554TIP3   OH277152   0.671   5.307   2.798  0.0739 -0.0180  0.2739
18554TIP3    H177153   0.736   5.257   2.847  0.2598 -0.4174 -0.3758
18554TIP3    H277154   0.713   5.391   2.780 -0.9969  1.1962  3.1853
18555TIP3   OH277155   7.197   4.806   5.617  0.6177 -0.2086 -0.0671
18555TIP3    H177156   7.123   4.787   5.675  0.5818  0.0681 -0.0195
18555TIP3    H277157   7.257   4.858   5.671 -0.2929  1.7088 -0.8381
18556TIP3   OH277158   2.449   5.437   5.786  0.1619 -0.1400 -0.2265
18556TIP3    H177159   2.382   5.503   5.802 -2.3029 -2.2231 -1.6602
18556TIP3    H277160   2.508   5.477   5.722 -1.7947  0.3610 -1.7583
18557TIP3   OH277161   5.979   4.722   5.132 -0.1909  0.3606 -0.1800
18557TIP3    H177162   6.023   4.807   5.122 -0.7550  0.6537 -0.2406
18557TIP3    H277163   5.947   4.702   5.044  0.8818 -0.4409 -0.3865
18558TIP3   OH277164   1.437   3.561   4.008  0.0341  0.1992  0.6219
18558TIP3    H177165   1.434   3.645   4.055 -0.9258  0.1752  0.6099
18558TIP3    H277166   1.370   3.508   4.049 -0.5651  0.0449 -0.5239
18559TIP3   OH277167   2.617   2.372   4.765 -0.4094  0.2251 -0.7035
18559TIP3    H177168   2.703   2.410   4.782 -0.5818  0.1198  0.4433
18559TIP3    H277169   2.629   2.317   4.688  0.8268 -0.7015  0.1420
18560TIP3   OH277170   6.197   4.527   5.098 -0.1852  0.2246 -0.8719
18560TIP3    H177171   6.150   4.458   5.051 -1.8984  0.8732 -0.1477
18560TIP3    H277172   6.135   4.600   5.102 -0.2373  0.0880  2.6601
18561TIP3   OH277173   1.870   5.579   4.512 -0.2246 -0.1649 -0.3323
18561TIP3    H177174   1.827   5.599   4.428 -0.9793  1.7812  0.5057
18561TIP3    H277175   1.799   5.581   4.576  0.7328  0.7314  0.7090
18562TIP3   OH277176   0.364   2.928   3.720 -0.0322 -0.3340 -0.7620
18562TIP3    H177177   0.284   2.875   3.717 -0.6366  0.6302 -2.2137
18562TIP3    H277178   0.355   2.979   3.801 -0.2917 -1.1051 -0.2866
18563TIP3   OH277179   1.701   3.775   2.728 -0.5159 -0.0197 -0.4058
18563TIP3    H177180   1.692   3.759   2.822 -1.2160 -0.5802 -0.5631
18563TIP3    H277181   1.612   3.774   2.695 -0.1748 -1.5482 -1.3458
18564TIP3   OH277182   7.284   3.254   5.079  0.2423  0.5502  0.0538
18564TIP3    H177183   7.226   3.222   5.148  0.7627  0.2585  0.3511
18564TIP3    H277184   7.349   3.307   5.125  0.6908  0.2138 -0.1937
18565TIP3   OH277185   6.760   5.673   5.758  0.2209  0.5248  0.4842
18565TIP3    H177186   6.777   5.601   5.697  0.2236  0.0101  1.0863
18565TIP3    H277187   6.741   5.630   5.841 -2.1121  1.1460  0.2904
18566TIP3   OH277188   0.329   4.522   5.937  0.7056  0.3646  0.4227
18566TIP3    H177189   0.424   4.509   5.933  0.8382  1.1714  0.9238
18566TIP3    H277190   0.301   4.525   5.845  1.0607 -0.5834  0.2749
18567TIP3   OH277191   1.442   4.913   3.361 -0.4854 -0.3164  0.1086
18567TIP3    H177192   1.488   4.933   3.280  0.1451 -1.0135  0.2889
18567TIP3    H277193   1.369   4.975   3.364 -0.0311  0.2477 -0.5848
18568TIP3   OH277194   5.740   6.016   5.388 -0.2226 -0.1175  0.2712
18568TIP3    H177195   5.705   5.934   5.425 -0.1667  0.4919  1.7143
18568TIP3    H277196   5.834   6.013   5.409 -0.2418  0.3753  0.4144
18569TIP3   OH277197   1.166   4.870   4.738 -0.0383 -0.5512 -0.2296
18569TIP3    H177198   1.174   4.865   4.834  0.0612  1.3085 -0.1191
18569TIP3    H277199   1.231   4.936   4.712 -1.1858  0.1494 -1.3900
18570TIP3   OH277200   1.446   3.846   5.791 -0.5481 -0.4386  0.2936
18570TIP3    H177201   1.500   3.887   5.859 -0.3742  0.6072 -0.4519
18570TIP3    H277202   1.356   3.860   5.821 -0.4527 -0.8517  0.7882
18571TIP3   OH277203   2.421   3.777   4.989  0.4509  0.5503 -0.2312
18571TIP3    H177204   2.436   3.716   4.917 -2.1271  2.4556 -2.4952
18571TIP3    H277205   2.485   3.847   4.975 -0.5619  1.3119 -1.2013
18572TIP3   OH277206   2.053   5.849   4.972 -0.5479 -0.1835 -0.3789
18572TIP3    H177207   1.982   5.813   5.024 -0.6521  0.1589 -0.2817
18572TIP3    H277208   2.091   5.918   5.027  0.8973 -1.4394  0.2272
18573TIP3   OH277209   1.034   4.580   3.284 -0.3206  0.6968 -0.4608
18573TIP3    H177210   1.078   4.649   3.335  0.0042  0.6343 -0.6590
18573TIP3    H277211   1.099   4.511   3.276 -0.4819  0.5726 -0.6885
18574TIP3   OH277212   0.916   6.099   4.991  0.0746 -0.1332 -0.2632
18574TIP3    H177213   0.893   6.039   4.920 -0.2142 -0.9128  0.4904
18574TIP3    H277214   0.841   6.158   4.998  0.0635 -0.1115 -0.5357
18575TIP3   OH277215   2.152   0.161   3.482  0.2836  0.3594  0.4184
18575TIP3    H177216   2.196   0.134   3.401 -1.4245  0.6474 -0.6454
18575TIP3    H277217   2.093   0.088   3.502  0.2042  0.5887  1.0307
18576TIP3   OH277218   0.896   4.811   3.195  0.5186 -0.0068  0.0299
18576TIP3    H177219   0.935   4.895   3.174  1.0828 -0.1028  0.6681
18576TIP3    H277220   0.968   4.758   3.229 -0.1217 -0.2427  1.0573
18577TIP3   OH277221   0.516   3.873   4.528  0.2529  0.0781  0.0894
18577TIP3    H177222   0.575   3.851   4.456  2.5591 -0.9995  2.2573
18577TIP3    H277223   0.572   3.906   4.597 -2.0815  2.4986  0.9222
18578TIP3   OH277224   6.600   3.462   5.651 -0.2828  0.4718 -0.0560
18578TIP3    H177225   6.570   3.507   5.572  1.2105  2.0876  0.2645
18578TIP3    H277226   6.659   3.394   5.619 -0.2975  0.6073 -0.3715
18579TIP3   OH277227   1.044   0.752   5.478 -0.7021 -0.3295  0.1099
18579TIP3    H177228   0.956   0.757   5.441 -0.5614  0.6615 -0.1207
18579TIP3    H277229   1.092   0.693   5.419 -1.4204 -1.4903  0.6813
18580TIP3   OH277230   1.487   6.790   5.477  0.5393  0.2064 -0.3490
18580TIP3    H177231   1.405   6.783   5.428  0.5825 -1.5918 -0.1697
18580TIP3    H277232   1.466   6.852   5.548 -1.0423 -1.1578  0.4241
18581TIP3   OH277233   1.764   3.267   4.570  0.1920  0.7847 -0.3636
18581TIP3    H177234   1.836   3.283   4.509  2.4763 -1.3505  1.6322
18581TIP3    H277235   1.733   3.179   4.547 -0.6775  1.0300 -0.1282
18582TIP3   OH277236   0.969   5.768   5.371 -0.1269 -0.2681 -0.0716
18582TIP3    H177237   1.047   5.788   5.422 -0.8353 -0.2143  1.0143
18582TIP3    H277238   0.989   5.798   5.282  1.0449 -0.1857  0.2205
18583TIP3   OH277239   1.289   6.060   3.685 -0.3333 -0.1702  0.1469
18583TIP3    H177240   1.282   6.053   3.590  0.0501  0.3356  0.0818
18583TIP3    H277241   1.366   6.114   3.700  0.6840 -1.7479  0.7686
18584TIP3   OH277242   5.933   3.287   5.876 -0.3534 -0.4619  0.8102
18584TIP3    H177243   5.931   3.214   5.938 -1.1534 -0.4452  0.8087
18584TIP3    H277244   5.887   3.358   5.922  0.4615  0.0541  0.8321
18585TIP3   OH277245   0.444   4.237   5.443  0.2342 -0.0316  0.1602
18585TIP3    H177246   0.408   4.316   5.404 -0.1455 -0.0492  0.4686
18585TIP3    H277247   0.404   4.165   5.394 -0.2205 -0.0534  0.5543
18586TIP3   OH277248   5.359   4.423   5.674 -0.2062  0.6332 -0.1136
18586TIP3    H177249   5.376   4.502   5.726 -0.9111  1.2297 -0.7819
18586TIP3    H277250   5.348   4.354   5.739 -2.1822  1.5850  0.5979
18587TIP3   OH277251   0.851   4.421   1.685 -0.3983 -0.6639 -0.2951
18587TIP3    H177252   0.932   4.415   1.635  0.1334 -1.6817  0.6779
18587TIP3    H277253   0.877   4.452   1.771 -1.0486 -0.8855 -0.0115
18588TIP3   OH277254   1.224   5.187   5.104 -0.1742 -0.0784 -0.4930
18588TIP3    H177255   1.314   5.211   5.080  0.3355 -0.7725  0.6578
18588TIP3    H277256   1.169   5.248   5.056  1.0152  2.0812  0.8288
18589TIP3   OH277257   7.280   5.068   4.452  0.0803  0.6199  0.3477
18589TIP3    H177258   7.297   5.158   4.423  0.8045 -0.7197 -3.7263
18589TIP3    H277259   7.363   5.039   4.489 -0.3059  1.7633  2.1658
18590TIP3   OH277260   7.015   3.421   4.202 -0.0600 -0.4901 -0.2749
18590TIP3    H177261   7.106   3.398   4.218 -0.0464 -0.1368  0.1554
18590TIP3    H277262   6.984   3.356   4.139  0.7471 -0.0813 -1.1133
18591TIP3   OH277263   5.693   3.903   4.820  0.2328  0.1664  0.1731
18591TIP3    H177264   5.765   3.963   4.801  0.2192  0.3476  0.6863
18591TIP3    H277265   5.614   3.954   4.805  0.2034 -0.0784 -0.5390
18592TIP3   OH277266   1.387   4.188   1.109  0.3019 -0.0548 -0.0892
18592TIP3    H177267   1.317   4.207   1.047  1.1560  1.2720 -0.6571
18592TIP3    H277268   1.371   4.097   1.137 -0.9747 -0.1321 -1.0626
18593TIP3   OH277269   6.713   5.756   4.611  0.0454  0.1289 -0.2417
18593TIP3    H177270   6.684   5.665   4.615 -0.0056  0.1410 -0.3307
18593TIP3    H277271   6.660   5.802   4.677  0.0063  0.1116 -0.2614
18594TIP3   OH277272   1.314   4.627   4.632  0.0020 -0.3332  0.0697
18594TIP3    H177273   1.371   4.601   4.704  0.0411 -0.6216 -0.0633
18594TIP3    H277274   1.267   4.704   4.664  0.1095 -0.3882  0.3568
18595TIP3   OH277275   6.922   3.323   5.185  0.0778 -0.5586  0.3868
18595TIP3    H177276   6.993   3.385   5.196 -0.9813  0.4461  1.7022
18595TIP3    H277277   6.949   3.245   5.234 -0.8213  0.7516  3.0246
18596TIP3   OH277278   1.998   6.419   3.481 -0.5957 -0.3524  0.1017
18596TIP3    H177279   2.004   6.456   3.569 -0.2473 -0.6466  0.2012
18596TIP3    H277280   2.070   6.357   3.476 -0.9777 -0.7753 -0.1828
18597TIP3   OH277281   6.177   3.415   5.879 -0.1673  0.2438  0.3501
18597TIP3    H177282   6.229   3.408   5.798  1.0320  0.8031  1.0543
18597TIP3    H277283   6.105   3.353   5.866 -0.5887  1.0864 -1.5867
18598TIP3   OH277284   0.854   5.239   3.652  0.3241 -0.1771  0.0344
18598TIP3    H177285   0.801   5.306   3.696 -0.9335 -1.3606  0.3631
18598TIP3    H277286   0.799   5.160   3.655  1.2603 -0.8936 -1.4755
18599TIP3   OH277287   0.871   3.467   4.937  0.1287 -0.0448  0.0819
18599TIP3    H177288   0.811   3.451   5.010  0.0687 -1.7515 -0.3276
18599TIP3    H277289   0.895   3.559   4.946  0.1422 -0.2240  2.2871
18600TIP3   OH277290   2.275   6.301   3.757 -0.1359  0.3119  0.0199
18600TIP3    H177291   2.352   6.243   3.752 -0.0363  0.4110  0.3999
18600TIP3    H277292   2.227   6.283   3.676 -0.5359 -0.9021  0.5086
18601TIP3   OH277293   5.987   6.462   2.446 -0.0108 -0.3643 -0.2522
18601TIP3    H177294   6.026   6.481   2.531  0.8011  0.1831 -0.7413
18601TIP3    H277295   6.053   6.410   2.400  0.0336  0.2975 -0.9618
18602TIP3   OH277296   2.390   0.685   5.572  0.0928 -0.3699 -0.0468
18602TIP3    H177297   2.424   0.630   5.643 -1.6821 -1.0565  0.2842
18602TIP3    H277298   2.342   0.755   5.616  2.8908  1.9247 -0.4399
18603TIP3   OH277299   0.695   4.892   5.784 -0.3268  0.0271  0.0400
18603TIP3    H177300   0.743   4.952   5.728 -0.5230  1.5035  1.4250
18603TIP3    H277301   0.607   4.931   5.792  0.1381  0.6612  2.5552
18604TIP3   OH277302   6.747   5.769   3.735  0.5234  0.4247  0.3126
18604TIP3    H177303   6.653   5.782   3.729  0.3979 -0.2977  0.7175
18604TIP3    H277304   6.774   5.818   3.813  0.4499  0.4202  0.3403
18605TIP3   OH277305   0.274   6.024   6.250 -0.2103  0.7425 -0.2674
18605TIP3    H177306   0.291   5.932   6.229  0.8655  1.0614 -0.8148
18605TIP3    H277307   0.181   6.026   6.273 -0.2536 -0.4725 -0.2806
18606TIP3   OH277308   0.895   6.058   5.331 -0.0882  0.0709 -0.1540
18606TIP3    H177309   0.874   5.969   5.361  0.5036  0.6760  2.1680
18606TIP3    H277310   0.945   6.096   5.403  1.8300  1.4547 -2.1539
18607TIP3   OH277311   6.987   5.069   3.663 -0.2622  0.1470  0.5308
18607TIP3    H177312   7.043   5.017   3.720 -1.4381 -1.5194  0.2013
18607TIP3    H277313   7.039   5.085   3.585 -0.0974 -1.0434  0.3943
18608TIP3   OH277314   7.314   0.113   3.503 -0.4380 -0.5439  0.0479
18608TIP3    H177315   7.264   0.038   3.472 -0.9793  0.0695 -0.5950
18608TIP3    H277316   7.284   0.126   3.593 -0.4600 -0.9893  0.1077
18609TIP3   OH277317   1.145   5.880   5.738 -0.1870  0.4708 -0.1476
18609TIP3    H177318   1.132   5.916   5.650  0.6890 -0.1024 -0.5163
18609TIP3    H277319   1.062   5.896   5.782 -0.6743  0.6646 -1.1116
18610TIP3   OH277320   5.733   6.277   3.900  0.8154  0.2070 -0.0072
18610TIP3    H177321   5.657   6.328   3.876 -0.6940 -1.1672  1.6683
18610TIP3    H277322   5.806   6.339   3.900 -0.2979  1.5332 -1.5911
18611TIP3   OH277323   0.135   5.315   6.100  0.3280  0.1531  0.4642
18611TIP3    H177324   0.048   5.307   6.139 -0.3770  0.8519 -0.9367
18611TIP3    H277325   0.176   5.387   6.148 -0.0211  0.1287  0.8083
18612TIP3   OH277326   0.360   2.827   3.268 -0.5393 -0.2557  0.5323
18612TIP3    H177327   0.310   2.747   3.287  0.9445 -1.3768 -0.2382
18612TIP3    H277328   0.405   2.809   3.186  1.0782  0.7750  1.1758
18613TIP3   OH277329   2.156   7.131   5.528  0.0464  0.2739  0.2012
18613TIP3    H177330   2.230   7.072   5.547 -0.7042 -0.9348 -0.5968
18613TIP3    H277331   2.136   7.115   5.436 -1.6986  0.0435  0.6071
18614TIP3   OH277332   6.432   3.593   4.476 -0.4176  0.2408 -0.3334
18614TIP3    H177333   6.432   3.615   4.570 -2.6212  0.8545 -0.4420
18614TIP3    H277334   6.509   3.637   4.442  0.9766 -0.8178  1.3689
18615TIP3   OH277335   7.017   4.190   4.535 -0.2829 -0.2240  0.0464
18615TIP3    H177336   7.054   4.104   4.517 -1.0985 -0.5611 -0.0495
18615TIP3    H277337   6.975   4.180   4.620 -2.0982 -0.5002 -0.8530
18616TIP3   OH277338   7.255   3.316   4.227  0.4517 -0.1786  0.1545
18616TIP3    H177339   7.300   3.358   4.301  0.9851 -1.7884  0.7514
18616TIP3    H277340   7.307   3.341   4.151 -0.7885  2.5067  0.1253
18617TIP3   OH277341   7.251   4.054   2.397  0.0155 -0.3559  0.2414
18617TIP3    H177342   7.261   4.149   2.406 -0.8636 -0.2206 -0.1510
18617TIP3    H277343   7.161   4.037   2.424  0.4171 -1.1867  1.0811
18618TIP3   OH277344   0.573   4.457   5.842  0.2411  0.5705 -0.0426
18618TIP3    H177345   0.563   4.523   5.774 -0.8408 -0.6142 -1.0867
18618TIP3    H277346   0.656   4.414   5.823 -0.3551 -0.1815 -1.0413
18619TIP3   OH277347   1.405   4.204   5.290  0.3069 -0.0694 -0.1742
18619TIP3    H177348   1.318   4.240   5.308  0.0798 -0.9209  0.4974
18619TIP3    H277349   1.406   4.189   5.195 -0.9208 -1.6378  0.0349
18620TIP3   OH277350   1.347   4.075   4.924 -0.4794  0.4074 -0.1255
18620TIP3    H177351   1.353   3.988   4.961  0.8376 -0.0095 -1.2654
18620TIP3    H277352   1.264   4.076   4.877  0.7107 -1.1424 -2.3272
18621TIP3   OH277353   6.890   5.678   4.127 -0.4782 -0.4741 -0.2273
18621TIP3    H177354   6.850   5.595   4.150 -0.1737 -0.1186  1.6292
18621TIP3    H277355   6.943   5.702   4.203  0.8866  0.5308 -1.4596
18622TIP3   OH277356   1.120   3.848   3.967 -0.8317 -0.2595 -0.3230
18622TIP3    H177357   1.088   3.864   4.056  1.5352  1.3026  0.3225
18622TIP3    H277358   1.153   3.933   3.938 -0.7022 -0.9617 -2.3453
18623TIP3   OH277359   0.717   4.199   5.362 -0.0793  0.1148  0.8252
18623TIP3    H177360   0.655   4.219   5.431 -1.2626  0.6058 -0.3638
18623TIP3    H277361   0.700   4.107   5.340 -1.4589  0.6919 -0.5666
18624TIP3   OH277362   6.468   5.301   3.950 -0.0482  0.1447  0.0334
18624TIP3    H177363   6.540   5.355   3.917  0.7750 -0.2660  1.0991
18624TIP3    H277364   6.423   5.270   3.872  0.3837  1.1512 -0.6236
18625TIP3   OH277365   0.418   5.013   3.581 -0.6733 -0.1775 -0.0427
18625TIP3    H177366   0.429   5.049   3.669  1.3043 -0.5737 -0.1004
18625TIP3    H277367   0.470   5.070   3.525 -0.2743 -1.1292 -0.6497
18626TIP3   OH277368   6.733   3.189   5.027  0.4248 -0.1874  0.7051
18626TIP3    H177369   6.795   3.170   4.956  0.5029 -2.3474  1.3398
18626TIP3    H277370   6.786   3.227   5.096  0.5869  0.5170  0.2022
18627TIP3   OH277371   6.898   4.992   5.569 -0.6987  0.1837 -0.0909
18627TIP3    H177372   6.873   5.050   5.497  0.4369 -0.0474 -0.6695
18627TIP3    H277373   6.986   5.019   5.592 -1.3846  0.8703  1.8384
18628TIP3   OH277374   0.397   3.842   1.860 -0.0980  0.1369  0.0114
18628TIP3    H177375   0.319   3.895   1.842  0.1573  1.0840  1.6244
18628TIP3    H277376   0.388   3.816   1.951  2.1178  1.3913  0.6326
18629TIP3   OH277377   6.696   4.517   4.286  0.0018 -0.1020 -0.4726
18629TIP3    H177378   6.704   4.609   4.258 -0.4983 -0.1492 -0.7843
18629TIP3    H277379   6.778   4.498   4.331 -0.5368  0.9836  1.0041
18630TIP3   OH277380   0.447   4.484   5.077  0.1437 -0.6739  0.3384
18630TIP3    H177381   0.384   4.415   5.096 -0.4159 -0.3638 -0.3567
18630TIP3    H277382   0.462   4.528   5.161 -1.9983  0.4508  0.1504
18631TIP3   OH277383   0.765   2.379   5.856 -0.8135 -0.1896  0.1646
18631TIP3    H177384   0.768   2.464   5.900 -3.0974  1.1572 -2.1862
18631TIP3    H277385   0.835   2.383   5.791 -1.0739 -0.0149 -0.1051
18632TIP3   OH277386   6.550   6.891   4.329 -0.0154  0.3129 -0.3978
18632TIP3    H177387   6.610   6.820   4.351 -0.1128  0.6444  0.9745
18632TIP3    H277388   6.559   6.954   4.400 -2.8215 -0.1732  0.4473
18633TIP3   OH277389   6.243   5.963   3.941 -0.0369  0.0375  0.4306
18633TIP3    H177390   6.284   6.048   3.959  0.5196 -0.2706  0.6431
18633TIP3    H277391   6.317   5.903   3.928 -0.4271 -0.3323 -0.1196
18634TIP3   OH277392   5.240   6.327   5.223 -0.1245  0.0406 -0.2241
18634TIP3    H177393   5.280   6.404   5.262 -0.7484  0.6060 -0.6849
18634TIP3    H277394   5.313   6.274   5.192  0.3743 -0.2618  1.3898
18635TIP3   OH277395   6.153   3.891   4.787  1.0688 -0.0728  0.2788
18635TIP3    H177396   6.078   3.929   4.741  1.9079 -1.6806 -2.4581
18635TIP3    H277397   6.226   3.900   4.726  3.0713  1.1039  2.7471
18636TIP3   OH277398   3.764   0.218   3.548 -0.5740  0.3216 -1.2208
18636TIP3    H177399   3.821   0.164   3.603  0.0515  3.6740  1.6322
18636TIP3    H277400   3.719   0.156   3.491 -0.3298 -3.2742  2.2596
18637TIP3   OH277401   2.294   6.830   4.220  0.4086  0.2718 -0.5116
18637TIP3    H177402   2.228   6.771   4.256  0.3066 -0.2446 -1.5317
18637TIP3    H277403   2.358   6.772   4.178  0.2182  0.8899 -1.6783
18638TIP3   OH277404   6.525   3.821   5.593  0.7568  0.5936 -0.2465
18638TIP3    H177405   6.471   3.856   5.665  0.5669 -0.5413  0.1815
18638TIP3    H277406   6.471   3.833   5.515  0.3298  0.4684  0.0235
18639TIP3   OH277407   2.981   5.347   2.137 -0.4413  0.4572  0.0719
18639TIP3    H177408   3.044   5.371   2.069  1.4437  0.3370  1.7464
18639TIP3    H277409   2.999   5.255   2.156 -0.8377  0.5370  0.8583
18640TIP3   OH277410   3.246   5.690   3.444  0.2151 -0.8098  0.3042
18640TIP3    H177411   3.246   5.616   3.385 -0.9989  0.2329 -1.0421
18640TIP3    H277412   3.337   5.720   3.447  0.2838 -0.8851 -1.0240
18641TIP3   OH277413   0.798   0.167   5.504  0.7029  0.0873 -0.0582
18641TIP3    H177414   0.783   0.102   5.573 -0.0216 -0.7802 -1.0218
18641TIP3    H277415   0.734   0.236   5.522  0.7072 -0.0002  0.2995
18642TIP3   OH277416   7.169   3.888   3.514  0.5947  0.0185  0.2771
18642TIP3    H177417   7.078   3.885   3.487  0.3154 -2.0391  1.3771
18642TIP3    H277418   7.207   3.959   3.461 -1.4791  0.5305 -0.5848
18643TIP3   OH277419   0.623   5.683   3.538 -0.4625 -0.6009  0.4127
18643TIP3    H177420   0.583   5.719   3.617 -1.2968 -1.7011  0.4940
18643TIP3    H277421   0.568   5.713   3.466 -0.7107 -1.0611  0.4095
18644TIP3   OH277422   3.296   4.302   2.565 -0.3329 -0.1401  0.0161
18644TIP3    H177423   3.241   4.343   2.632 -1.1644 -0.3263 -0.5522
18644TIP3    H277424   3.235   4.274   2.497  0.3006 -1.6138  0.0252
18645TIP3   OH277425   1.693   5.227   5.055  0.4628  0.3393 -0.3665
18645TIP3    H177426   1.642   5.171   5.114  0.9294 -1.1501 -1.3314
18645TIP3    H277427   1.784   5.197   5.067  0.7871  1.2640 -0.4977
18646TIP3   OH277428   0.094   5.719   5.140 -0.5280 -0.3727 -0.5035
18646TIP3    H177429   0.140   5.792   5.100  1.8369 -1.2823  0.5132
18646TIP3    H277430   0.160   5.651   5.151 -1.8064 -1.2748  2.1462
18647TIP3   OH277431   0.995   4.223   6.282  0.0860  0.1556  0.0842
18647TIP3    H177432   1.078   4.270   6.270  1.3078 -2.1520 -0.8405
18647TIP3    H277433   0.936   4.262   6.218  1.0465  0.4975 -0.6080
18648TIP3   OH277434   3.214   5.391   5.883 -0.2973  0.2226  0.2587
18648TIP3    H177435   3.306   5.366   5.872  0.0539  0.9973  1.3845
18648TIP3    H277436   3.192   5.363   5.972 -0.7740  1.1902  0.4534
18649TIP3   OH277437   1.231   6.065   4.632  0.2543 -0.1545 -0.2868
18649TIP3    H177438   1.229   6.158   4.608 -0.7229 -0.6402 -2.1730
18649TIP3    H277439   1.317   6.034   4.603  0.5236  0.1227  0.2111
18650TIP3   OH277440   6.885   3.580   4.869  0.3436  0.0632  0.0804
18650TIP3    H177441   6.894   3.489   4.898 -1.3340 -0.5032 -1.1157
18650TIP3    H277442   6.973   3.617   4.879  0.8839 -1.4721  1.2723
18651TIP3   OH277443   2.663   3.962   5.858 -0.1964 -0.3320  0.0803
18651TIP3    H177444   2.578   3.938   5.893 -0.5438  0.6355 -0.0786
18651TIP3    H277445   2.724   3.949   5.930 -0.7538  0.6770  0.7581
18652TIP3   OH277446   1.563   5.231   4.139  0.0554  0.5017  0.4391
18652TIP3    H177447   1.610   5.198   4.215 -0.5331  0.1820  0.6704
18652TIP3    H277448   1.478   5.259   4.174  0.6522  2.5361  0.2981
18653TIP3   OH277449   0.480   3.646   5.937 -0.3902 -0.2362 -0.2883
18653TIP3    H177450   0.429   3.593   5.998 -0.1085  2.1957  2.1170
18653TIP3    H277451   0.561   3.596   5.925 -0.4158 -0.7108  1.4033
18654TIP3   OH277452   2.526   6.454   5.293 -0.3227  0.6207  0.0070
18654TIP3    H177453   2.464   6.389   5.326 -0.0300 -0.1409 -0.9226
18654TIP3    H277454   2.489   6.538   5.320  0.1265  0.0102  2.6254
18655TIP3   OH277455   2.879   5.761   4.972  0.4480 -0.2543 -0.2719
18655TIP3    H177456   2.858   5.711   5.051 -0.5506 -1.1347 -1.0834
18655TIP3    H277457   2.973   5.753   4.962  0.4597 -0.8982  0.3298
18656TIP3   OH277458   6.409   4.645   4.186  0.5557  0.1840  0.4667
18656TIP3    H177459   6.453   4.699   4.251  1.6843 -1.3510  0.9958
18656TIP3    H277460   6.478   4.619   4.125  0.2348 -1.5483  0.8263
18657TIP3   OH277461   4.886   4.842   4.299  0.3403  0.3164  0.5536
18657TIP3    H177462   4.856   4.871   4.385 -0.4173  4.4872 -0.9733
18657TIP3    H277463   4.813   4.863   4.240  1.1286 -1.7565 -1.2196
18658TIP3   OH277464   0.750   4.672   5.963 -0.4627  0.2968 -0.4290
18658TIP3    H177465   0.733   4.767   5.957 -1.5392  0.0813 -0.9947
18658TIP3    H277466   0.665   4.635   5.988 -0.2168 -0.5879 -0.8829
18659TIP3   OH277467   1.156   1.929   2.490 -0.4041  0.5820  0.2268
18659TIP3    H177468   1.207   1.862   2.537  0.6161  0.0194 -1.6321
18659TIP3    H277469   1.065   1.902   2.501 -0.0423 -0.7395  0.0883
18660TIP3   OH277470   2.278   4.177   5.759 -1.1250  0.0631 -0.5188
18660TIP3    H177471   2.183   4.168   5.763 -1.6217  3.4504 -2.6864
18660TIP3    H277472   2.302   4.216   5.843 -1.4433 -1.9837  0.5524
18661TIP3   OH277473   1.182   4.905   5.035  0.1108 -0.0667 -0.3596
18661TIP3    H177474   1.250   4.850   5.074  0.8205 -0.0792 -1.6073
18661TIP3    H277475   1.201   4.993   5.069  0.7679 -0.0655 -0.7154
18662TIP3   OH277476   5.103   4.959   4.525 -0.0656  0.7729  0.1959
18662TIP3    H177477   5.101   4.975   4.619 -0.3605  2.5486 -0.0932
18662TIP3    H277478   5.011   4.950   4.501  0.0862 -1.6175  0.3596
18663TIP3   OH277479   5.843   4.863   4.647 -0.4392  0.3983 -0.5729
18663TIP3    H177480   5.900   4.793   4.678 -0.7387 -0.6365 -2.2686
18663TIP3    H277481   5.772   4.817   4.602  0.0242  1.8161 -2.8164
18664TIP3   OH277482   1.054   4.446   4.948 -0.2887  0.4162 -0.0698
18664TIP3    H177483   1.033   4.527   4.995 -2.1573 -0.1475  0.1123
18664TIP3    H277484   0.982   4.387   4.969  1.7070 -1.7582  0.8479
18665TIP3   OH277485   0.976   3.681   4.584 -0.1037 -0.2805  0.0592
18665TIP3    H177486   1.022   3.647   4.508 -1.2119  0.2644 -0.8641
18665TIP3    H277487   0.947   3.603   4.632 -0.6805 -0.6297 -0.8563
18666TIP3   OH277488   6.960   3.752   3.022  0.0579  0.5069  0.0405
18666TIP3    H177489   6.929   3.699   2.949  3.8740 -0.5542 -0.9034
18666TIP3    H277490   6.977   3.688   3.092  1.5319  0.8168 -0.0059
18667TIP3   OH277491   0.513   2.447   3.145 -0.0721 -0.5755  0.3981
18667TIP3    H177492   0.550   2.534   3.132  1.7774 -1.3452  0.5002
18667TIP3    H277493   0.483   2.420   3.059 -0.6383  0.1463  0.3635
18668TIP3   OH277494   4.653   4.706   4.856 -0.2588 -0.1364  0.1323
18668TIP3    H177495   4.664   4.678   4.766 -2.2410  2.1129 -0.8478
18668TIP3    H277496   4.562   4.686   4.877 -0.4363  1.3351  0.8772
18669TIP3   OH277497   0.000   3.399   3.976 -0.3568 -0.3573  0.1173
18669TIP3    H177498  -0.074   3.445   3.936 -0.0201  0.7912  0.7987
18669TIP3    H277499   0.070   3.464   3.979  0.5262 -1.2938 -0.0618
18670TIP3   OH277500   6.787   3.772   5.527 -0.1684 -0.1162  1.0392
18670TIP3    H177501   6.692   3.769   5.537 -0.4554 -0.0275 -1.2604
18670TIP3    H277502   6.812   3.680   5.514 -0.0221 -0.0685  0.9882
18671TIP3   OH277503   6.730   2.907   5.067  0.1829 -0.1168 -0.5409
18671TIP3    H177504   6.810   2.909   5.120  1.4058  1.2560 -2.3915
18671TIP3    H277505   6.713   2.999   5.046 -1.6473 -0.4301 -0.5502
18672TIP3   OH277506   1.455   0.760   5.740  0.4829 -0.3228 -0.1363
18672TIP3    H177507   1.405   0.738   5.818  0.7651  2.4964  0.9077
18672TIP3    H277508   1.544   0.729   5.759  0.5088  0.1825  0.6164
18673TIP3   OH277509   5.857   6.047   3.804 -0.0655  0.0053  0.0635
18673TIP3    H177510   5.869   5.996   3.884 -2.1810 -0.5536  0.0537
18673TIP3    H277511   5.820   6.130   3.834 -2.5366 -0.8622 -0.4267
18674TIP3   OH277512   0.913   4.179   4.528  0.6489  0.0597 -0.5196
18674TIP3    H177513   0.909   4.083   4.529  1.1196  0.0403  2.3906
18674TIP3    H277514   0.998   4.199   4.490  0.8891 -0.6817 -0.3744
18675TIP3   OH277515   2.246   5.940   5.536 -0.9502  0.2009 -0.2978
18675TIP3    H177516   2.252   5.844   5.539 -0.5068  0.2069 -1.0898
18675TIP3    H277517   2.317   5.970   5.593  0.4321  0.0949 -1.9412
18676TIP3   OH277518   7.050   4.147   4.142 -0.0751  0.5278 -0.5310
18676TIP3    H177519   6.997   4.227   4.143 -0.1555  0.4779  0.6506
18676TIP3    H277520   7.086   4.142   4.054 -1.6970  0.7983 -1.2163
18677TIP3   OH277521   0.843   3.478   4.229  0.0948  0.4789  0.7823
18677TIP3    H177522   0.917   3.536   4.249  0.4503 -0.7549  3.2211
18677TIP3    H277523   0.838   3.419   4.304 -2.2885 -0.5856 -0.1714
18678TIP3   OH277524   1.156   2.202   3.155  0.1423 -0.2222 -0.0206
18678TIP3    H177525   1.163   2.159   3.069 -2.4508  1.2840 -1.0397
18678TIP3    H277526   1.094   2.148   3.204 -0.5629  0.5062 -0.1113
18679TIP3   OH277527   6.355   3.992   4.388 -0.2956 -0.5836  0.4293
18679TIP3    H177528   6.359   3.896   4.395 -2.8176 -0.7211  0.4716
18679TIP3    H277529   6.375   4.010   4.296  0.3888 -1.1243  0.4666
18680TIP3   OH277530   0.682   2.788   3.985 -0.5567  0.1821  0.4450
18680TIP3    H177531   0.603   2.830   4.019 -0.0398  1.0587  0.5593
18680TIP3    H277532   0.672   2.791   3.890 -0.1989  1.1902  0.4355
18681TIP3   OH277533   1.251   3.603   3.782  0.3616  0.4302  0.2208
18681TIP3    H177534   1.328   3.592   3.839  1.3771  0.0001 -1.2027
18681TIP3    H277535   1.203   3.676   3.821  0.9189  0.0172  1.7462
18682TIP3   OH277536   1.004   2.341   4.853  0.1703 -0.2680 -0.7602
18682TIP3    H177537   0.993   2.397   4.776  0.4245 -0.8093 -1.1980
18682TIP3    H277538   1.036   2.399   4.921 -2.5007  0.7497 -0.3187
18683TIP3   OH277539   0.948   3.560   3.867 -0.5201  0.0235  0.5310
18683TIP3    H177540   0.965   3.619   3.794  1.2515 -2.1602 -0.8978
18683TIP3    H277541   1.013   3.584   3.933 -0.3049  0.1867  0.2617
18684TIP3   OH277542   0.806   6.685   3.374  0.8283  0.5891 -0.1064
18684TIP3    H177543   0.891   6.706   3.412  0.6885  0.2338  0.4090
18684TIP3    H277544   0.821   6.685   3.279  1.6764 -0.6309  0.0188
18685TIP3   OH277545   5.852   2.534   4.521 -0.3516  0.1075  0.5988
18685TIP3    H177546   5.765   2.569   4.538 -0.6237 -0.1312 -0.2567
18685TIP3    H277547   5.877   2.490   4.602  0.1355  2.5375  1.7977
18686TIP3   OH277548   0.103   4.224   5.602  0.3972 -0.3658 -0.6059
18686TIP3    H177549   0.046   4.279   5.656  0.3305 -0.1429 -0.9015
18686TIP3    H277550   0.187   4.270   5.601  0.0891  0.1967 -1.5866
18687TIP3   OH277551   0.327   0.531   2.780 -0.4850 -0.3213 -0.0479
18687TIP3    H177552   0.324   0.486   2.864  1.9927  0.0495  0.2641
18687TIP3    H277553   0.397   0.596   2.789  0.1748 -0.6158 -2.5529
18688TIP3   OH277554   0.661   3.937   4.231  0.1759  0.0907 -0.3062
18688TIP3    H177555   0.746   3.979   4.219  0.2271  0.0473 -0.0970
18688TIP3    H277556   0.679   3.859   4.283  0.0238  0.0233 -0.3532
18689TIP3   OH277557   0.868   1.764   4.787 -0.0450  0.0529 -0.0414
18689TIP3    H177558   0.882   1.800   4.700 -1.9548  0.0817 -0.3599
18689TIP3    H277559   0.809   1.826   4.830 -1.3828 -1.3725  0.2689
18690TIP3   OH277560   7.243   3.384   5.901 -0.4486  0.9811 -0.4065
18690TIP3    H177561   7.327   3.379   5.946 -0.4807  0.9011 -0.3536
18690TIP3    H277562   7.183   3.334   5.958 -0.2112 -0.1989 -1.1611
18691TIP3   OH277563   6.859   6.458   1.979  0.6096  0.5580 -0.4333
18691TIP3    H177564   6.820   6.372   1.968  1.4211  0.2285 -0.7238
18691TIP3    H277565   6.919   6.448   2.053  2.6638  0.1828 -2.0972
18692TIP3   OH277566   1.443   1.994   5.336  1.0755 -0.7975  0.0800
18692TIP3    H177567   1.493   2.071   5.364 -1.9267  0.1525  3.3108
18692TIP3    H277568   1.493   1.919   5.368  2.2557 -0.0274  0.0465
18693TIP3   OH277569   1.656   5.156   3.775  0.2119  0.2414  0.1253
18693TIP3    H177570   1.729   5.163   3.836  0.0089 -0.7158  0.4860
18693TIP3    H277571   1.676   5.218   3.706  0.6958  0.9660  0.9148
18694TIP3   OH277572   2.818   2.991   5.160  0.4596  0.1948  0.2183
18694TIP3    H177573   2.729   3.023   5.146  0.0529 -0.2679  1.7111
18694TIP3    H277574   2.874   3.067   5.142 -0.3251  0.9131  0.8081
18695TIP3   OH277575   2.368   5.665   6.409 -0.3356 -0.0766 -0.1416
18695TIP3    H177576   2.382   5.574   6.383  0.2006  0.2611 -1.0498
18695TIP3    H277577   2.345   5.710   6.328 -0.0369  0.7078  0.2044
18696TIP3   OH277578   6.256   5.055   5.569 -0.2307 -0.5835  0.3184
18696TIP3    H177579   6.292   4.973   5.604  0.1331 -0.6393 -0.1730
18696TIP3    H277580   6.288   5.123   5.628  2.1492 -0.4190 -1.0704
18697TIP3   OH277581   2.986   5.631   4.683  0.3605  0.2353  1.0091
18697TIP3    H177582   3.014   5.723   4.682 -1.6535  0.8600 -1.1093
18697TIP3    H277583   3.035   5.592   4.756  2.6980  2.5068  0.7164
18698TIP3   OH277584   2.330   6.009   5.837  0.1565 -0.0385 -0.0551
18698TIP3    H177585   2.353   6.100   5.855  2.9112 -0.2304 -2.2268
18698TIP3    H277586   2.394   5.957   5.886 -0.6444 -0.7799  0.2257
18699TIP3   OH277587   3.093   4.288   3.863  0.3118 -0.1839 -0.3091
18699TIP3    H177588   3.045   4.315   3.941  1.5024  1.2228 -0.0533
18699TIP3    H277589   3.031   4.233   3.814 -0.1576 -1.8313  2.0486
18700TIP3   OH277590   1.803   0.399   5.178 -0.2068 -0.1641  0.1128
18700TIP3    H177591   1.865   0.454   5.130 -0.0345 -0.2488  0.2385
18700TIP3    H277592   1.827   0.410   5.270  0.0942 -0.7672  0.1119
18701TIP3   OH277593   5.695   5.372   5.412 -0.4504  0.0989  0.2317
18701TIP3    H177594   5.769   5.425   5.441 -0.3171  0.9127 -1.4868
18701TIP3    H277595   5.734   5.311   5.348 -1.2959  0.7477 -0.9223
18702TIP3   OH277596   2.911   4.809   5.897 -0.1726 -0.1572 -1.0312
18702TIP3    H177597   2.861   4.889   5.913 -0.5055 -0.6420  0.3325
18702TIP3    H277598   3.002   4.833   5.917 -0.3579 -0.2926 -0.0286
18703TIP3   OH277599   3.906   4.031   5.055 -0.0165  0.4653  0.0061
18703TIP3    H177600   3.894   3.949   5.102  2.2176 -1.5178 -2.7158
18703TIP3    H277601   3.937   4.093   5.122 -0.0007 -1.3839  1.7528
18704TIP3   OH277602   0.195   4.029   3.224  0.4928 -0.0669 -0.4868
18704TIP3    H177603   0.126   4.094   3.208 -0.7142 -1.4267 -0.9019
18704TIP3    H277604   0.201   3.980   3.143  1.9475  0.0046 -0.4364
18705TIP3   OH277605   4.874   3.104   5.863  0.0453 -0.2905  0.0607
18705TIP3    H177606   4.928   3.086   5.939 -0.1971 -1.1224  0.0442
18705TIP3    H277607   4.825   3.023   5.849 -0.7284  0.2379 -0.3087
18706TIP3   OH277608   3.589   5.837   5.497 -0.1534  0.1490 -0.1987
18706TIP3    H177609   3.591   5.910   5.559 -2.2139  0.2761 -0.2618
18706TIP3    H277610   3.563   5.762   5.550  2.6074 -0.7366  0.0091
18707TIP3   OH277611   1.918   1.667   5.297  0.5024  0.7000  0.1208
18707TIP3    H177612   1.962   1.601   5.243 -0.2319  0.0832  0.2738
18707TIP3    H277613   1.984   1.694   5.360  1.6322  2.0145 -1.5944
18708TIP3   OH277614   2.932   5.154   6.116 -0.3273 -0.1655 -0.2636
18708TIP3    H177615   3.011   5.182   6.161  1.0618  0.2720 -2.8942
18708TIP3    H277616   2.915   5.066   6.150  1.8452 -0.6616 -0.4072
18709TIP3   OH277617   4.300   4.998   6.285  0.0210 -0.2140 -0.1469
18709TIP3    H177618   4.282   4.960   6.199  1.8725  0.2720 -0.7793
18709TIP3    H277619   4.363   5.069   6.267 -0.7841  0.9221  1.4146
18710TIP3   OH277620   3.015   2.527   4.256 -0.1789 -0.2755  0.4317
18710TIP3    H177621   2.991   2.603   4.310 -0.3604  1.0768 -1.4840
18710TIP3    H277622   3.089   2.557   4.203  0.5985 -1.8730  0.5963
18711TIP3   OH277623   1.662   4.278   6.037 -0.1248  0.1187  0.0050
18711TIP3    H177624   1.673   4.194   6.082 -0.6178  0.5145  0.8651
18711TIP3    H277625   1.568   4.283   6.019  0.3102 -1.0211 -3.0012
18712TIP3   OH277626   1.244   5.096   5.469 -0.2164 -0.0220  0.8882
18712TIP3    H177627   1.282   5.093   5.557  1.5020 -1.2385  0.1168
18712TIP3    H277628   1.211   5.008   5.455 -0.5995  0.2072  0.3482
18713TIP3   OH277629   3.665   1.564   5.441  0.0977  0.1202 -0.0836
18713TIP3    H177630   3.726   1.491   5.449 -2.3708 -1.9345  0.7114
18713TIP3    H277631   3.656   1.599   5.530  0.0601  0.3504 -0.1768
18714TIP3   OH277632   2.752   5.216   5.246 -0.3448 -0.6625 -0.0317
18714TIP3    H177633   2.700   5.234   5.324  0.4338 -0.2523  0.4048
18714TIP3    H277634   2.715   5.273   5.179 -0.5615 -0.4834  0.2374
18715TIP3   OH277635   3.155   6.722   4.326  0.9836 -0.5652 -0.0073
18715TIP3    H177636   3.143   6.816   4.338 -1.0205 -0.4904 -2.2862
18715TIP3    H277637   3.075   6.683   4.360  1.4031 -1.3714  0.0679
18716TIP3   OH277638   4.402   4.314   5.456 -0.0037  0.0819 -0.8613
18716TIP3    H177639   4.491   4.328   5.423  0.8634 -2.0985  0.4175
18716TIP3    H277640   4.369   4.239   5.407 -1.8918  2.0329 -2.6651
18717TIP3   OH277641   3.448   6.490   5.365 -0.4348  0.7285  0.1508
18717TIP3    H177642   3.354   6.482   5.349 -0.4433 -2.1791  1.3514
18717TIP3    H277643   3.484   6.519   5.281 -2.2399  0.5576 -0.7047
18718TIP3   OH277644   3.178   6.079   4.526  0.3918 -0.0412 -0.0750
18718TIP3    H177645   3.134   6.001   4.490  0.6634 -0.6775  0.9572
18718TIP3    H277646   3.271   6.064   4.509  0.5689 -0.5784  1.3174
18719TIP3   OH277647   2.959   3.781   5.324 -0.1100 -0.5385 -0.1730
18719TIP3    H177648   2.964   3.810   5.416  0.7220  0.0318 -0.3938
18719TIP3    H277649   3.017   3.705   5.320 -0.2678 -0.6583 -0.1950
18720TIP3   OH277650   3.522   5.996   3.071  0.0167  0.2125  0.3837
18720TIP3    H177651   3.604   5.987   3.023  0.2823 -3.2119  1.3097
18720TIP3    H277652   3.457   5.955   3.015 -0.9426  2.1409  0.0420
18721TIP3   OH277653   4.423   4.606   5.078 -0.3186  0.2309  0.3303
18721TIP3    H177654   4.461   4.669   5.139 -0.6934  1.1921 -0.4041
18721TIP3    H277655   4.350   4.568   5.125 -0.2001  0.4855  0.7230
18722TIP3   OH277656   4.068   6.319   5.065  0.4627 -0.1627 -0.1102
18722TIP3    H177657   4.035   6.408   5.055 -0.3253 -0.4775 -0.3031
18722TIP3    H277658   4.088   6.312   5.159  1.7618  0.6424 -0.3228
18723TIP3   OH277659   1.931   4.612   5.955 -0.3100  0.3313  0.4993
18723TIP3    H177660   1.902   4.533   5.910  2.4709  0.1340 -1.0039
18723TIP3    H277661   1.855   4.670   5.953 -2.3020 -2.1494  1.3808
18724TIP3   OH277662   2.628   5.616   1.590  0.7742 -0.4056 -0.2354
18724TIP3    H177663   2.717   5.629   1.623  1.1370 -1.6040 -0.7157
18724TIP3    H277664   2.599   5.535   1.632 -0.1974  0.1283  0.1260
18725TIP3   OH277665   4.911   4.838   5.921 -0.2812  0.1447  0.2812
18725TIP3    H177666   4.901   4.933   5.917 -1.3908  0.0458  0.5371
18725TIP3    H277667   4.873   4.807   5.838 -0.7139 -0.1386  0.5853
18726TIP3   OH277668   5.355   6.333   1.717  0.6177  0.2181 -0.3618
18726TIP3    H177669   5.317   6.305   1.634 -0.1006  0.1687 -0.0115
18726TIP3    H277670   5.348   6.257   1.775 -0.5754  0.8445  0.3249
18727TIP3   OH277671   3.235   4.763   5.310 -0.3343  0.0125 -0.3785
18727TIP3    H177672   3.264   4.786   5.399  1.2859 -1.9912 -0.3230
18727TIP3    H277673   3.194   4.677   5.321  0.8767 -0.7586 -1.7027
18728TIP3   OH277674   2.361   5.478   3.155  0.5729  0.1321  0.0609
18728TIP3    H177675   2.403   5.483   3.241  4.5729 -1.7000 -1.6830
18728TIP3    H277676   2.398   5.552   3.106  0.2511 -0.3210 -0.8686
18729TIP3   OH277677   2.434   3.930   5.991 -0.4966  0.2145  0.0840
18729TIP3    H177678   2.401   3.888   6.070 -0.4638  0.4284  0.2108
18729TIP3    H277679   2.444   4.022   6.015 -0.3305  0.2489 -0.1184
18730TIP3   OH277680   1.839   6.095   5.531  0.4764  0.2062  0.6125
18730TIP3    H177681   1.808   6.171   5.482  1.2009 -0.0471 -0.2537
18730TIP3    H277682   1.900   6.130   5.596 -1.1953  0.6453  1.9671
18731TIP3   OH277683   3.564   6.933   4.907 -0.2412  0.2062  0.2627
18731TIP3    H177684   3.623   6.972   4.843 -0.4240 -0.9476 -0.6332
18731TIP3    H277685   3.481   6.978   4.895  0.2913  1.4578  1.1554
18732TIP3   OH277686   1.733   6.297   5.408 -0.3187 -0.1528  0.2784
18732TIP3    H177687   1.759   6.384   5.440 -1.7580  0.6386 -0.6952
18732TIP3    H277688   1.706   6.311   5.318 -1.0885 -1.5308  0.2818
18733TIP3   OH277689   3.897   5.261   5.150 -0.2033 -0.2712  0.4571
18733TIP3    H177690   3.904   5.166   5.149  1.0238 -0.1854 -1.7186
18733TIP3    H277691   3.912   5.288   5.060  0.1106  2.0300  1.1456
18734TIP3   OH277692   2.801   4.821   5.356  0.1418  0.0151  0.1052
18734TIP3    H177693   2.850   4.827   5.274  0.9287 -0.5580  0.5322
18734TIP3    H277694   2.713   4.795   5.329  0.8318 -1.8032 -0.4226
18735TIP3   OH277695   1.735   2.778   3.208 -0.5781  0.1861 -0.0983
18735TIP3    H177696   1.698   2.855   3.166 -4.2193  0.0811  2.7132
18735TIP3    H277697   1.821   2.808   3.239 -0.5183  2.0708 -1.9116
18736TIP3   OH277698   1.791   4.300   4.638 -0.0368  0.3243  0.6976
18736TIP3    H177699   1.880   4.302   4.602 -0.3236  0.2811 -0.0245
18736TIP3    H277700   1.804   4.287   4.732  0.6493 -1.9374  0.3237
18737TIP3   OH277701   3.221   5.974   4.186  0.6433 -0.1670 -0.4402
18737TIP3    H177702   3.288   5.996   4.251 -0.6023  1.7127  0.2580
18737TIP3    H277703   3.215   6.052   4.131  0.9431 -1.3580 -2.1878
18738TIP3   OH277704   6.654   3.708   4.933 -0.1301 -0.3400  0.0981
18738TIP3    H177705   6.670   3.797   4.964 -0.7572 -0.5451  1.0199
18738TIP3    H277706   6.739   3.664   4.940  0.3468  0.3642 -1.0063
18739TIP3   OH277707   4.449   0.218   3.906  0.1654  0.6406  0.0234
18739TIP3    H177708   4.461   0.274   3.830  1.2561 -1.1187 -1.1145
18739TIP3    H277709   4.498   0.261   3.976 -0.1037  1.7845 -0.4842
18740TIP3   OH277710   0.013   4.170   5.314  0.0895 -0.2246 -0.2617
18740TIP3    H177711   0.052   4.196   5.397  1.4318 -0.2189 -0.8822
18740TIP3    H277712  -0.055   4.235   5.298  1.6116  1.3584 -0.4646
18741TIP3   OH277713   1.496   4.629   4.871 -0.1791 -0.5775 -0.4799
18741TIP3    H177714   1.487   4.534   4.865  0.9078 -0.8084  1.1803
18741TIP3    H277715   1.582   4.648   4.832 -0.8296 -0.1523 -1.7359
18742TIP3   OH277716   2.924   4.229   6.212 -0.4048  0.4627 -0.5170
18742TIP3    H177717   2.911   4.288   6.286 -0.1557  0.8316 -0.7673
18742TIP3    H277718   2.843   4.178   6.208 -1.2183  1.7723 -1.1881
18743TIP3   OH277719   3.583   0.492   4.628 -0.2225  0.0983  0.0038
18743TIP3    H177720   3.657   0.436   4.605 -0.8441 -0.4714 -0.6055
18743TIP3    H277721   3.610   0.579   4.601  1.1977  0.2967  1.9364
18744TIP3   OH277722   4.220   7.153   4.964  0.1215  0.6223  0.2170
18744TIP3    H177723   4.215   7.061   4.990 -0.0664  0.7861  0.7776
18744TIP3    H277724   4.288   7.189   5.021  1.3152  0.4767 -1.0852
18745TIP3   OH277725   1.347   6.831   4.321  0.0023  0.5011  0.5293
18745TIP3    H177726   1.368   6.814   4.412  0.5514 -1.4043  0.0690
18745TIP3    H277727   1.429   6.814   4.274 -0.6729 -0.0318 -0.4803
18746TIP3   OH277728   4.344   5.472   3.106  0.0039  0.2552 -0.1498
18746TIP3    H177729   4.350   5.398   3.166  0.1265  0.0300 -0.4385
18746TIP3    H277730   4.274   5.527   3.142  0.1199  0.1520  0.2318
18747TIP3   OH277731   3.861   5.958   5.667 -0.2131  0.0019 -0.4764
18747TIP3    H177732   3.933   5.940   5.728  0.2463 -0.5641 -1.1884
18747TIP3    H277733   3.783   5.961   5.723  0.2285 -0.3177  0.1695
18748TIP3   OH277734   2.335   2.564   5.678 -0.0012 -0.2283 -0.0680
18748TIP3    H177735   2.387   2.491   5.710  0.7946 -0.0849 -1.0045
18748TIP3    H277736   2.305   2.537   5.591  0.1600  0.4890 -0.3515
18749TIP3   OH277737   1.550   3.929   4.434 -0.1300  0.2098  0.9256
18749TIP3    H177738   1.556   4.024   4.425  1.9616  0.0293  0.0366
18749TIP3    H277739   1.522   3.914   4.524 -0.0293  1.6517  1.1960
18750TIP3   OH277740   2.441   4.700   3.794 -0.0625 -0.3779 -0.0771
18750TIP3    H177741   2.392   4.776   3.763  0.0337 -0.9028 -1.6001
18750TIP3    H277742   2.491   4.671   3.717 -0.1870 -2.0308  0.4321
18751TIP3   OH277743   2.535   5.808   6.562 -0.1330 -0.3364 -0.4488
18751TIP3    H177744   2.515   5.779   6.651 -0.7049  0.2763 -0.3735
18751TIP3    H277745   2.489   5.746   6.506 -0.5430 -0.1670 -0.3030
18752TIP3   OH277746   1.848   3.764   5.681 -0.0880  0.3949 -0.3414
18752TIP3    H177747   1.759   3.782   5.709  0.1793  0.3739  0.5330
18752TIP3    H277748   1.903   3.820   5.735  0.4439  0.2291 -0.7018
18753TIP3   OH277749   2.743   5.893   3.493 -0.2043  0.4081 -0.2289
18753TIP3    H177750   2.736   5.963   3.559 -1.3119  0.3996 -0.3151
18753TIP3    H277751   2.836   5.872   3.490 -0.4430 -1.8412  3.7145
18754TIP3   OH277752   1.117   1.686   3.931  0.1340  0.1874  0.3067
18754TIP3    H177753   1.133   1.602   3.973 -1.5375 -0.8346 -1.0398
18754TIP3    H277754   1.024   1.703   3.945 -0.2442  0.2907 -2.0549
18755TIP3   OH277755   0.564   4.637   4.598 -0.5178 -0.3676 -0.4124
18755TIP3    H177756   0.617   4.676   4.667 -0.3131  0.5033 -1.0492
18755TIP3    H277757   0.481   4.614   4.641 -0.3432  0.0416  0.1466
18756TIP3   OH277758   3.050   3.331   5.326  0.2498  0.2934 -0.0479
18756TIP3    H177759   3.108   3.259   5.348 -0.5874 -0.7000 -1.0604
18756TIP3    H277760   3.020   3.312   5.237 -0.4264  1.5894 -0.1131
18757TIP3   OH277761   0.116   3.681   3.726 -0.0742  0.4411  0.2233
18757TIP3    H177762   0.164   3.756   3.689  0.8474 -0.0944  0.3179
18757TIP3    H277763   0.053   3.658   3.657  2.7849 -1.6345 -1.8131
18758TIP3   OH277764   1.730   5.524   5.824 -0.3773 -0.6798  0.1466
18758TIP3    H177765   1.692   5.456   5.878  0.3636  0.8435  2.6553
18758TIP3    H277766   1.819   5.494   5.806  0.4854  0.3426  2.6013
18759TIP3   OH277767   2.258   3.859   5.724 -0.5593 -0.0920  0.0470
18759TIP3    H177768   2.197   3.791   5.751  0.7804 -0.9031  1.1464
18759TIP3    H277769   2.281   3.904   5.806 -1.0950  1.4066 -0.6088
18760TIP3   OH277770   2.632   4.071   6.535 -0.2191 -0.3189 -0.2713
18760TIP3    H177771   2.603   4.151   6.577  0.8666  0.2483 -0.5798
18760TIP3    H277772   2.689   4.100   6.464  2.2547 -1.3904  1.1957
18761TIP3   OH277773   1.820   5.216   4.256 -0.1935 -0.3746 -0.2401
18761TIP3    H177774   1.883   5.253   4.316 -0.7797 -1.7986  1.2851
18761TIP3    H277775   1.827   5.270   4.177  0.7916  1.3068  0.9832
18762TIP3   OH277776   1.495   3.510   4.759 -0.0078 -0.1627 -0.0262
18762TIP3    H177777   1.538   3.516   4.674 -1.0283 -2.5393 -0.7589
18762TIP3    H277778   1.511   3.595   4.801  3.1499 -0.0813 -1.3095
18763TIP3   OH277779   3.712   3.583   4.522  0.9307 -0.8680 -0.3668
18763TIP3    H177780   3.694   3.623   4.437  0.2230 -0.1615  0.1081
18763TIP3    H277781   3.796   3.538   4.510  1.1131 -0.2995 -1.2717
18764TIP3   OH277782   1.070   5.748   3.500 -0.1543 -0.5831  0.6257
18764TIP3    H177783   0.988   5.729   3.454 -1.4692 -0.2257  2.7361
18764TIP3    H277784   1.093   5.837   3.474 -1.9600  0.3651  2.1216
18765TIP3   OH277785   3.633   2.157   5.147 -0.1013 -0.4121  0.0314
18765TIP3    H177786   3.596   2.227   5.093  0.1184 -0.3746 -0.0716
18765TIP3    H277787   3.603   2.076   5.105 -0.1471 -0.3825  0.0063
18766TIP3   OH277788   1.479   4.329   4.892  0.2394  0.1296  0.1204
18766TIP3    H177789   1.403   4.275   4.912 -0.6756  1.2740 -0.2359
18766TIP3    H277790   1.541   4.309   4.962  0.1097 -1.7268 -0.2685
18767TIP3   OH277791   3.836   4.734   4.978  0.8243 -0.1819  0.0551
18767TIP3    H177792   3.881   4.649   4.975  2.5170  0.7372 -1.6063
18767TIP3    H277793   3.876   4.785   4.908 -1.5678  1.3340 -0.2563
18768TIP3   OH277794   2.759   2.531   4.145 -0.6893  0.1083 -0.1518
18768TIP3    H177795   2.730   2.587   4.217 -0.4331  0.5657 -0.3954
18768TIP3    H277796   2.853   2.518   4.161 -0.6589  0.1073 -0.3316
18769TIP3   OH277797   2.087   4.486   4.530 -0.3441  0.2017  0.4356
18769TIP3    H177798   2.182   4.502   4.525  0.0120 -1.3615  1.7792
18769TIP3    H277799   2.066   4.495   4.623 -1.7128  1.5636  0.0042
18770TIP3   OH277800   4.265   4.662   5.958 -0.0749 -0.5773 -0.1063
18770TIP3    H177801   4.357   4.643   5.976  0.0235  0.5825  0.6507
18770TIP3    H277802   4.228   4.577   5.934  1.4473 -0.8501 -1.5884
18771TIP3   OH277803   2.773   4.606   6.022 -0.2671  0.1999 -0.5111
18771TIP3    H177804   2.742   4.629   5.934  0.2251 -1.1206 -1.0435
18771TIP3    H277805   2.819   4.684   6.052 -0.5229  0.6999 -1.3876
18772TIP3   OH277806   2.894   3.405   4.269  0.6670  0.2782  0.1936
18772TIP3    H177807   2.966   3.348   4.242 -1.3872 -2.1856 -0.2394
18772TIP3    H277808   2.864   3.445   4.187 -0.7059 -1.4131 -0.1502
18773TIP3   OH277809   7.280   3.474   4.441  0.7853 -0.3121  0.6762
18773TIP3    H177810   7.308   3.546   4.384 -0.4891  0.1232  0.5928
18773TIP3    H277811   7.213   3.513   4.498 -1.9573 -2.0955 -1.2349
18774TIP3   OH277812   2.465   4.843   5.837  0.6708 -0.0604 -0.0523
18774TIP3    H177813   2.384   4.889   5.816 -0.3806 -0.9898  1.7683
18774TIP3    H277814   2.512   4.902   5.896 -0.3376 -0.9328  1.6905
18775TIP3   OH277815   3.060   5.623   3.885 -0.6293 -0.1571  0.1451
18775TIP3    H177816   3.078   5.662   3.970  1.2672  0.7548 -0.6435
18775TIP3    H277817   3.021   5.693   3.833  2.3950  0.6686 -1.1386
18776TIP3   OH277818   3.012   5.820   3.483  0.1196  0.0687 -0.4005
18776TIP3    H177819   3.059   5.890   3.438 -0.1748  0.2744 -0.3834
18776TIP3    H277820   3.080   5.755   3.503  0.5788  0.8017  0.4771
18777TIP3   OH277821   4.032   3.561   3.438 -0.0542 -0.9025  0.1690
18777TIP3    H177822   4.015   3.482   3.490 -2.1247 -1.1560 -0.8289
18777TIP3    H277823   4.033   3.530   3.347  0.9107 -0.0549 -0.1077
18778TIP3   OH277824   1.648   4.560   5.449  0.1158 -0.2996  0.1061
18778TIP3    H177825   1.645   4.501   5.524  0.3856 -0.2801  0.1304
18778TIP3    H277826   1.646   4.648   5.486 -1.4708 -0.2838  0.0334
18779TIP3   OH277827   2.453   6.050   5.185  0.1477 -0.3192  0.4113
18779TIP3    H177828   2.479   6.088   5.269  0.4209  0.2843  0.0555
18779TIP3    H277829   2.532   6.006   5.153  0.2265  0.0007  0.1666
18780TIP3   OH277830   3.530   0.189   5.141  0.3072  0.5398 -0.1468
18780TIP3    H177831   3.498   0.279   5.144 -4.0577 -0.9114  0.3362
18780TIP3    H277832   3.544   0.164   5.232  0.9374  0.5382 -0.2415
18781TIP3   OH277833   2.895   3.163   4.726  0.1253 -0.5725 -0.0979
18781TIP3    H177834   2.920   3.175   4.635  0.4808  0.0870  0.0801
18781TIP3    H277835   2.890   3.069   4.738  0.0787 -0.6579 -0.7984
18782TIP3   OH277836   2.233   5.863   4.270  0.1465 -0.5697 -0.0835
18782TIP3    H177837   2.197   5.947   4.299  2.7107  0.8811 -0.8986
18782TIP3    H277838   2.287   5.833   4.343 -0.2220 -1.1876 -0.0588
18783TIP3   OH277839   2.120   5.109   5.519 -0.8128  0.5903  0.0300
18783TIP3    H177840   2.041   5.079   5.563 -0.7211  0.2690 -0.0255
18783TIP3    H277841   2.133   5.198   5.552 -1.1116  0.5892  0.1542
18784TIP3   OH277842   3.110   5.447   6.273  0.0767  0.5275 -0.6146
18784TIP3    H177843   3.023   5.457   6.234 -0.1264 -1.5656 -0.7642
18784TIP3    H277844   3.160   5.398   6.208  1.2426  1.3033 -0.3197
18785TIP3   OH277845   2.939   7.201   3.622 -0.2834 -0.3145 -0.1044
18785TIP3    H177846   2.945   7.220   3.716  0.6171  0.4048 -0.2916
18785TIP3    H277847   2.868   7.257   3.590  1.5588  1.9049 -0.4282
18786TIP3   OH277848   2.869   4.530   5.447  0.1179  0.3758 -0.3261
18786TIP3    H177849   2.814   4.501   5.520 -0.1230  3.3163  0.7221
18786TIP3    H277850   2.818   4.599   5.404  1.3052  0.3648 -1.8017
18787TIP3   OH277851   2.844   4.917   3.525 -0.0012 -0.3961 -0.0976
18787TIP3    H177852   2.791   4.996   3.533 -0.7361 -0.8748 -0.1456
18787TIP3    H277853   2.881   4.903   3.612 -0.7405 -0.5928  0.1935
18788TIP3   OH277854   3.157   5.497   4.910 -0.6966  0.3814  0.2095
18788TIP3    H177855   3.190   5.410   4.889  0.5853  1.2742 -1.5509
18788TIP3    H277856   3.231   5.543   4.948 -1.6211  0.4265  1.9934
18789TIP3   OH277857   1.533   5.174   5.561 -0.3756  0.8991 -0.0823
18789TIP3    H177858   1.482   5.114   5.616 -0.9671 -0.0731 -1.6463
18789TIP3    H277859   1.596   5.214   5.621 -1.9901  0.9999  1.5916
18790TIP3   OH277860   3.890   3.811   4.843 -0.6995  0.0822  0.1413
18790TIP3    H177861   3.886   3.878   4.912  0.2415 -0.0904  0.3666
18790TIP3    H277862   3.940   3.739   4.883 -0.5030 -0.1851 -0.5880
18791TIP3   OH277863   3.345   4.857   5.051 -0.2399  0.0763 -0.5077
18791TIP3    H177864   3.316   4.828   5.138  1.1144  1.5006  0.4340
18791TIP3    H277865   3.290   4.932   5.031  0.2778  0.5019 -0.3402
18792TIP3   OH277866   1.307   1.693   2.584  0.1366  0.0592  0.0904
18792TIP3    H177867   1.379   1.642   2.547  0.9594  1.2330  0.0572
18792TIP3    H277868   1.228   1.650   2.551  0.8434  0.3296 -2.0450
18793TIP3   OH277869   4.533   0.416   4.847  0.3401  0.2075 -0.1958
18793TIP3    H177870   4.495   0.365   4.776 -0.1134  0.5794 -0.2231
18793TIP3    H277871   4.464   0.418   4.914  1.3175 -1.4685  0.9105
18794TIP3   OH277872   3.724   5.946   4.582  0.6643  0.3802 -0.0231
18794TIP3    H177873   3.800   5.989   4.620  0.6798 -1.0433  1.6101
18794TIP3    H277874   3.661   5.939   4.654 -0.6199  0.5970 -1.0861
18795TIP3   OH277875   3.124   6.850   5.284  0.4879 -0.0482  0.1027
18795TIP3    H177876   3.151   6.910   5.353 -1.6163  0.6212  0.3762
18795TIP3    H277877   3.055   6.797   5.323 -0.8832  0.4907 -1.5354
18796TIP3   OH277878   2.397   5.043   6.116  0.2864 -0.0426  0.4433
18796TIP3    H177879   2.338   5.117   6.103  0.0921  0.0832  1.9772
18796TIP3    H277880   2.478   5.068   6.070  0.2487  1.1564  1.0049
18797TIP3   OH277881   4.070   0.469   4.773 -0.0961  0.0812  0.4441
18797TIP3    H177882   3.980   0.486   4.800 -0.5766 -0.5834 -0.7141
18797TIP3    H277883   4.087   0.533   4.704  0.9363  1.3975  1.9094
18798TIP3   OH277884   3.186   4.915   2.986 -0.2588  0.3363 -0.7586
18798TIP3    H177885   3.204   4.908   2.892  1.3334 -0.5299 -0.4036
18798TIP3    H277886   3.245   4.852   3.027  0.1289  1.7672  0.9494
18799TIP3   OH277887   5.211   0.631   4.457  0.5737  0.2340  0.4472
18799TIP3    H177888   5.159   0.699   4.415 -1.2382 -1.4010 -0.0348
18799TIP3    H277889   5.246   0.673   4.536 -0.2719  1.7898  0.0202
18800TIP3   OH277890   2.090   5.952   6.051 -0.2482  0.2666  0.2038
18800TIP3    H177891   2.104   6.005   5.973  2.2890  2.1869  1.8264
18800TIP3    H277892   2.040   6.009   6.110 -1.1162 -0.7007  0.3973
18801TIP3   OH277893   2.832   5.983   4.524  0.4433  0.2349 -0.1436
18801TIP3    H177894   2.902   5.918   4.514  2.3209  2.3731 -1.3629
18801TIP3    H277895   2.813   5.983   4.618  1.0623 -1.3939 -0.0020
18802TIP3   OH277896   1.586   5.566   2.613  0.0703  0.0530 -0.2813
18802TIP3    H177897   1.572   5.569   2.518 -1.5661  0.4616 -0.0535
18802TIP3    H277898   1.628   5.481   2.628 -1.1066 -0.7227 -1.2212
18803TIP3   OH277899   1.047   5.300   3.910 -0.0873  0.3933  0.7760
18803TIP3    H177900   1.104   5.243   3.962 -0.0171  0.3713  0.6755
18803TIP3    H277901   1.003   5.241   3.849  0.8654  0.5855 -0.1280
18804TIP3   OH277902   1.651   3.068   5.339  0.0027 -0.1682  0.5889
18804TIP3    H177903   1.580   3.038   5.396 -1.9113  3.5032  0.2837
18804TIP3    H277904   1.702   3.127   5.393  2.0698 -1.6934  0.3699
18805TIP3   OH277905   3.304   2.952   4.762 -0.3083  0.0684  0.3827
18805TIP3    H177906   3.308   3.021   4.695 -1.1393  0.5075  0.7767
18805TIP3    H277907   3.211   2.928   4.765 -0.2717  0.0674  1.3960
18806TIP3   OH277908   2.485   6.331   4.875  0.4461 -0.3389  0.6047
18806TIP3    H177909   2.490   6.349   4.781  0.5837 -0.9942  0.4852
18806TIP3    H277910   2.522   6.410   4.916  1.4071 -0.5002  0.0723
18807TIP3   OH277911   3.048   4.140   4.840 -0.1844  0.5973  0.9513
18807TIP3    H177912   2.970   4.186   4.873 -1.3593 -1.7298  1.5088
18807TIP3    H277913   3.017   4.051   4.822  2.1656 -0.1196  0.3796
18808TIP3   OH277914   2.299   4.917   3.669 -0.0506 -0.2001 -0.2111
18808TIP3    H177915   2.330   4.966   3.593  1.2694  3.0983  2.3175
18808TIP3    H277916   2.267   4.984   3.729 -1.4813 -2.7537  2.0081
18809TIP3   OH277917   4.094   4.033   5.586 -0.0040  0.4410  0.0859
18809TIP3    H177918   4.045   4.068   5.660 -1.8837 -0.5858 -0.6499
18809TIP3    H277919   4.049   3.953   5.563  1.2269  0.1749 -1.4840
18810TIP3   OH277920   4.682   4.391   5.419 -0.2303 -0.3570 -0.3035
18810TIP3    H177921   4.682   4.476   5.464  0.0836 -1.2711  1.4415
18810TIP3    H277922   4.707   4.412   5.329  0.8109  1.2785  0.3435
18811TIP3   OH277923   2.903   3.931   5.703  0.0409 -0.0906 -0.1255
18811TIP3    H177924   2.855   3.991   5.760 -0.0737 -0.9554  0.7124
18811TIP3    H277925   2.910   3.977   5.620  0.3353  1.2561  0.6297
18812TIP3   OH277926   3.110   3.060   5.823  0.5174 -0.9449  0.1215
18812TIP3    H177927   3.181   3.017   5.871  1.3162 -1.7024 -1.7293
18812TIP3    H277928   3.079   2.994   5.761 -0.9646 -0.1943  0.0435
18813TIP3   OH277929   2.364   3.171   4.703 -0.2513 -0.3864 -0.4952
18813TIP3    H177930   2.431   3.224   4.745  0.3327 -1.8606  0.4677
18813TIP3    H277931   2.283   3.221   4.714  0.4828  0.8685 -0.6708
18814TIP3   OH277932   2.086   2.433   4.156  0.4787 -0.4611 -0.6010
18814TIP3    H177933   2.105   2.522   4.125 -0.1912 -0.3585 -0.7177
18814TIP3    H277934   2.015   2.403   4.100 -0.6682 -0.3092  0.7637
18815TIP3   OH277935   3.410   6.308   5.830 -0.5422  0.2129  0.1581
18815TIP3    H177936   3.380   6.398   5.837 -0.2907  0.2475  0.8332
18815TIP3    H277937   3.421   6.279   5.921  0.5581 -0.0981 -0.0688
18816TIP3   OH277938   3.872   5.761   5.095  0.2192 -0.6353  0.6436
18816TIP3    H177939   3.924   5.689   5.059  1.2839 -0.0969  1.0808
18816TIP3    H277940   3.937   5.826   5.123 -0.7359  0.8961 -0.5725
18817TIP3   OH277941   1.690   3.505   3.840  0.0531 -0.1429 -0.2402
18817TIP3    H177942   1.743   3.564   3.894 -0.0770 -0.1619 -0.0937
18817TIP3    H277943   1.603   3.508   3.879 -0.1754  0.2654 -0.7745
18818TIP3   OH277944   2.285   7.017   4.640 -0.4666 -0.2347  0.4536
18818TIP3    H177945   2.208   6.985   4.593  0.7601 -1.2573 -0.8931
18818TIP3    H277946   2.359   6.992   4.585  0.9444 -0.5650  2.4353
18819TIP3   OH277947   2.665   4.408   6.517 -0.0213  0.0101 -0.3765
18819TIP3    H177948   2.678   4.403   6.422  0.6197  1.1509 -0.3586
18819TIP3    H277949   2.579   4.449   6.527 -1.4697 -2.8873 -0.4639
18820TIP3   OH277950   1.616   4.542   3.719  0.0227  0.5486  0.3945
18820TIP3    H177951   1.644   4.631   3.738 -0.0654  0.7011 -0.1709
18820TIP3    H277952   1.555   4.551   3.646 -1.1576  0.1838  1.3141
18821TIP3   OH277953   2.296   5.874   4.774  0.2245 -0.9052 -0.7313
18821TIP3    H177954   2.247   5.800   4.809 -1.3576 -0.6475 -2.2940
18821TIP3    H277955   2.264   5.950   4.823 -1.1228 -0.7091 -1.8856
18822TIP3   OH277956   3.675   6.128   1.112  0.4689 -0.1673 -0.4044
18822TIP3    H177957   3.747   6.148   1.052  1.3344  0.0281  0.6974
18822TIP3    H277958   3.701   6.047   1.154  0.1731  0.0444  0.1864
18823TIP3   OH277959   2.196   3.828   4.017 -0.4691  0.4524 -0.4764
18823TIP3    H177960   2.216   3.837   3.924 -0.0038  0.0946 -0.4141
18823TIP3    H277961   2.173   3.916   4.045 -1.2634  0.4467 -1.0776
18824TIP3   OH277962   3.303   0.662   5.177  0.1278  0.3069 -0.0858
18824TIP3    H177963   3.387   0.663   5.131  0.7164  0.2336  0.9584
18824TIP3    H277964   3.268   0.751   5.165  1.7296  1.2551  1.9126
18825TIP3   OH277965   1.618   4.654   5.967  0.6557 -0.3870  0.2253
18825TIP3    H177966   1.620   4.602   5.887 -0.0939 -1.7823  1.0912
18825TIP3    H277967   1.557   4.607   6.024 -0.3356  1.6501  0.8932
18826TIP3   OH277968   0.976   4.843   5.604  1.0091 -0.1215 -0.3221
18826TIP3    H177969   1.062   4.852   5.562  1.1728 -0.0512  0.0179
18826TIP3    H277970   0.913   4.847   5.533  1.3494 -1.3826 -0.7055
18827TIP3   OH277971   1.852   6.526   5.486  0.0968 -0.0540  0.5397
18827TIP3    H177972   1.862   6.619   5.469 -2.2442  0.1418  0.1214
18827TIP3    H277973   1.905   6.510   5.564  0.1625  1.6935  0.8745
18828TIP3   OH277974   1.756   4.793   5.762  0.1562 -0.6719  0.0264
18828TIP3    H177975   1.699   4.791   5.838 -0.1085 -1.0226 -0.1811
18828TIP3    H277976   1.795   4.881   5.764 -0.8279 -0.2179 -0.1447
18829TIP3   OH277977   1.877   2.206   3.340  0.4461 -0.2088 -0.5456
18829TIP3    H177978   1.856   2.299   3.344  1.2355  0.1027 -2.8921
18829TIP3    H277979   1.960   2.197   3.386 -0.2137  0.0298  0.7233
18830TIP3   OH277980   2.925   4.724   4.048 -0.0849  0.0953 -0.5729
18830TIP3    H177981   2.905   4.801   4.101  1.6161  0.0254  0.2256
18830TIP3    H277982   2.922   4.756   3.958 -1.1811  0.6639 -0.3393
18831TIP3   OH277983   3.616   4.412   3.666  0.4924  0.9333 -0.0591
18831TIP3    H177984   3.615   4.324   3.704  1.2128  0.3830 -1.2643
18831TIP3    H277985   3.542   4.457   3.706 -1.4347 -1.0462 -1.2915
18832TIP3   OH277986   1.011   6.264   4.115  0.2836 -0.2318  0.1034
18832TIP3    H177987   0.937   6.320   4.137  1.0581  0.0343  2.1675
18832TIP3    H277988   0.990   6.179   4.155 -0.1588 -0.9624 -1.6558
18833TIP3   OH277989   1.213   5.547   5.567 -0.9022 -0.3431  0.2783
18833TIP3    H177990   1.254   5.477   5.516  0.7216  0.6251  0.2136
18833TIP3    H277991   1.251   5.538   5.654  0.6325  1.4797 -0.1662
18834TIP3   OH277992   4.094   4.203   4.529  0.3050  0.3790  0.5221
18834TIP3    H177993   4.007   4.174   4.501 -0.1087  1.4928  0.6478
18834TIP3    H277994   4.138   4.228   4.448 -0.7752  3.2790  0.7720
18835TIP3   OH277995   0.355   5.203   5.918 -0.3997 -0.9877 -0.2463
18835TIP3    H177996   0.285   5.194   5.982 -0.0512 -1.0482  0.1261
18835TIP3    H277997   0.433   5.220   5.970 -0.2392 -0.3199 -0.6913
18836TIP3   OH277998   1.575   3.717   4.953  0.5617 -0.0228  0.3792
18836TIP3    H177999   1.552   3.666   5.031  0.8072  0.0788  0.5167
18836TIP3    H278000   1.665   3.745   4.968  2.1010 -3.4230 -1.7012
18837TIP3   OH278001   3.359   3.659   4.108 -0.1072 -0.5732  0.1242
18837TIP3    H178002   3.270   3.625   4.101 -0.2427 -0.7612  2.3845
18837TIP3    H278003   3.348   3.746   4.148  0.4860  0.8014 -2.5741
18838TIP3   OH278004   3.271   3.804   4.719  0.0114 -0.6780  0.9161
18838TIP3    H178005   3.329   3.830   4.791  0.2643 -0.2547  0.5661
18838TIP3    H278006   3.196   3.864   4.726  0.7409  0.3895 -0.0830
18839TIP3   OH278007   3.083   4.041   6.070  0.2668 -0.1983 -0.4544
18839TIP3    H178008   3.043   4.107   6.126 -0.5630 -1.5346  0.5690
18839TIP3    H278009   3.032   3.962   6.086  1.9621 -1.3871 -0.7834
18840TIP3   OH278010   2.967   5.209   5.855  0.1399 -0.2651  0.5783
18840TIP3    H178011   2.979   5.149   5.929 -0.5686 -0.6474  0.3818
18840TIP3    H278012   3.041   5.191   5.798  0.8742  0.2608  1.3455
18841TIP3   OH278013   1.201   4.822   5.441 -0.6939  0.0401  0.2780
18841TIP3    H178014   1.290   4.813   5.476 -0.7677  0.8652  0.7172
18841TIP3    H278015   1.185   4.741   5.393  0.3497 -0.0543  0.0766
18842TIP3   OH278016   2.309   1.993   6.047 -0.4490  0.0109  0.0776
18842TIP3    H178017   2.264   1.909   6.058 -0.0007 -0.1636  0.6496
18842TIP3    H278018   2.401   1.969   6.036  0.3236  0.5888  4.4072
18843TIP3   OH278019   1.542   4.839   5.570  0.0617  0.1322  0.0966
18843TIP3    H178020   1.609   4.837   5.639  0.8751  0.2418 -0.6799
18843TIP3    H278021   1.478   4.903   5.602  1.2589  1.4243  0.0134
18844TIP3   OH278022   3.231   0.464   4.321 -0.1512  0.2300  0.6293
18844TIP3    H178023   3.320   0.443   4.293 -0.9644 -2.8117  0.0705
18844TIP3    H278024   3.225   0.431   4.411 -0.9228 -0.2638  0.4043
18845TIP3   OH278025   2.213   3.150   4.087 -0.2829 -0.3708  0.2656
18845TIP3    H178026   2.178   3.190   4.008  1.8189  0.9846 -0.0295
18845TIP3    H278027   2.289   3.100   4.057 -0.1974 -0.8693  1.2795
18846TIP3   OH278028   1.777   3.788   4.608 -0.2755 -0.4137 -0.0271
18846TIP3    H178029   1.686   3.819   4.607 -0.6207 -1.4172 -1.7773
18846TIP3    H278030   1.774   3.702   4.567  1.4269 -0.5831  0.1597
18847TIP3   OH278031   0.768   4.374   4.716  0.1720  0.0334 -0.7862
18847TIP3    H178032   0.842   4.428   4.688  1.0342 -0.7543 -0.0436
18847TIP3    H278033   0.784   4.289   4.674  0.0264 -0.3305 -0.0987
18848TIP3   OH278034   4.470   5.529   5.642  1.0587  0.0774 -0.3358
18848TIP3    H178035   4.421   5.558   5.719  0.5542  0.8984 -0.9522
18848TIP3    H278036   4.556   5.503   5.676 -0.3197 -2.9296  0.9833
18849TIP3   OH278037   3.927   4.712   5.225 -0.5949  0.3169 -0.1135
18849TIP3    H178038   3.892   4.733   5.139 -0.5163  0.3098 -0.1471
18849TIP3    H278039   3.854   4.671   5.272 -0.5246 -0.0228 -0.3040
18850TIP3   OH278040   3.547   5.349   6.135 -0.3556 -0.3122  0.1496
18850TIP3    H178041   3.527   5.336   6.228 -0.3094  0.0966  0.2166
18850TIP3    H278042   3.625   5.405   6.135 -0.6850  0.1489 -0.1396
18851TIP3   OH278043   3.959   3.383   5.834 -0.2098  0.2097 -0.2081
18851TIP3    H178044   4.040   3.360   5.879  0.1282  1.0078 -0.3905
18851TIP3    H278045   3.905   3.427   5.900 -1.4124 -2.2547  0.5052
18852TIP3   OH278046   2.805   7.218   4.198  0.4993  0.0222 -0.7711
18852TIP3    H178047   2.793   7.123   4.199  0.3675  0.0399 -0.6596
18852TIP3    H278048   2.734   7.249   4.141 -0.6928  0.2308  0.7954
18853TIP3   OH278049   3.291   4.837   5.562  0.4583  0.2449  0.1569
18853TIP3    H178050   3.357   4.898   5.594 -0.7142  0.9822  1.1927
18853TIP3    H278051   3.212   4.859   5.611 -0.3826 -1.0788 -0.5815
18854TIP3   OH278052   2.815   4.185   3.095  0.3532 -0.6728  0.1562
18854TIP3    H178053   2.744   4.123   3.080  0.2498 -0.5713  0.2196
18854TIP3    H278054   2.784   4.239   3.168 -0.4606  0.7751 -1.2150
18855TIP3   OH278055   5.770   5.536   4.288  0.3646  0.0172 -0.6308
18855TIP3    H178056   5.713   5.468   4.323 -1.0141  1.3191 -0.2938
18855TIP3    H278057   5.829   5.490   4.229 -1.3793 -1.2848 -1.3946
18856TIP3   OH278058   3.958   6.063   5.416  0.4410  0.0790 -0.0889
18856TIP3    H178059   3.986   6.153   5.436 -1.4614  0.6890 -0.1530
18856TIP3    H278060   3.929   6.028   5.500  0.0492 -0.0735 -0.2866
18857TIP3   OH278061   2.092   3.442   5.475 -0.7098 -0.3049  0.4737
18857TIP3    H178062   2.132   3.527   5.457 -0.3558 -0.9001 -1.6809
18857TIP3    H278063   2.165   3.385   5.499 -0.6678 -0.5127 -0.1223
18858TIP3   OH278064   0.459   3.816   3.884  0.8985  0.0230  0.1820
18858TIP3    H178065   0.502   3.754   3.942 -0.1313  0.1896  1.1415
18858TIP3    H278066   0.401   3.866   3.941  0.9048  1.1393 -0.7582
18859TIP3   OH278067   2.682   5.393   4.196 -0.1648 -0.1582  0.0310
18859TIP3    H178068   2.767   5.389   4.152 -2.1001  0.5244 -4.0285
18859TIP3    H278069   2.664   5.486   4.206 -1.9931 -0.1623 -2.5716
18860TIP3   OH278070   4.743   4.615   5.173  0.8026  0.2559 -0.3019
18860TIP3    H178071   4.777   4.529   5.148 -0.9832 -0.5138 -0.1726
18860TIP3    H278072   4.700   4.646   5.093 -0.5786 -0.0153  0.3193
18861TIP3   OH278073   0.620   3.218   3.048  0.3115 -0.2061  0.0390
18861TIP3    H178074   0.703   3.194   3.090 -0.3224 -0.6838  1.0356
18861TIP3    H278075   0.556   3.220   3.119 -1.2216 -3.0881 -1.1615
18862TIP3   OH278076   4.118   7.122   5.855 -0.1264  0.5646  0.5145
18862TIP3    H178077   4.063   7.050   5.887  0.8671  0.7520  2.7618
18862TIP3    H278078   4.075   7.201   5.887  0.3727  0.8111  0.5775
18863TIP3   OH278079   2.879   4.305   5.902 -0.2977  0.1962 -0.5948
18863TIP3    H178080   2.918   4.310   5.990  1.3713  0.5127 -1.3418
18863TIP3    H278081   2.790   4.273   5.918  0.6728 -1.7917  1.0215
18864TIP3   OH278082   4.449   4.758   5.317  0.2746 -0.3567 -0.0378
18864TIP3    H178083   4.377   4.819   5.329  0.2256 -0.2405 -0.8893
18864TIP3    H278084   4.501   4.765   5.397  0.1239  0.6034 -0.0210
18865TIP3   OH278085   1.340   3.438   3.300 -0.2140 -0.3477 -0.2406
18865TIP3    H178086   1.295   3.463   3.219 -1.8754 -0.3997  0.6335
18865TIP3    H278087   1.307   3.499   3.365  1.4642 -0.0159  0.3084
18866TIP3   OH278088   2.547   3.993   3.897 -0.1834 -0.1230 -0.3285
18866TIP3    H178089   2.576   4.020   3.984 -0.3623 -0.9976  0.0104
18866TIP3    H278090   2.610   3.926   3.870  0.2221  0.5776 -1.1282
18867TIP3   OH278091   2.749   6.000   5.607 -0.0576 -0.3643  0.6122
18867TIP3    H178092   2.698   5.928   5.645  0.2983 -1.0163 -0.1343
18867TIP3    H278093   2.776   6.053   5.682  0.9574 -1.8478  1.3117
18868TIP3   OH278094   1.685   6.358   5.117 -0.4709 -0.3558  0.2688
18868TIP3    H178095   1.744   6.291   5.082 -1.4571 -1.6507  1.0244
18868TIP3    H278096   1.692   6.431   5.056 -1.5138 -2.2265 -2.1553
18869TIP3   OH278097   2.433   3.910   6.367  0.1613 -0.0895 -0.2630
18869TIP3    H178098   2.505   3.937   6.424 -0.5563 -0.2833  0.7379
18869TIP3    H278099   2.383   3.990   6.351  1.5395  0.3980 -2.3501
18870TIP3   OH278100   3.307   4.364   3.676  0.2080 -0.0609  0.2891
18870TIP3    H178101   3.359   4.353   3.756  1.2741 -0.9159 -0.5057
18870TIP3    H278102   3.225   4.319   3.694 -0.6446  2.0150  1.8807
18871TIP3   OH278103   0.963   3.941   4.407 -0.2760 -0.2106  0.0647
18871TIP3    H178104   0.953   3.944   4.312  1.1953 -2.5512 -0.2125
18871TIP3    H278105   1.043   3.890   4.420 -0.2479  0.4322  2.5618
18872TIP3   OH278106   2.182   4.589   5.647 -0.6465 -0.8342  0.0149
18872TIP3    H178107   2.141   4.524   5.590  0.6147  0.5192 -2.4882
18872TIP3    H278108   2.131   4.669   5.633 -0.8431 -0.7039  1.4312
18873TIP3   OH278109   2.080   5.816   4.539  0.2419 -0.0452 -0.0195
18873TIP3    H178110   2.175   5.804   4.542  0.0091 -1.7716  1.6846
18873TIP3    H278111   2.047   5.734   4.502 -0.7192 -0.2875  1.3534
18874TIP3   OH278112   1.372   2.798   4.513 -0.1549 -0.0096 -0.3934
18874TIP3    H178113   1.302   2.732   4.517 -1.2293  1.2105  1.2384
18874TIP3    H278114   1.424   2.782   4.591 -0.2090  0.8532 -0.1834
18875TIP3   OH278115   1.999   5.114   6.137 -0.3126  0.1349 -0.6854
18875TIP3    H178116   1.931   5.067   6.185 -0.3424 -2.1531 -2.8227
18875TIP3    H278117   2.057   5.150   6.204 -1.2293 -1.5967  1.0697
18876TIP3   OH278118   2.362   5.769   4.489 -0.1209 -0.1714 -0.3338
18876TIP3    H178119   2.428   5.757   4.420 -0.3326  0.3415 -0.6315
18876TIP3    H278120   2.413   5.782   4.569  0.1204 -1.5788 -0.2488
18877TIP3   OH278121   2.398   6.031   4.097 -0.4420  0.1326  0.0962
18877TIP3    H178122   2.336   5.961   4.116  0.2392  0.0613  2.2289
18877TIP3    H278123   2.346   6.111   4.102 -0.3861  0.0850  2.0314
18878TIP3   OH278124   5.253   0.074   5.209  0.0820 -0.1772  0.0094
18878TIP3    H178125   5.312   0.001   5.229  0.9169  0.7793  1.0618
18878TIP3    H278126   5.180   0.063   5.270  0.0981 -0.2437  0.0175
18879TIP3   OH278127   3.591   3.737   5.631  0.5018 -0.6223 -0.1217
18879TIP3    H178128   3.681   3.758   5.654  0.4392 -1.1097  0.5656
18879TIP3    H278129   3.545   3.729   5.715 -0.0323 -1.0327 -0.4431
18880TIP3   OH278130   2.805   5.566   4.462  0.1858  0.1963  0.0733
18880TIP3    H178131   2.844   5.481   4.445  4.0177  2.0548 -0.8711
18880TIP3    H278132   2.856   5.602   4.534 -0.4168  2.3023 -0.5130
18881TIP3   OH278133   7.225   4.640   4.056  0.3798  0.5934 -0.1524
18881TIP3    H178134   7.303   4.686   4.026 -0.3427  1.5149 -0.6263
18881TIP3    H278135   7.170   4.633   3.978  0.5818 -1.3193 -0.1623
18882TIP3   OH278136   3.007   6.149   6.187 -0.0356  0.3198  0.3268
18882TIP3    H178137   3.011   6.054   6.190 -0.9214  0.2460 -0.6474
18882TIP3    H278138   3.040   6.177   6.272  4.8426 -0.6965 -1.0507
18883TIP3   OH278139   5.237   5.740   5.606 -0.5532 -0.3749  0.6774
18883TIP3    H178140   5.323   5.784   5.611 -1.5078  1.5970  0.2434
18883TIP3    H278141   5.200   5.751   5.693 -1.5919  1.3915  0.0354
18884TIP3   OH278142   4.414   1.187   3.515  0.1105 -0.5939  0.0688
18884TIP3    H178143   4.345   1.162   3.453 -0.9246 -2.0001  1.7678
18884TIP3    H278144   4.369   1.235   3.584  1.0885 -0.0394  0.3375
18885TIP3   OH278145   2.126   6.144   5.375  0.7575 -0.0574  0.3275
18885TIP3    H178146   2.039   6.175   5.400  0.6029 -0.1779 -0.0649
18885TIP3    H278147   2.145   6.074   5.437  1.2016  0.9600  1.3585
18886TIP3   OH278148   1.614   7.046   5.395  0.2868  0.4530  0.1478
18886TIP3    H178149   1.595   6.954   5.416  1.1306 -0.1577 -1.6934
18886TIP3    H278150   1.692   7.066   5.447  0.0581  0.1553  0.6145
18887TIP3   OH278151   2.538   5.400   5.349  0.4647 -0.0962 -0.0344
18887TIP3    H178152   2.450   5.362   5.360 -0.3382  1.2437 -1.6141
18887TIP3    H278153   2.570   5.413   5.439 -0.7086 -1.1493  0.5513
18888TIP3   OH278154   0.486   2.574   5.567  0.0864  0.0788 -0.0401
18888TIP3    H178155   0.453   2.652   5.523  3.0190  2.0855  1.2332
18888TIP3    H278156   0.444   2.575   5.653 -2.5260 -1.6820 -1.2146
18889TIP3   OH278157   5.511   6.267   4.459 -0.1590  0.7316 -0.1931
18889TIP3    H178158   5.549   6.221   4.384 -0.2113 -0.0961  0.2726
18889TIP3    H278159   5.550   6.354   4.456 -1.2456  1.1631 -1.9813
18890TIP3   OH278160   4.360   5.659   4.578 -0.0761 -0.0121  0.4766
18890TIP3    H178161   4.360   5.754   4.565 -0.0411 -0.0829 -0.0331
18890TIP3    H278162   4.445   5.630   4.546  0.6889  0.0211  2.3945
18891TIP3   OH278163   1.778   2.020   2.876 -0.0116  0.1602  0.2281
18891TIP3    H178164   1.861   1.981   2.902  1.4345  1.9697 -1.4464
18891TIP3    H278165   1.745   2.062   2.955  0.2048 -1.3404  1.1322
18892TIP3   OH278166   3.481   3.641   3.850  0.5119 -0.0238  0.1144
18892TIP3    H178167   3.440   3.555   3.839  1.4310 -0.5893  0.9929
18892TIP3    H278168   3.461   3.666   3.940  1.2895  0.1238  0.2492
18893TIP3   OH278169   2.733   2.623   4.460 -0.0145  0.4607  0.0143
18893TIP3    H178170   2.663   2.558   4.460 -1.6444  2.1611  2.3052
18893TIP3    H278171   2.798   2.589   4.521  0.9059 -0.8072 -1.6332
18894TIP3   OH278172   0.762   5.240   5.387 -0.5081 -0.2789  0.1172
18894TIP3    H178173   0.843   5.192   5.404  0.3122  0.7957 -0.6717
18894TIP3    H278174   0.720   5.192   5.315  0.4777  0.3642 -0.9067
18895TIP3   OH278175   5.078   1.172   5.019 -0.6377  0.1713  1.1162
18895TIP3    H178176   5.133   1.247   5.043 -1.0279  0.6996  0.4110
18895TIP3    H278177   5.139   1.099   5.009 -0.1599  0.5725  1.0707
18896TIP3   OH278178   3.229   6.604   4.980  0.0405 -0.2783  0.1159
18896TIP3    H178179   3.310   6.652   5.000 -0.1597 -0.5209  1.5595
18896TIP3    H278180   3.231   6.592   4.885  2.9410 -2.4318  0.3555
18897TIP3   OH278181   3.276   2.898   5.944  0.3220 -0.2622  0.0604
18897TIP3    H178182   3.229   2.815   5.928  1.3388 -1.5451  3.1987
18897TIP3    H278183   3.368   2.873   5.945  0.6531  0.9874  0.6127
18898TIP3   OH278184   2.114   3.237   4.771  0.1147 -0.4093  0.9215
18898TIP3    H178185   2.071   3.317   4.801 -0.4374  0.7083 -2.6750
18898TIP3    H278186   2.062   3.166   4.809 -2.0168  0.9354  0.6070
18899TIP3   OH278187   2.481   4.633   5.669 -0.7690 -0.2093  0.7753
18899TIP3    H178188   2.391   4.611   5.643 -0.5012  0.5048 -0.8354
18899TIP3    H278189   2.475   4.723   5.700 -0.6214 -0.1969  0.7663
18900TIP3   OH278190   1.830   4.479   3.889 -1.0062  0.5535  0.2785
18900TIP3    H178191   1.816   4.442   3.976 -0.9526  0.1222  0.1095
18900TIP3    H278192   1.743   4.483   3.850 -0.8671 -0.5770 -0.1645
18901TIP3   OH278193   2.097   5.276   2.941  0.3501 -0.0055  0.0441
18901TIP3    H178194   2.151   5.355   2.946 -2.5900  2.0871 -0.3104
18901TIP3    H278195   2.029   5.289   3.007 -0.1261 -2.3070  0.0576
18902TIP3   OH278196   2.832   4.771   4.729  0.3814 -0.2767  0.1485
18902TIP3    H178197   2.817   4.852   4.777 -1.7506 -0.3828 -0.3073
18902TIP3    H278198   2.924   4.777   4.701  0.5173  1.5449  0.8993
18903TIP3   OH278199   1.901   3.804   5.402  0.4904  0.0570 -0.1972
18903TIP3    H178200   1.883   3.772   5.490  1.5035  0.3799  0.1293
18903TIP3    H278201   1.974   3.749   5.371 -0.2684 -0.4803 -1.0787
18904TIP3   OH278202   2.652   2.824   6.099  0.0642  0.2294  0.0640
18904TIP3    H178203   2.632   2.912   6.133 -0.2466  1.1641 -2.4378
18904TIP3    H278204   2.696   2.840   6.016  0.2734 -2.0116 -0.2891
18905TIP3   OH278205   1.757   5.914   4.578 -0.4622  0.0118 -0.3237
18905TIP3    H178206   1.770   5.866   4.496  0.2290  0.9339 -0.7734
18905TIP3    H278207   1.842   5.957   4.593 -0.2090 -1.1191  1.5040
18906TIP3   OH278208   5.651   6.004   5.125 -0.4309 -0.5750  0.0895
18906TIP3    H178209   5.599   5.928   5.150  1.2080 -1.3317  1.2738
18906TIP3    H278210   5.716   6.014   5.195  0.8145  0.5317 -1.1785
18907TIP3   OH278211   4.142   7.023   5.473  0.2738 -0.1542 -0.2525
18907TIP3    H178212   4.131   6.985   5.386  0.2165 -0.4888 -0.1038
18907TIP3    H278213   4.101   6.959   5.532 -0.5950  0.5661 -0.0756
18908TIP3   OH278214   4.108   4.383   6.111 -0.3187  0.1568 -0.2624
18908TIP3    H178215   4.161   4.371   6.190 -1.5029 -1.5332  0.2943
18908TIP3    H278216   4.165   4.352   6.040 -0.6824 -2.0774  0.3809
18909TIP3   OH278217   7.180   6.154   4.621  0.0014  0.0397 -0.2615
18909TIP3    H178218   7.102   6.209   4.625  0.4335  0.5770  1.3023
18909TIP3    H278219   7.148   6.065   4.637 -0.2154  0.3656  1.2511
18910TIP3   OH278220   6.899   5.517   5.280  0.4357  0.1214 -0.4057
18910TIP3    H178221   6.935   5.521   5.192 -2.2897  0.6784 -1.5357
18910TIP3    H278222   6.830   5.583   5.281 -0.5775 -0.9106  1.6765
18911TIP3   OH278223   3.255   5.463   3.305  0.2729  0.1073  0.4511
18911TIP3    H178224   3.262   5.448   3.210 -1.1438  0.4693  0.2835
18911TIP3    H278225   3.178   5.413   3.332  0.2681  0.5672  1.2876
18912TIP3   OH278226   6.223   2.989   3.521  0.7867 -0.1578 -0.0934
18912TIP3    H178227   6.181   2.906   3.544 -0.6583  0.5196 -0.2547
18912TIP3    H278228   6.156   3.038   3.474  1.5471  1.2031  0.2154
18913TIP3   OH278229   0.273   5.450   4.013  0.1350 -0.0849  0.8238
18913TIP3    H178230   0.340   5.383   4.026  1.0788  0.7743  0.4947
18913TIP3    H278231   0.243   5.471   4.101  0.1476 -0.6332  0.9588
18914TIP3   OH278232   4.941   5.087   4.804 -0.1483 -0.3899  0.5832
18914TIP3    H178233   4.943   5.172   4.849  1.0067  0.2899 -0.6784
18914TIP3    H278234   4.902   5.027   4.867  2.4429  0.2682  2.9224
18915TIP3   OH278235   6.462   4.844   4.386 -0.1077  0.0137 -0.5279
18915TIP3    H178236   6.507   4.891   4.317 -0.1442  0.6715 -0.1034
18915TIP3    H278237   6.435   4.911   4.448 -3.7579 -0.0705 -1.9126
18916TIP3   OH278238   6.544   5.150   3.538  0.2663 -0.2149 -0.4180
18916TIP3    H178239   6.602   5.103   3.597 -0.5928 -1.4358 -0.5125
18916TIP3    H278240   6.577   5.131   3.451  1.8852  2.0622 -0.3467
18917TIP3   OH278241   6.016   2.431   3.619  0.5559 -0.3871 -0.1341
18917TIP3    H178242   5.977   2.364   3.674  0.0350  0.9888  1.2203
18917TIP3    H278243   6.108   2.435   3.648  0.7771 -1.0350 -0.7406
18918TIP3   OH278244   5.385   6.405   4.133 -0.2257  0.4463  0.2341
18918TIP3    H178245   5.299   6.395   4.176 -0.8695  1.1454 -0.8851
18918TIP3    H278246   5.419   6.316   4.128 -1.3123  0.0399 -0.1622
18919TIP3   OH278247   3.868   5.958   3.868 -0.0689  0.3788  0.0519
18919TIP3    H178248   3.940   5.913   3.911 -1.0888 -0.5082  0.8423
18919TIP3    H278249   3.907   6.041   3.839  1.2555 -0.0647  0.4947
18920TIP3   OH278250   4.448   4.426   4.104 -0.7844  0.5069 -0.7492
18920TIP3    H178251   4.526   4.403   4.054 -0.0509 -0.4057  0.7658
18920TIP3    H278252   4.392   4.348   4.098 -0.0346 -0.2045  1.0700
18921TIP3   OH278253   5.154   3.727   4.649 -0.4827  0.0320  0.9707
18921TIP3    H178254   5.116   3.641   4.666  1.1481 -0.4079  2.5547
18921TIP3    H278255   5.195   3.718   4.563 -0.3200 -0.8011  1.1258
18922TIP3   OH278256   4.957   4.341   5.447  0.1292 -0.4384  0.3085
18922TIP3    H178257   4.984   4.264   5.397 -0.1735 -1.2947  1.4457
18922TIP3    H278258   4.862   4.332   5.456  0.2867 -0.7148  1.7389
18923TIP3   OH278259   5.047   6.171   2.894  0.1187 -0.2789  0.0382
18923TIP3    H178260   5.042   6.254   2.941 -2.2924 -0.7782  0.7189
18923TIP3    H278261   5.040   6.195   2.801 -1.7391  0.1831  0.2974
18924TIP3   OH278262   5.631   4.751   4.505  0.0647  0.1944  0.3125
18924TIP3    H178263   5.555   4.807   4.523  0.2936  0.6068  0.0201
18924TIP3    H278264   5.593   4.669   4.472 -0.2936 -0.0359  1.2777
18925TIP3   OH278265   0.743   5.050   4.178 -0.2300 -0.1556  0.2069
18925TIP3    H178266   0.703   4.987   4.118 -0.3656 -1.1668  1.3426
18925TIP3    H278267   0.756   5.129   4.125  2.1063 -1.8828 -1.8372
18926TIP3   OH278268   3.782   5.477   6.053  0.1688  0.1140 -0.9666
18926TIP3    H178269   3.731   5.555   6.030 -1.4323 -0.4885  0.4041
18926TIP3    H278270   3.849   5.472   5.985 -0.7455  1.7215 -2.0498
18927TIP3   OH278271   4.338   4.347   5.956 -0.3728 -0.0943  0.2307
18927TIP3    H178272   4.319   4.256   5.934  0.7795 -0.1835 -0.4452
18927TIP3    H278273   4.422   4.344   6.002 -1.4275  0.3975  2.2503
18928TIP3   OH278274   3.647   6.307   4.143 -0.7992  0.9269 -0.0974
18928TIP3    H178275   3.554   6.298   4.162 -0.7114  0.6746  0.2190
18928TIP3    H278276   3.676   6.381   4.197 -0.5576  0.2347  0.7349
18929TIP3   OH278277   4.706   5.942   4.996 -0.1875 -0.3199 -1.0454
18929TIP3    H178278   4.766   5.999   4.948  0.6470 -0.4810 -0.2151
18929TIP3    H278279   4.750   5.927   5.080 -0.9250 -1.2629 -0.8243
18930TIP3   OH278280   6.529   4.313   4.280 -0.1094  0.2501  0.5514
18930TIP3    H178281   6.573   4.398   4.274 -2.2441  1.2573 -1.6247
18930TIP3    H278282   6.518   4.285   4.189 -1.4687 -1.3080  1.1623
18931TIP3   OH278283   5.566   4.490   4.388  0.5337  0.0779 -0.5693
18931TIP3    H178284   5.510   4.435   4.443 -0.5956  1.3290 -0.4488
18931TIP3    H278285   5.520   4.493   4.304  2.1159 -1.6162 -1.5503
18932TIP3   OH278286   5.898   5.542   5.500  0.1208 -0.3814 -0.2522
18932TIP3    H178287   5.992   5.523   5.499  0.6022  1.8090 -0.5239
18932TIP3    H278288   5.891   5.626   5.453 -1.5129  1.3384  2.9021
18933TIP3   OH278289   4.861   7.092   5.277  0.2462 -0.5181  0.1168
18933TIP3    H178290   4.930   7.150   5.244  0.3203 -0.0053  1.1754
18933TIP3    H278291   4.889   7.068   5.365 -1.7646  1.1398  1.2607
18934TIP3   OH278292   5.303   4.113   5.486 -0.1170 -0.5210 -0.1348
18934TIP3    H178293   5.375   4.134   5.426 -1.0207  1.2456 -0.6209
18934TIP3    H278294   5.345   4.106   5.572  0.6674  0.4117 -0.4297
18935TIP3   OH278295   4.647   5.785   1.963  0.3973  0.0622 -0.1348
18935TIP3    H178296   4.731   5.747   1.987  0.6121  0.8932  0.4648
18935TIP3    H278297   4.618   5.735   1.887  1.3421 -0.3488 -0.2274
18936TIP3   OH278298   3.103   3.307   4.795 -0.3058  0.3261 -0.3979
18936TIP3    H178299   3.025   3.255   4.774 -0.0809  0.2064 -0.9431
18936TIP3    H278300   3.148   3.317   4.711 -0.7743  2.1001 -0.4536
18937TIP3   OH278301   5.192   5.412   5.210  0.3006 -0.0265 -0.6580
18937TIP3    H178302   5.174   5.346   5.277  1.7938 -0.1277 -0.3533
18937TIP3    H278303   5.150   5.491   5.243  1.3754  0.0315  0.5955
18938TIP3   OH278304   4.532   5.013   5.560 -0.8895 -0.6290  0.0729
18938TIP3    H178305   4.592   4.975   5.624 -1.4173  1.2428  1.7260
18938TIP3    H278306   4.587   5.034   5.484  0.3762  0.1160  1.1729
18939TIP3   OH278307   6.721   5.456   4.173 -0.5271  0.0112 -0.1709
18939TIP3    H178308   6.721   5.363   4.194  4.6032  0.1205  0.9065
18939TIP3    H278309   6.741   5.460   4.079 -1.2934  0.0128 -0.3337
18940TIP3   OH278310   4.404   5.448   5.316  0.4878 -0.1022  0.4931
18940TIP3    H178311   4.399   5.369   5.369  0.2401  0.7425  1.7550
18940TIP3    H278312   4.315   5.484   5.318  0.5408  0.0724 -0.2656
18941TIP3   OH278313   4.257   4.220   3.668 -0.0950 -0.6410 -0.6493
18941TIP3    H178314   4.186   4.250   3.612 -0.3359 -2.8571 -1.5813
18941TIP3    H278315   4.336   4.230   3.614  0.0123 -0.3281 -0.4372
18942TIP3   OH278316   6.638   5.576   3.361 -0.2146  0.3347  0.5402
18942TIP3    H178317   6.704   5.549   3.425  0.7395  0.0596 -0.5594
18942TIP3    H278318   6.647   5.670   3.354 -0.4929  0.3992  0.9854
18943TIP3   OH278319   7.302   7.197   5.246  0.3689 -0.4325  0.2302
18943TIP3    H178320   7.294   7.262   5.316  1.7572 -0.0640  0.0669
18943TIP3    H278321   7.291   7.113   5.290  1.3815 -0.2086  0.9296
18944TIP3   OH278322   5.840   5.521   3.496 -0.0282 -0.1578  0.0810
18944TIP3    H178323   5.872   5.513   3.586  0.7199 -0.5263 -0.2104
18944TIP3    H278324   5.856   5.435   3.458 -2.7542 -0.8361  0.3518
18945TIP3   OH278325   7.169   4.956   4.219  0.1933  0.0735 -0.0654
18945TIP3    H178326   7.188   4.992   4.306  0.7970  0.3895 -0.3255
18945TIP3    H278327   7.188   4.863   4.226  0.1253  0.0772  0.1720
18946TIP3   OH278328   2.101   2.944   4.230 -0.4052  0.1318  0.6463
18946TIP3    H178329   2.008   2.929   4.215 -0.1849 -1.2370  0.5668
18946TIP3    H278330   2.126   3.008   4.164 -0.6791 -1.5939 -1.1819
18947TIP3   OH278331   6.016   6.031   4.546  0.2432 -0.7109  0.4178
18947TIP3    H178332   6.101   6.065   4.520  0.0205 -0.8821 -0.5657
18947TIP3    H278333   5.997   6.074   4.629 -0.4073  2.2222 -1.1763
18948TIP3   OH278334   5.528   4.222   3.616 -0.2019 -0.2410  0.2421
18948TIP3    H178335   5.454   4.178   3.574  1.2914 -3.8045  1.1393
18948TIP3    H278336   5.491   4.259   3.696 -1.3596 -0.4656 -0.1703
18949TIP3   OH278337   4.094   7.284   3.374  0.0267 -0.3806  0.0003
18949TIP3    H178338   4.073   7.318   3.287  0.1586 -0.0196  0.1092
18949TIP3    H278339   4.100   7.189   3.361 -0.7137 -0.4027 -0.2236
18950TIP3   OH278340   6.946   3.158   4.073 -0.0128 -0.3376 -0.3353
18950TIP3    H178341   6.900   3.088   4.120  0.6658 -0.8565 -0.4288
18950TIP3    H278342   7.031   3.162   4.115  0.2840 -0.2062 -0.9482
18951TIP3   OH278343   1.560   6.160   2.091 -0.6304 -0.0766  0.5018
18951TIP3    H178344   1.611   6.179   2.170 -1.6190 -0.4758  1.2465
18951TIP3    H278345   1.541   6.066   2.096 -1.8909  0.1607  0.5245
18952TIP3   OH278346   5.154   5.630   4.499  0.0915 -0.2425 -0.4336
18952TIP3    H178347   5.201   5.712   4.490 -1.1263  0.6913  1.4980
18952TIP3    H278348   5.108   5.620   4.415 -1.4909  2.1748  0.0955
18953TIP3   OH278349   2.816   5.398   5.027  0.4645 -0.4516  1.3133
18953TIP3    H178350   2.884   5.414   5.093  3.3748 -1.9884 -1.1902
18953TIP3    H278351   2.840   5.314   4.987 -2.3363 -0.5172 -0.3639
18954TIP3   OH278352   5.708   4.460   4.720  0.3303  0.0340  0.4179
18954TIP3    H178353   5.782   4.412   4.683  1.0304  1.3912  0.0398
18954TIP3    H278354   5.745   4.541   4.753 -0.9019  0.4865  0.7398
18955TIP3   OH278355   6.084   5.942   3.716  0.6676 -0.2252 -0.3078
18955TIP3    H178356   6.007   5.992   3.743 -0.8497 -1.9402 -1.3763
18955TIP3    H278357   6.141   5.941   3.793  0.4382  2.5402 -0.0440
18956TIP3   OH278358   6.572   5.958   4.750 -0.1510 -0.3164  0.8107
18956TIP3    H178359   6.553   6.047   4.779 -1.3302 -0.4483  0.4499
18956TIP3    H278360   6.544   5.903   4.822  0.8622 -0.3901  1.1614
18957TIP3   OH278361   2.832   6.560   4.033  0.0658 -0.0532  0.7843
18957TIP3    H178362   2.837   6.593   3.943  0.7794 -1.2658  0.3769
18957TIP3    H278363   2.750   6.596   4.067 -0.1188  0.5548 -0.2973
18958TIP3   OH278364   7.214   6.193   5.708 -0.1833  0.1842  0.4257
18958TIP3    H178365   7.189   6.268   5.762 -0.2053 -0.1950  0.9448
18958TIP3    H278366   7.132   6.161   5.671 -0.2305  0.1265  0.5814
18959TIP3   OH278367   5.582   0.229   3.859  0.2666 -0.4416  0.4111
18959TIP3    H178368   5.506   0.277   3.827  0.3943 -0.9046 -0.6278
18959TIP3    H278369   5.546   0.167   3.923  0.0473  0.6980  1.4184
18960TIP3   OH278370   4.552   5.397   4.255 -0.6622  0.0387  0.9832
18960TIP3    H178371   4.615   5.450   4.206  2.7646 -3.5473  1.3007
18960TIP3    H278372   4.481   5.381   4.193  0.0798  1.7055 -0.3454
18961TIP3   OH278373   5.080   4.109   5.340  0.0281 -0.9959 -0.0800
18961TIP3    H178374   5.053   4.024   5.375 -0.4911 -0.3794  1.0496
18961TIP3    H278375   5.169   4.121   5.372 -0.3558 -0.5473  0.8488
18962TIP3   OH278376   3.682   4.492   4.052 -0.7042  0.0709  0.4004
18962TIP3    H178377   3.598   4.452   4.031  0.9194 -2.5336 -1.3529
18962TIP3    H278378   3.689   4.565   3.991 -0.3787 -1.5456 -1.5462
18963TIP3   OH278379   4.226   5.421   4.513  0.0828 -0.4281  0.2393
18963TIP3    H178380   4.261   5.395   4.599  2.4468 -1.4807 -0.9869
18963TIP3    H278381   4.259   5.510   4.500  0.6958 -0.6942 -0.0600
18964TIP3   OH278382   4.416   3.832   5.222  0.3878  0.3035 -0.2633
18964TIP3    H178383   4.473   3.906   5.202  1.7677 -1.0579 -1.4901
18964TIP3    H278384   4.355   3.829   5.148 -0.9472  1.4048  0.7643
18965TIP3   OH278385   5.601   3.528   4.144 -0.1047  0.4964 -0.3318
18965TIP3    H178386   5.586   3.527   4.239 -0.0840 -2.2399 -0.3347
18965TIP3    H278387   5.606   3.621   4.122 -2.0249  1.2069  2.0461
18966TIP3   OH278388   4.316   4.144   4.997  0.1412 -0.5014 -0.1763
18966TIP3    H178389   4.394   4.191   5.026  0.4869 -0.9448 -0.3833
18966TIP3    H278390   4.292   4.187   4.915 -1.3538  1.3363  1.1809
18967TIP3   OH278391   4.503   5.142   2.828  0.4644  0.2392 -0.1431
18967TIP3    H178392   4.495   5.095   2.911  0.0915 -0.3962 -0.5315
18967TIP3    H278393   4.433   5.207   2.830  0.4359  0.2024  0.0249
18968TIP3   OH278394   1.670   0.142   4.907  0.0423  0.3972 -0.4120
18968TIP3    H178395   1.591   0.183   4.873  0.6471  0.4287 -1.8258
18968TIP3    H278396   1.682   0.064   4.854 -0.8379 -1.3955  1.9443
18969TIP3   OH278397   5.728   5.831   4.020  0.0764 -0.5705  0.4747
18969TIP3    H178398   5.791   5.761   4.038  1.3293  0.4026 -0.0671
18969TIP3    H278399   5.725   5.881   4.101 -0.1609 -0.7462  0.5739
18970TIP3   OH278400   3.897   4.589   4.247 -0.0966 -0.1554  0.0917
18970TIP3    H178401   3.836   4.540   4.192 -0.6233  2.6825 -1.8991
18970TIP3    H278402   3.957   4.630   4.185  0.8872  1.0000  1.7934
18971TIP3   OH278403   2.647   4.982   4.481 -0.2267  0.1843 -0.1572
18971TIP3    H178404   2.651   4.999   4.387  0.0689  0.3439 -0.1143
18971TIP3    H278405   2.674   5.064   4.521  0.7613 -0.2420  0.0577
18972TIP3   OH278406   4.474   4.993   5.007  0.6819  0.3658  0.5546
18972TIP3    H178407   4.429   5.040   5.077 -1.3009  0.2005 -0.5830
18972TIP3    H278408   4.555   4.961   5.048 -0.2926  0.5461  2.6878
18973TIP3   OH278409   3.738   3.064   5.065  0.1645 -0.0420 -0.0510
18973TIP3    H178410   3.711   2.994   5.125 -1.0461  0.6239  0.2025
18973TIP3    H278411   3.705   3.144   5.106 -0.4416  0.4485 -1.4605
18974TIP3   OH278412   3.058   3.021   3.690  0.2482  0.4870  0.6806
18974TIP3    H178413   3.013   3.105   3.681  1.0436  0.8654  0.1002
18974TIP3    H278414   3.020   2.966   3.621 -0.7204  0.1639  1.4682
18975TIP3   OH278415   1.510   1.531   2.063 -0.0924 -0.2756 -0.2358
18975TIP3    H178416   1.451   1.591   2.108 -0.1309 -0.7559  0.3692
18975TIP3    H278417   1.598   1.558   2.089 -0.0338  0.4825 -1.1912
18976TIP3   OH278418   0.253   2.402   2.978  0.0728 -0.0580 -0.0444
18976TIP3    H178419   0.317   2.421   2.909  0.1194 -3.7982 -1.1830
18976TIP3    H278420   0.174   2.447   2.951 -1.0841 -4.3715 -4.7620
18977TIP3   OH278421   4.825   5.774   4.477  0.1689  0.1137 -0.3860
18977TIP3    H178422   4.737   5.792   4.444  0.1263  0.3447 -0.1487
18977TIP3    H278423   4.816   5.772   4.572  0.4759  0.4469 -0.3463
18978TIP3   OH278424   2.887   4.138   5.082  0.0985  0.2278 -0.3000
18978TIP3    H178425   2.942   4.063   5.062 -0.9317 -0.4381 -0.6807
18978TIP3    H278426   2.825   4.105   5.147 -1.0045  0.4621 -1.2173
18979TIP3   OH278427   2.637   4.237   5.808  0.5958 -0.0631  0.2441
18979TIP3    H178428   2.652   4.150   5.772 -1.9560 -0.2928 -0.3347
18979TIP3    H278429   2.570   4.224   5.875  0.8465  1.3213  0.7864
18980TIP3   OH278430   5.834   4.455   4.430 -0.5473  0.5527  0.8256
18980TIP3    H178431   5.739   4.445   4.421 -0.5333  0.2378  1.0329
18980TIP3    H278432   5.848   4.550   4.424 -0.5385  0.3894 -2.2731
18981TIP3   OH278433   2.860   3.640   1.936  0.2157  0.2696  0.1082
18981TIP3    H178434   2.948   3.613   1.962  0.2127  0.5363  0.3999
18981TIP3    H278435   2.849   3.726   1.976  0.1824  0.6522 -0.7103
18982TIP3   OH278436   5.043   5.818   5.786  0.2457  0.0142 -0.6105
18982TIP3    H178437   5.062   5.900   5.833 -4.3613  1.4272 -0.9631
18982TIP3    H278438   5.031   5.753   5.855  0.8501  0.3453 -0.1898
18983TIP3   OH278439   2.287   4.802   6.237 -0.2204  0.3959 -0.2239
18983TIP3    H178440   2.328   4.817   6.323 -0.1289 -1.0551 -0.0037
18983TIP3    H278441   2.304   4.882   6.188  0.5917  0.8483  0.7801
18984TIP3   OH278442   3.913   4.953   2.542  0.3403  0.1923 -0.4218
18984TIP3    H178443   3.919   4.948   2.446 -0.8188 -0.5490 -0.4719
18984TIP3    H278444   3.963   4.877   2.573 -0.0454 -0.0875 -0.4777
18985TIP3   OH278445   3.803   5.181   4.071  0.4261  0.8524 -0.4094
18985TIP3    H178446   3.743   5.172   3.997  1.1016 -0.6343 -0.8010
18985TIP3    H278447   3.888   5.195   4.031  0.7900  0.0763  0.0817
18986TIP3   OH278448   3.238   4.149   4.270 -0.4787  0.5930 -0.0691
18986TIP3    H178449   3.225   4.238   4.301  0.8603  1.1814 -1.1851
18986TIP3    H278450   3.290   4.107   4.339 -1.1556  0.6323  0.4808
18987TIP3   OH278451   6.444   5.082   2.663  0.0455 -0.6638 -0.5297
18987TIP3    H178452   6.352   5.105   2.669 -0.3975 -2.5052 -0.1279
18987TIP3    H278453   6.490   5.159   2.698 -1.3556 -0.1140  0.1369
18988TIP3   OH278454   5.262   3.523   3.298  0.1040 -0.4607 -0.5389
18988TIP3    H178455   5.342   3.539   3.248 -1.2882  0.4791 -2.5438
18988TIP3    H278456   5.247   3.604   3.346 -0.7257  0.1489 -1.7790
18989TIP3   OH278457   6.313   4.808   1.348 -0.1571 -0.0119 -0.1860
18989TIP3    H178458   6.332   4.899   1.327  1.0157 -0.0653  0.6554
18989TIP3    H278459   6.398   4.769   1.367 -0.6790 -1.2197 -0.2714
18990TIP3   OH278460   5.480   3.289   5.129 -0.3730  0.0441 -0.8039
18990TIP3    H178461   5.437   3.263   5.211 -1.8405  0.7936 -1.3203
18990TIP3    H278462   5.454   3.222   5.066  0.5487 -0.3902 -0.7382
18991TIP3   OH278463   5.231   6.543   5.586 -0.1615  0.4012 -0.2141
18991TIP3    H178464   5.219   6.515   5.676 -0.6964 -0.0454 -0.4195
18991TIP3    H278465   5.255   6.463   5.539 -0.3120  0.5494 -0.5449
18992TIP3   OH278466   5.129   3.985   4.969  0.5954  0.1317  0.5213
18992TIP3    H178467   5.133   3.929   5.047 -1.4147  2.0877  2.0910
18992TIP3    H278468   5.122   4.074   5.004 -1.6480  0.9610 -1.8712
18993TIP3   OH278469   6.751   0.654   4.389  0.1348 -0.4869 -0.4104
18993TIP3    H178470   6.820   0.597   4.355 -0.5548 -0.9045 -1.1299
18993TIP3    H278471   6.767   0.658   4.483  0.9654 -0.8136 -0.5316
18994TIP3   OH278472   3.947   4.559   5.633 -0.5266  1.0191 -0.6568
18994TIP3    H178473   3.873   4.529   5.685 -0.0894  2.4250  0.8225
18994TIP3    H278474   4.015   4.493   5.645 -1.0957  0.3805 -0.9710
18995TIP3   OH278475   4.346   5.220   5.452 -0.7089 -0.5356  0.2773
18995TIP3    H178476   4.279   5.153   5.439 -0.5404 -0.7661  0.5926
18995TIP3    H278477   4.427   5.171   5.467 -0.0481 -0.2736 -2.2068
18996TIP3   OH278478   4.148   5.126   3.408 -0.4963 -0.4512 -0.0198
18996TIP3    H178479   4.163   5.190   3.477  0.8796 -0.4601 -0.3024
18996TIP3    H278480   4.053   5.122   3.400 -0.6606 -0.1720  1.5992
18997TIP3   OH278481   0.102   3.154   2.430  0.5599 -0.0147  1.0060
18997TIP3    H178482   0.103   3.067   2.391  1.5178  0.6885 -0.6034
18997TIP3    H278483   0.142   3.210   2.363  1.0995  1.4383  2.5253
18998TIP3   OH278484   6.158   3.485   5.502  0.0812 -0.0197 -0.1112
18998TIP3    H178485   6.234   3.451   5.550 -0.0281 -0.2289 -0.0841
18998TIP3    H278486   6.168   3.449   5.414 -0.6371 -1.0710  0.2183
18999TIP3   OH278487   4.613   0.282   5.063 -0.0093 -0.1581  0.1153
18999TIP3    H178488   4.611   0.345   4.990 -5.0654 -0.2798 -0.0373
18999TIP3    H278489   4.588   0.198   5.023 -0.6201 -0.6916  1.5750
19000TIP3   OH278490   0.663   6.335   3.656  0.8196 -0.3188  0.0643
19000TIP3    H178491   0.702   6.384   3.728  1.1114 -1.6971  0.8730
19000TIP3    H278492   0.682   6.243   3.676  1.2345 -0.7028 -1.9818
19001TIP3   OH278493   6.184   5.813   3.487  0.3155  0.3715  0.3763
19001TIP3    H178494   6.163   5.723   3.511 -2.1403  1.0454  0.8037
19001TIP3    H278495   6.126   5.867   3.541  0.6499  2.1632 -1.0146
19002TIP3   OH278496   4.261   3.585   5.048  0.2400 -0.0609  0.1716
19002TIP3    H178497   4.288   3.663   4.998 -1.9564  0.2677 -0.5683
19002TIP3    H278498   4.232   3.523   4.981 -1.3970 -0.1540  0.9558
19003TIP3   OH278499   4.513   4.602   6.027 -0.0698 -0.2838 -0.5269
19003TIP3    H178500   4.558   4.652   6.095 -2.9255  0.3629  0.9668
19003TIP3    H278501   4.541   4.512   6.041 -1.2507 -0.2720  2.0661
19004TIP3   OH278502   3.756   5.902   5.928  0.0782  0.7263 -0.0719
19004TIP3    H178503   3.744   5.894   6.023  2.0883  0.1219  0.1726
19004TIP3    H278504   3.733   5.815   5.894  0.2163  0.6663 -0.0166
19005TIP3   OH278505   5.896   4.498   5.281 -0.1771  0.4373 -0.8559
19005TIP3    H178506   5.985   4.474   5.307 -0.0601  1.5391 -0.2145
19005TIP3    H278507   5.906   4.583   5.238 -0.8094  0.1531 -1.5748
19006TIP3   OH278508   5.587   6.192   4.187  0.3008  0.0831 -0.3608
19006TIP3    H178509   5.641   6.268   4.163  0.1765  0.0605 -0.7198
19006TIP3    H278510   5.650   6.120   4.198  0.2050 -0.3914 -2.5664
19007TIP3   OH278511   5.363   5.608   3.183 -0.4023  0.2307  0.0828
19007TIP3    H178512   5.378   5.696   3.218 -0.8813  0.6297 -0.7129
19007TIP3    H278513   5.268   5.603   3.172 -0.4572 -0.7085  0.9673
19008TIP3   OH278514   5.552   5.381   5.797  0.3502 -0.0545  0.1571
19008TIP3    H178515   5.478   5.377   5.858  1.4560  1.6541  1.6958
19008TIP3    H278516   5.624   5.338   5.844  0.5058 -1.1262 -1.0557
19009TIP3   OH278517   6.672   5.692   1.362  0.0329  0.5304 -0.3269
19009TIP3    H178518   6.584   5.658   1.344  0.1527 -0.1294  0.3035
19009TIP3    H278519   6.687   5.670   1.454  1.7414 -1.3546 -1.0158
19010TIP3   OH278520   3.241   4.474   5.070  0.6644  0.7477 -0.3087
19010TIP3    H178521   3.275   4.413   5.135 -1.7638  0.2609  0.5506
19010TIP3    H278522   3.146   4.476   5.086 -0.0678  0.2695 -4.1045
19011TIP3   OH278523   5.102   6.044   3.481 -0.6591 -0.5380  0.0449
19011TIP3    H178524   5.181   5.996   3.458 -0.1497 -0.4433  1.5195
19011TIP3    H278525   5.036   6.014   3.418 -0.0213 -2.2458  0.1643
19012TIP3   OH278526   6.559   0.644   4.624  0.0054  0.3183  0.2617
19012TIP3    H178527   6.627   0.687   4.676  2.7012  0.5070 -3.2133
19012TIP3    H278528   6.597   0.560   4.600 -1.3721  0.0174 -0.9397
19013TIP3   OH278529   2.290   5.367   4.034 -0.0907 -0.2704  0.1950
19013TIP3    H178530   2.261   5.454   4.060  0.7740  0.1496 -0.2177
19013TIP3    H278531   2.279   5.313   4.112 -0.6613  0.1950  0.4422
19014TIP3   OH278532   6.307   0.044   5.600 -0.4149 -0.2102 -0.2581
19014TIP3    H178533   6.351   0.063   5.683  1.3567  0.8167 -1.4073
19014TIP3    H278534   6.214   0.039   5.623  0.0183  0.3855  1.7287
19015TIP3   OH278535   2.175   3.702   4.552 -0.2197 -1.2071  0.3875
19015TIP3    H178536   2.197   3.612   4.530  2.3906 -0.4044 -0.4649
19015TIP3    H278537   2.168   3.746   4.468  0.1209 -0.2687  0.8441
19016TIP3   OH278538   5.595   3.348   4.823  0.3056 -0.1788  0.1399
19016TIP3    H178539   5.629   3.404   4.753  0.4985 -0.0977  0.2965
19016TIP3    H278540   5.662   3.281   4.834 -0.5564 -1.2205 -0.9675
19017TIP3   OH278541   5.670   5.098   3.487 -0.6928 -0.6540 -0.0395
19017TIP3    H178542   5.708   5.162   3.547 -2.3969  0.7967 -0.4589
19017TIP3    H278543   5.580   5.128   3.474 -0.8708 -1.9262 -1.9562
19018TIP3   OH278544   5.806   5.976   4.249 -0.3369  0.5831  0.4212
19018TIP3    H178545   5.775   5.926   4.325 -0.6258  1.2056  0.7190
19018TIP3    H278546   5.898   5.954   4.241 -0.1046  1.1361  1.4651
19019TIP3   OH278547   3.110   6.220   4.142 -0.0875  0.6892 -0.1726
19019TIP3    H178548   3.044   6.253   4.082 -0.8103  0.4334  0.4810
19019TIP3    H278549   3.061   6.183   4.215  0.7768  0.6871  0.4208
19020TIP3   OH278550   3.197   5.126   5.675 -0.0948 -1.0623  0.0189
19020TIP3    H178551   3.274   5.182   5.666 -0.3167 -0.8593 -0.6247
19020TIP3    H278552   3.152   5.134   5.591 -1.2019 -0.6176  0.6543
19021TIP3   OH278553   3.694   4.840   3.598 -0.2643  0.1726  0.9310
19021TIP3    H178554   3.775   4.855   3.549  1.6359  0.2474  3.9830
19021TIP3    H278555   3.669   4.750   3.576  0.0110  0.5159 -0.8786
19022TIP3   OH278556   3.656   1.103   5.239  0.3781 -0.1686  0.4201
19022TIP3    H178557   3.721   1.044   5.202  0.9696  0.9302 -0.3074
19022TIP3    H278558   3.706   1.167   5.289  0.1027  2.0510 -1.9970
19023TIP3   OH278559   6.021   3.555   4.580 -0.6409  0.2871  0.3615
19023TIP3    H178560   6.068   3.585   4.503 -1.2625 -1.0213 -0.5395
19023TIP3    H278561   6.086   3.557   4.650  0.2427  0.2988 -0.4575
19024TIP3   OH278562   5.949   3.802   4.446  0.2238  0.1601  0.1949
19024TIP3    H178563   5.945   3.707   4.438 -0.2090  0.1778  0.1845
19024TIP3    H278564   5.986   3.832   4.363  0.7531 -0.0277  0.3630
19025TIP3   OH278565   6.590   6.490   4.704 -0.1080  0.1882  0.5516
19025TIP3    H178566   6.614   6.483   4.611 -1.2537  1.2071  0.1641
19025TIP3    H278567   6.667   6.525   4.747  0.4540 -0.3581 -0.0058
19026TIP3   OH278568   6.344   4.084   5.595  0.3299  0.8556 -0.2421
19026TIP3    H178569   6.323   4.160   5.539 -2.3003  0.6784  0.4399
19026TIP3    H278570   6.363   4.122   5.680 -0.3675  0.7986 -0.0594
19027TIP3   OH278571   2.347   3.716   6.151 -0.7202  0.0212  0.2946
19027TIP3    H178572   2.286   3.643   6.153  0.6891 -1.1850  0.2821
19027TIP3    H278573   2.360   3.739   6.243  1.5374 -2.0831  0.5477
19028TIP3   OH278574   6.842   6.280   4.910 -0.1392  0.3402  0.6402
19028TIP3    H178575   6.838   6.200   4.858  0.0992  1.1935 -0.7127
19028TIP3    H278576   6.896   6.256   4.986 -0.5477 -0.9363  0.5350
19029TIP3   OH278577   3.289   3.989   5.582  0.0678  0.6453 -0.0557
19029TIP3    H178578   3.222   3.993   5.514  0.2389  0.3323 -0.2433
19029TIP3    H278579   3.248   4.029   5.659 -0.5323 -0.0623 -0.0060
19030TIP3   OH278580   4.955   5.719   6.044  0.3876 -0.3543  0.2638
19030TIP3    H178581   4.866   5.698   6.017  0.5775  1.8314 -2.2381
19030TIP3    H278582   4.945   5.789   6.109  0.3046  0.2144 -0.3637
19031TIP3   OH278583   3.869   5.266   3.530 -0.3744  0.9029 -0.2660
19031TIP3    H178584   3.832   5.226   3.609 -0.8639 -0.0782 -0.9682
19031TIP3    H278585   3.938   5.324   3.562  0.1274 -0.2621  0.8257
19032TIP3   OH278586   5.472   0.537   4.373  0.1911  0.0682 -0.3885
19032TIP3    H178587   5.535   0.512   4.441  0.2305  1.4917  0.1290
19032TIP3    H278588   5.392   0.559   4.421 -0.1038  0.0972 -0.8842
19033TIP3   OH278589   5.429   5.736   2.846  0.0972  0.4010 -0.6013
19033TIP3    H178590   5.497   5.689   2.798  1.7189  2.8279 -0.7869
19033TIP3    H278591   5.354   5.736   2.786  1.1856  0.9877 -2.0185
19034TIP3   OH278592   4.658   5.136   4.271  0.1501 -0.0516 -0.4808
19034TIP3    H178593   4.749   5.137   4.301 -0.2651 -0.5477  0.8441
19034TIP3    H278594   4.634   5.228   4.264  0.4408  0.0808  0.1871
19035TIP3   OH278595   4.668   5.323   1.111 -0.1018  0.0720 -0.2865
19035TIP3    H178596   4.652   5.351   1.201 -0.8928  0.9657 -0.6996
19035TIP3    H278597   4.734   5.384   1.078  0.8245 -0.7926 -0.0377
19036TIP3   OH278598   3.946   5.460   5.859  0.4755 -0.2684 -0.2582
19036TIP3    H178599   4.037   5.446   5.884  1.1078  2.1625 -1.0062
19036TIP3    H278600   3.951   5.518   5.783 -1.7083  0.3801  0.0517
19037TIP3   OH278601   5.151   4.619   4.454 -0.2541  0.3036  0.3127
19037TIP3    H178602   5.073   4.663   4.486 -0.4167  1.1126 -1.1554
19037TIP3    H278603   5.118   4.550   4.397  0.0791  0.1009  0.3644
19038TIP3   OH278604   5.410   3.282   5.806 -0.7593 -0.1560  0.3324
19038TIP3    H178605   5.485   3.315   5.854 -0.0378  0.2187 -1.0323
19038TIP3    H278606   5.400   3.192   5.836 -0.4999  0.1653  1.3913
19039TIP3   OH278607   5.378   6.344   5.500  0.1569  0.2227  0.0345
19039TIP3    H178608   5.293   6.299   5.497  0.3994 -0.2890  0.6541
19039TIP3    H278609   5.442   6.275   5.480  0.3108  0.9881 -2.2641
19040TIP3   OH278610   3.303   3.257   4.256 -0.2806  0.4097  0.2443
19040TIP3    H178611   3.216   3.218   4.262  0.4203 -1.1417  0.4653
19040TIP3    H278612   3.342   3.217   4.179  0.9180 -0.3277  1.2162
19041TIP3   OH278613   5.058   3.227   4.563  0.0531 -0.1662  0.3667
19041TIP3    H178614   5.009   3.145   4.574  0.6427 -0.5176  0.4015
19041TIP3    H278615   5.128   3.204   4.503  0.1957  0.3308  0.3444
19042TIP3   OH278616   4.158   5.544   3.986  0.4000 -0.3331  0.3864
19042TIP3    H178617   4.148   5.476   3.920  1.8315  0.3266 -0.5223
19042TIP3    H278618   4.118   5.622   3.947  2.7738  0.5086 -0.4461
19043TIP3   OH278619   5.434   1.498   3.786  0.6530  0.0874  0.0165
19043TIP3    H178620   5.457   1.496   3.693 -0.9838  0.9519 -0.4247
19043TIP3    H278621   5.436   1.591   3.809  1.1477 -0.1272  0.8885
19044TIP3   OH278622   6.473   6.190   2.898 -0.1807  0.1134 -0.0705
19044TIP3    H178623   6.510   6.278   2.911 -0.5207  0.0688  1.2273
19044TIP3    H278624   6.484   6.174   2.805  3.0395  0.1374  0.2424
19045TIP3   OH278625   0.225   4.343   4.717 -0.1329 -0.4886 -0.2612
19045TIP3    H178626   0.162   4.372   4.651 -0.3218 -0.2652  0.0128
19045TIP3    H278627   0.280   4.280   4.672  0.1610  0.1588 -0.8171
19046TIP3   OH278628   3.705   5.569   4.576 -0.3574 -0.3699  0.2936
19046TIP3    H178629   3.699   5.514   4.497 -2.1744 -0.6134  0.6016
19046TIP3    H278630   3.798   5.564   4.600  0.2754 -0.1709 -1.9082
19047TIP3   OH278631   2.933   4.236   5.609 -0.4158 -0.2280  0.0818
19047TIP3    H178632   2.917   4.250   5.702 -2.2215 -1.0159 -0.0740
19047TIP3    H278633   2.855   4.271   5.566  0.4178  0.1612 -1.1335
19048TIP3   OH278634   6.066   3.090   4.594  0.5399 -0.4463 -0.1459
19048TIP3    H178635   6.155   3.118   4.572  0.5000 -0.3053 -0.1272
19048TIP3    H278636   6.032   3.159   4.652  0.9222 -1.1959  0.9971
19049TIP3   OH278637   6.192   5.405   4.589 -0.3061  0.1021  1.2258
19049TIP3    H178638   6.245   5.377   4.663  1.1965  1.0955  0.5605
19049TIP3    H278639   6.214   5.497   4.577  0.1078 -0.2423 -0.9517
19050TIP3   OH278640   2.825   4.840   5.080  0.2416 -0.1258 -0.2018
19050TIP3    H178641   2.819   4.752   5.044 -3.1437 -0.6899  1.5088
19050TIP3    H278642   2.769   4.893   5.023 -2.3322 -0.3321  1.9913
19051TIP3   OH278643   3.448   3.979   5.792  0.5517  0.0853 -0.0112
19051TIP3    H178644   3.385   3.944   5.729  0.1834  0.5546  0.0976
19051TIP3    H278645   3.497   4.045   5.744  0.6984 -0.0061  0.0134
19052TIP3   OH278646   6.343   3.336   5.642 -0.2509  0.1165  0.5592
19052TIP3    H178647   6.341   3.241   5.654  1.2276  0.2726  2.1457
19052TIP3    H278648   6.435   3.360   5.651 -0.7291  1.8228  1.1302
19053TIP3   OH278649   3.601   5.027   5.827  0.0919 -0.1201  0.6382
19053TIP3    H178650   3.583   5.041   5.734  0.5767  1.9389  0.8195
19053TIP3    H278651   3.658   4.951   5.830  1.8542  1.0941 -0.9348
19054TIP3   OH278652   2.805   2.617   5.393  0.2236 -0.0223 -0.2267
19054TIP3    H178653   2.719   2.576   5.398  0.8989 -1.9736 -3.2841
19054TIP3    H278654   2.853   2.580   5.468 -0.6096 -1.3668 -0.3404
19055TIP3   OH278655   4.203   2.817   5.761  0.3471  0.7948  0.5111
19055TIP3    H178656   4.250   2.850   5.838  0.5453 -0.7592  1.0750
19055TIP3    H278657   4.268   2.819   5.691  0.7623  0.3091  0.8717
19056TIP3   OH278658   3.688   6.539   4.284 -0.2357 -0.1827 -0.3373
19056TIP3    H178659   3.727   6.615   4.326 -0.6160  1.0837 -2.2173
19056TIP3    H278660   3.598   6.538   4.315 -0.0987 -0.1649  0.0690
19057TIP3   OH278661   2.945   5.403   4.024  0.3875 -0.2983 -0.6399
19057TIP3    H178662   2.993   5.475   3.982  0.0742 -0.2935 -0.9888
19057TIP3    H278663   2.950   5.331   3.960  0.2856 -0.4297 -0.4991
19058TIP3   OH278664   4.257   7.074   4.556  0.0565  0.0325 -0.8414
19058TIP3    H178665   4.185   7.085   4.619 -0.3299 -0.2791 -1.2221
19058TIP3    H278666   4.229   7.001   4.500  1.2728 -0.9720 -0.1615
19059TIP3   OH278667   1.444   6.147   4.892 -0.1222 -0.0122 -0.2842
19059TIP3    H178668   1.479   6.211   4.830  3.1760 -0.5265  0.9187
19059TIP3    H278669   1.518   6.088   4.909 -2.1943 -2.3491  0.9563
19060TIP3   OH278670   6.636   1.884   5.259 -0.6566 -0.2179 -0.0295
19060TIP3    H178671   6.618   1.817   5.326  0.5857 -1.0941 -0.5441
19060TIP3    H278672   6.558   1.940   5.260 -2.1785 -2.2398 -0.2530
19061TIP3   OH278673   6.072   4.836   4.108 -0.2110 -0.3909  0.1675
19061TIP3    H178674   6.032   4.910   4.153 -2.7151 -0.2269 -2.1881
19061TIP3    H278675   6.016   4.762   4.130 -0.2986 -0.6938 -1.0782
19062TIP3   OH278676   5.946   4.754   3.147 -0.2608 -0.1168  0.1173
19062TIP3    H178677   5.870   4.787   3.194  0.3055  0.3039  0.7331
19062TIP3    H278678   5.938   4.791   3.059  0.3225  1.5795  0.7722
19063TIP3   OH278679   4.989   4.229   3.773 -0.6456  0.0417  0.6224
19063TIP3    H178680   5.018   4.166   3.839 -0.7522 -0.7642 -0.0897
19063TIP3    H278681   4.952   4.302   3.824  0.2460 -0.0855  1.4692
19064TIP3   OH278682   5.510   4.352   2.250  0.2230  0.4408 -0.0019
19064TIP3    H178683   5.535   4.444   2.253  1.1974  0.1520  1.3617
19064TIP3    H278684   5.577   4.307   2.301  0.8187 -1.2770 -2.2330
19065TIP3   OH278685   5.568   4.882   5.846  0.3542  1.1438 -0.0261
19065TIP3    H178686   5.656   4.871   5.811 -0.2375  0.1228 -1.2370
19065TIP3    H278687   5.576   4.951   5.912  2.4582 -0.4186  1.3972
19066TIP3   OH278688   3.034   4.207   3.275 -0.2563  0.0106 -0.3324
19066TIP3    H178689   3.093   4.132   3.280 -0.6209 -0.2427  0.2800
19066TIP3    H278690   2.982   4.192   3.197 -1.5081 -1.2705  0.7105
19067TIP3   OH278691   4.641   4.562   0.960 -0.1649 -0.3563  0.3385
19067TIP3    H178692   4.585   4.636   0.935 -4.3965 -3.4639  0.0151
19067TIP3    H278693   4.650   4.511   0.879  1.8804 -0.7188  0.7847
19068TIP3   OH278694   5.117   4.911   3.656 -0.0992  0.0182 -0.2640
19068TIP3    H178695   5.195   4.965   3.670 -0.2622  0.7929 -2.2487
19068TIP3    H278696   5.044   4.968   3.680 -0.1954  0.2230 -1.0320
19069TIP3   OH278697   3.750   4.513   5.348 -0.0997 -0.1460 -0.7809
19069TIP3    H178698   3.808   4.443   5.318  2.2962  2.1865 -1.7548
19069TIP3    H278699   3.757   4.511   5.444 -0.0470 -1.2452 -0.8053
19070TIP3   OH278700   5.190   3.811   5.177  0.1098  0.0993  0.3974
19070TIP3    H178701   5.126   3.825   5.247  0.9827 -0.4302  1.3228
19070TIP3    H278702   5.185   3.718   5.157  0.5374  0.0659  0.4301
19071TIP3   OH278703   6.350   5.323   5.267 -0.0336  0.4001 -0.0332
19071TIP3    H178704   6.339   5.397   5.207 -1.2356  0.5877  0.3879
19071TIP3    H278705   6.437   5.335   5.305  0.6335  0.4139 -1.5453
19072TIP3   OH278706   4.023   4.742   4.055 -0.2117 -0.3548  0.4384
19072TIP3    H178707   4.059   4.830   4.046 -0.5260 -0.4534 -2.4013
19072TIP3    H278708   4.093   4.684   4.027 -1.0147 -0.7833 -0.7756
19073TIP3   OH278709   7.115   2.771   3.571  0.0306 -0.5312  0.4167
19073TIP3    H178710   7.106   2.725   3.655  0.9521 -0.8369  0.3513
19073TIP3    H278711   7.174   2.844   3.590  1.1896 -1.2817 -0.2198
19074TIP3   OH278712   5.299   4.595   6.322  0.6059 -0.2661  0.3654
19074TIP3    H178713   5.240   4.530   6.285  0.1138 -0.7883  2.0439
19074TIP3    H278714   5.374   4.544   6.354  1.7407  0.3302 -1.2348
19075TIP3   OH278715   0.180   3.908   2.967 -0.6526  0.2226  0.0125
19075TIP3    H178716   0.267   3.940   2.944 -1.8806  2.6424 -1.4455
19075TIP3    H278717   0.172   3.825   2.920  0.2897  0.7531 -1.0973
19076TIP3   OH278718   4.275   4.079   5.409  0.7754  0.6111 -0.1953
19076TIP3    H178719   4.215   4.096   5.336  1.2969 -0.1518 -0.8071
19076TIP3    H278720   4.219   4.044   5.478  0.5395 -0.3059 -0.8415
19077TIP3   OH278721   2.812   4.254   3.736  1.1847  0.5638  0.0482
19077TIP3    H178722   2.861   4.329   3.703 -0.6625  1.5170 -0.5987
19077TIP3    H278723   2.746   4.292   3.794 -2.0694 -0.1545 -2.9843
19078TIP3   OH278724   2.221   6.976   3.864  0.1156  0.2622  0.3618
19078TIP3    H178725   2.226   7.068   3.886  2.2930  0.7890 -2.0136
19078TIP3    H278726   2.278   6.932   3.927  1.3365  0.9440 -0.2390
19079TIP3   OH278727   4.128   5.836   5.765 -0.4393 -0.3602  0.0456
19079TIP3    H178728   4.150   5.898   5.835  1.9677 -0.2006 -0.8379
19079TIP3    H278729   4.193   5.766   5.773  0.0969 -0.1538 -2.2684
19080TIP3   OH278730   7.250   3.659   2.910  0.4890  0.3186 -0.5331
19080TIP3    H178731   7.304   3.641   2.833  1.9779 -1.7284  0.9343
19080TIP3    H278732   7.170   3.607   2.896  1.1616 -0.8042 -0.2712
19081TIP3   OH278733   5.765   3.985   3.874  0.1405  0.2906 -0.3770
19081TIP3    H178734   5.818   3.923   3.824  0.2845  0.0856  0.0251
19081TIP3    H278735   5.734   4.048   3.809 -2.1286 -1.6346 -1.2643
19082TIP3   OH278736   4.251   5.140   5.126  0.4750 -0.0323  0.1821
19082TIP3    H178737   4.189   5.068   5.138 -0.8199  1.0454  0.1023
19082TIP3    H278738   4.264   5.176   5.213  1.3288 -0.5251  0.2614
19083TIP3   OH278739   6.439   6.716   4.777 -0.6792  0.5190  0.9035
19083TIP3    H178740   6.496   6.642   4.754 -1.0090  0.2230  1.0269
19083TIP3    H278741   6.488   6.762   4.845 -0.1224  0.8657  0.2752
19084TIP3   OH278742   3.502   6.379   5.082  0.6695 -0.1703  0.2300
19084TIP3    H178743   3.497   6.467   5.046 -0.0033  0.3518  1.5589
19084TIP3    H278744   3.595   6.358   5.082  0.5819 -0.9237 -3.4979
19085TIP3   OH278745   3.505   1.963   4.869 -0.5406 -0.4888  0.2604
19085TIP3    H178746   3.595   1.995   4.862 -0.9307  0.5693 -0.0842
19085TIP3    H278747   3.471   1.969   4.780 -1.4708  0.7171  0.6881
19086TIP3   OH278748   2.541   4.093   3.563 -0.0641  1.1135 -0.3622
19086TIP3    H178749   2.494   4.020   3.602 -1.1561  0.8284 -2.1659
19086TIP3    H278750   2.619   4.103   3.619  1.5172 -3.1401 -1.5323
19087TIP3   OH278751   4.634   5.638   5.307 -0.1310 -0.0219 -0.2989
19087TIP3    H178752   4.566   5.693   5.267  1.2317  1.3868 -0.7187
19087TIP3    H278753   4.586   5.581   5.367 -1.7195  0.7605 -0.7838
19088TIP3   OH278754   4.486   6.004   6.037  0.1303 -0.0860  0.3168
19088TIP3    H178755   4.391   6.012   6.047  0.2007  1.1423  0.0911
19088TIP3    H278756   4.522   6.083   6.078  1.1552 -1.2788  1.7813
19089TIP3   OH278757   5.453   4.080   5.253 -0.2648  0.8231 -0.1780
19089TIP3    H178758   5.464   3.989   5.281 -0.8024  1.1915  1.3347
19089TIP3    H278759   5.539   4.120   5.265 -0.2486  0.7246  0.0461
19090TIP3   OH278760   2.034   4.436   5.164 -0.0885 -0.3507 -0.4558
19090TIP3    H178761   2.097   4.497   5.127  0.9628 -0.5085  1.0592
19090TIP3    H278762   2.017   4.373   5.093 -0.8228  1.3888 -1.8540
19091TIP3   OH278763   4.367   6.666   5.708 -0.1949  0.3263 -0.0947
19091TIP3    H178764   4.403   6.652   5.620  2.0557 -0.1143  0.8640
19091TIP3    H278765   4.364   6.762   5.717  0.5648  0.3680 -0.2590
19092TIP3   OH278766   5.409   5.479   5.029 -0.9770 -0.0831 -0.0617
19092TIP3    H178767   5.476   5.435   5.081 -1.8851 -0.8851  0.4437
19092TIP3    H278768   5.336   5.491   5.089 -1.1953  1.0339 -0.5366
19093TIP3   OH278769   0.290   5.857   5.007  0.3492 -0.1823 -0.1451
19093TIP3    H178770   0.278   5.950   5.024  0.9567  0.4802 -3.1045
19093TIP3    H278771   0.382   5.841   5.026  0.1535 -0.2673  0.7366
19094TIP3   OH278772   5.635   5.286   4.356  0.2804 -0.2290  0.1675
19094TIP3    H178773   5.578   5.356   4.387 -1.0145 -0.8801 -0.6702
19094TIP3    H278774   5.633   5.221   4.426  1.3398  0.4822  0.8669
19095TIP3   OH278775   2.186   5.127   3.878 -0.6799 -0.2101  0.0670
19095TIP3    H178776   2.135   5.114   3.958 -1.1650  0.7068 -0.0819
19095TIP3    H278777   2.249   5.195   3.901 -0.8083  0.0413 -0.3197
19096TIP3   OH278778   5.108   5.626   5.363  0.4700 -0.3674  0.4215
19096TIP3    H178779   5.158   5.661   5.436  1.7787  0.4121 -0.8365
19096TIP3    H278780   5.017   5.630   5.393  1.0825 -1.5573  2.6268
19097TIP3   OH278781   4.613   4.749   5.797 -0.5708 -0.1707 -1.4207
19097TIP3    H178782   4.599   4.706   5.882 -0.5420  0.8357 -0.8979
19097TIP3    H278783   4.563   4.831   5.804 -0.5344 -0.0690 -2.3615
19098TIP3   OH278784   3.891   4.274   5.389  0.0084  0.2852 -0.0750
19098TIP3    H178785   3.983   4.262   5.365  0.0541 -0.5657  0.5113
19098TIP3    H278786   3.867   4.193   5.435 -0.5855  1.1238  1.1395
19099TIP3   OH278787   5.275   6.204   3.213 -0.2261 -0.1554  0.1300
19099TIP3    H178788   5.280   6.112   3.239 -1.4839  0.2363  1.8528
19099TIP3    H278789   5.357   6.243   3.246 -0.4674 -0.3042  0.9224
19100TIP3   OH278790   4.147   5.110   4.528  0.1983 -0.1200  0.0750
19100TIP3    H178791   4.096   5.144   4.455  0.4205  2.2382  0.9664
19100TIP3    H278792   4.087   5.112   4.602  0.5949 -0.4749  0.4094
19101TIP3   OH278793   3.899   5.274   2.383  0.2925  0.0397 -0.5121
19101TIP3    H178794   3.918   5.351   2.436  2.7698 -0.5745 -0.4773
19101TIP3    H278795   3.966   5.273   2.315 -0.8350 -1.0561 -1.6665
19102TIP3   OH278796   5.313   4.527   3.775  0.1137 -0.0083 -0.8207
19102TIP3    H178797   5.309   4.433   3.789  0.4546  0.2693  1.3193
19102TIP3    H278798   5.402   4.543   3.744  0.7920 -0.1591  0.9628
19103TIP3   OH278799   3.909   3.142   3.393  0.3455  0.3758 -0.5592
19103TIP3    H178800   3.928   3.202   3.465 -1.1791 -0.7867  0.8476
19103TIP3    H278801   3.986   3.085   3.388 -0.2053 -0.5425  1.2048
19104TIP3   OH278802   4.903   3.860   4.440 -0.0737 -0.4766  0.6048
19104TIP3    H178803   4.850   3.858   4.519 -0.8217 -2.4535  0.1112
19104TIP3    H278804   4.924   3.768   4.424  0.4628 -0.0614 -1.2068
19105TIP3   OH278805   6.380   4.793   3.381  0.2481 -0.3493 -0.5157
19105TIP3    H178806   6.395   4.700   3.398  0.8702 -0.2336 -0.4307
19105TIP3    H278807   6.403   4.836   3.464 -0.4407 -0.1577 -0.4186
19106TIP3   OH278808   5.327   6.118   4.609 -0.4009  0.2254 -0.4592
19106TIP3    H178809   5.400   6.163   4.566  1.4506  1.2149  3.4210
19106TIP3    H278810   5.281   6.188   4.656 -1.5099 -0.9808  0.2839
19107TIP3   OH278811   3.577   4.942   4.072  0.2972 -0.2083  0.3274
19107TIP3    H178812   3.650   4.891   4.036  0.7914 -1.9377  3.6309
19107TIP3    H278813   3.520   4.877   4.113 -1.1806  1.5034  1.0541
19108TIP3   OH278814   2.470   5.067   5.610  0.3383 -1.0360  0.5437
19108TIP3    H178815   2.406   5.002   5.639 -0.9516 -0.1804 -0.3629
19108TIP3    H278816   2.419   5.133   5.564  1.6631  0.5464  1.2766
19109TIP3   OH278817   5.732   5.779   4.436 -0.4057 -0.8604  0.0322
19109TIP3    H178818   5.811   5.759   4.487 -1.1371 -0.2617  1.4428
19109TIP3    H278819   5.734   5.716   4.364  1.9275 -0.1333 -0.6093
19110TIP3   OH278820   5.203   6.340   4.792  0.0859  0.0080 -0.2304
19110TIP3    H178821   5.184   6.410   4.730  0.4004 -0.4271 -0.8186
19110TIP3    H278822   5.232   6.386   4.871  0.0934  0.5506 -0.5457
19111TIP3   OH278823   3.408   3.958   4.439 -0.0269 -0.2645 -0.3214
19111TIP3    H178824   3.388   3.867   4.458  1.1136 -0.2089  1.2064
19111TIP3    H278825   3.440   3.994   4.522  1.2691  1.0430 -1.3531
19112TIP3   OH278826   3.300   3.239   5.696 -0.3741 -0.1536  0.1629
19112TIP3    H178827   3.238   3.184   5.743  1.1126 -0.8457  1.3369
19112TIP3    H278828   3.272   3.329   5.716 -2.1485 -0.4462 -0.8979
19113TIP3   OH278829   3.434   5.981   5.325 -0.0798  0.0164  0.0418
19113TIP3    H178830   3.486   5.933   5.389  1.9528 -0.2460 -1.7502
19113TIP3    H278831   3.471   6.070   5.326 -0.3226  0.1232 -0.4580
19114TIP3   OH278832   4.618   5.726   6.058  0.0885  0.0322 -0.7395
19114TIP3    H178833   4.588   5.648   6.104  1.5046  0.0004  0.1408
19114TIP3    H278834   4.537   5.775   6.040 -0.5165  0.0329  1.7574
19115TIP3   OH278835   0.323   3.679   4.527  0.2416  0.5538  0.3806
19115TIP3    H178836   0.247   3.693   4.470  1.4115 -0.0493 -1.3589
19115TIP3    H278837   0.357   3.767   4.543 -0.7816  0.8220  1.1211
19116TIP3   OH278838   6.175   5.460   5.590  0.0533 -0.3354 -0.1805
19116TIP3    H178839   6.213   5.385   5.544  2.0693 -0.0732  0.9776
19116TIP3    H278840   6.236   5.477   5.663 -1.7319  0.8098  1.0895
19117TIP3   OH278841   5.620   6.170   2.835  0.1564 -0.6840 -0.5461
19117TIP3    H178842   5.646   6.080   2.818 -0.3598 -1.2452  1.5003
19117TIP3    H278843   5.566   6.194   2.759 -1.4987 -2.8429 -0.1121
19118TIP3   OH278844   1.846   0.663   4.109 -0.3301  0.7633  0.6351
19118TIP3    H178845   1.795   0.699   4.182  0.0072 -0.2639  1.4063
19118TIP3    H278846   1.919   0.618   4.152 -0.8339 -0.9618 -0.2664
19119TIP3   OH278847   4.860   4.399   4.363 -0.5479  0.2707  0.4104
19119TIP3    H178848   4.943   4.431   4.327  0.9188 -4.3144 -0.5519
19119TIP3    H278849   4.810   4.371   4.286 -0.6685 -2.2058  1.3691
19120TIP3   OH278850   6.261   3.694   5.125  0.5742 -0.3615 -0.5616
19120TIP3    H178851   6.175   3.652   5.128  1.0229 -1.2967 -0.5964
19120TIP3    H278852   6.305   3.653   5.051  1.2502 -0.2718 -0.2114
19121TIP3   OH278853   5.324   4.963   3.980  0.4688 -0.5145 -0.1690
19121TIP3    H178854   5.408   4.921   3.965  0.8937  0.5660 -0.8879
19121TIP3    H278855   5.328   5.045   3.930  0.3557  1.2656  2.5828
19122TIP3   OH278856   0.239   6.944   1.985  0.1476  0.2687  0.5415
19122TIP3    H178857   0.214   6.994   1.907 -2.3402 -1.5872  0.0885
19122TIP3    H278858   0.280   7.008   2.043 -0.0642  2.1461 -1.3368
19123TIP3   OH278859   0.025   4.345   4.291 -0.1302  0.6169 -0.3781
19123TIP3    H178860   0.011   4.369   4.200 -0.4477 -1.0870 -0.7805
19123TIP3    H278861  -0.017   4.260   4.301  0.0500  0.7057  1.3160
19124TIP3   OH278862   6.890   6.418   2.751 -0.0135  0.6322  0.1814
19124TIP3    H178863   6.839   6.346   2.786 -1.8526  3.1217  2.7693
19124TIP3    H278864   6.971   6.417   2.802  0.9505 -0.9352 -1.3206
19125TIP3   OH278865   3.769   2.090   4.860  0.0636 -0.2740 -0.8708
19125TIP3    H178866   3.860   2.099   4.890 -1.0171  0.7815  2.3571
19125TIP3    H278867   3.747   2.177   4.825 -1.2780  1.2613  3.3714
19126TIP3   OH278868   0.781   4.605   5.227 -0.4565  0.3877 -0.1200
19126TIP3    H178869   0.807   4.513   5.227 -0.4713  0.3828  0.3808
19126TIP3    H278870   0.850   4.649   5.179  0.1046  0.2702  0.5810
19127TIP3   OH278871   0.329   5.554   5.157 -0.0516  0.0717  0.4523
19127TIP3    H178872   0.289   5.470   5.180  0.4284 -0.0667  0.7709
19127TIP3    H278873   0.423   5.539   5.164  0.0283  0.7635  0.9599
19128TIP3   OH278874   5.600   6.097   3.592  0.1686 -1.2120 -0.4642
19128TIP3    H178875   5.609   6.028   3.658  1.1263 -0.9903 -0.3597
19128TIP3    H278876   5.689   6.110   3.559 -0.0257 -0.1206 -0.5720
19129TIP3   OH278877   4.471   4.216   3.483  0.4996  0.1675  0.4443
19129TIP3    H178878   4.428   4.241   3.401  2.4915  3.0507  0.2169
19129TIP3    H278879   4.541   4.156   3.456  0.9220  0.8249  0.0633
19130TIP3   OH278880   0.721   4.303   4.371  0.2542 -0.5584  0.5015
19130TIP3    H178881   0.698   4.236   4.307 -1.6116 -1.3215  1.9338
19130TIP3    H278882   0.784   4.260   4.429  0.1381 -0.6178  0.5836
19131TIP3   OH278883   0.107   2.731   2.550  0.1509  0.3758  0.4947
19131TIP3    H178884   0.018   2.703   2.571  0.5719 -1.1455  0.2864
19131TIP3    H278885   0.096   2.798   2.483 -0.7554 -1.2308 -1.0017
19132TIP3   OH278886   5.814   5.081   4.440 -0.1223  0.1272  0.8036
19132TIP3    H178887   5.782   5.028   4.513  3.2969 -0.9616  1.5863
19132TIP3    H278888   5.844   5.162   4.481 -0.0089  0.3122  0.3596
19133TIP3   OH278889   7.327   6.247   4.326  0.4333  0.1396  0.3352
19133TIP3    H178890   7.375   6.168   4.350  0.6149  0.1215 -0.0798
19133TIP3    H278891   7.235   6.221   4.325  0.4621  0.0345  0.5919
19134TIP3   OH278892   0.084   1.975   3.517 -0.5472 -0.2710  0.1437
19134TIP3    H178893   0.103   1.906   3.454  0.0821  0.7692 -0.8376
19134TIP3    H278894  -0.004   2.007   3.493  0.3291  1.1840 -1.2353
19135TIP3   OH278895   6.906   4.415   3.154 -0.2763  0.2602  0.2365
19135TIP3    H178896   6.883   4.324   3.135 -0.2124  0.7704 -2.4866
19135TIP3    H278897   6.893   4.424   3.249  1.7686 -3.1595  0.9176
19136TIP3   OH278898   6.889   6.142   3.916  0.1990  0.2357  0.3447
19136TIP3    H178899   6.844   6.057   3.919 -0.4029  0.5535  0.4384
19136TIP3    H278900   6.844   6.191   3.847  0.8810  0.2935 -0.0564
19137TIP3   OH278901   6.532   3.516   5.079 -0.8977  0.2918 -0.5349
19137TIP3    H178902   6.555   3.581   5.013 -2.8384 -0.9057 -2.4637
19137TIP3    H278903   6.581   3.438   5.054  0.9269  0.7773  1.4017
19138TIP3   OH278904   4.736   2.828   3.820 -0.0759 -0.4763 -0.6896
19138TIP3    H178905   4.734   2.736   3.847 -0.0947 -0.0627  0.7608
19138TIP3    H278906   4.644   2.851   3.807 -0.1878 -0.2220  0.5100
19139TIP3   OH278907   0.367   5.238   5.092  0.1516 -0.1651 -0.0080
19139TIP3    H178908   0.366   5.145   5.072 -0.5162 -0.2726  0.4951
19139TIP3    H278909   0.433   5.248   5.160  0.7055 -0.1647 -0.5428
19140TIP3   OH278910   0.565   5.850   1.015  0.3223 -0.5182 -0.1394
19140TIP3    H178911   0.583   5.757   1.007  2.6393 -0.1229  0.2689
19140TIP3    H278912   0.621   5.892   0.949 -0.3310  0.6332  0.0152
19141TIP3   OH278913   6.508   4.811   3.633  0.0312 -0.3681  0.1052
19141TIP3    H178914   6.559   4.741   3.673  1.1527  0.6624  0.5006
19141TIP3    H278915   6.554   4.891   3.656 -1.6330  0.5721  0.2462
19142TIP3   OH278916   7.162   4.868   3.490  0.4715  0.4036  0.4205
19142TIP3    H178917   7.165   4.872   3.586  1.1962  1.9942  0.3322
19142TIP3    H278918   7.237   4.918   3.461 -0.3704  0.8546 -1.0137
19143TIP3   OH278919   0.621   5.641   3.141  0.6202 -0.3288 -0.1450
19143TIP3    H178920   0.551   5.584   3.172  0.0025 -0.2636 -1.3791
19143TIP3    H278921   0.605   5.725   3.184 -0.9961  0.1401 -1.6218
19144TIP3   OH278922   6.947   4.321   0.769 -0.7111  0.1789 -0.5838
19144TIP3    H178923   6.971   4.256   0.703 -1.7710 -1.3180  0.4740
19144TIP3    H278924   6.903   4.270   0.837  2.1597  1.4073  2.2518
19145TIP3   OH278925   0.189   6.092   5.200 -0.1259  0.0087  0.5339
19145TIP3    H178926   0.248   6.055   5.266 -0.5155  0.4042  1.1187
19145TIP3    H278927   0.144   6.163   5.247 -2.4545 -1.5054  0.6399
19146TIP3   OH278928   6.503   4.575   2.358  0.1551 -0.1182  0.6900
19146TIP3    H178929   6.544   4.634   2.421 -1.9050 -1.0534  2.9581
19146TIP3    H278930   6.537   4.489   2.380  0.0718 -0.3386 -0.0343
19147TIP3   OH278931   4.901   5.615   4.273 -0.6374 -0.2904  0.2713
19147TIP3    H178932   4.884   5.685   4.335 -0.6369 -0.9440  1.0212
19147TIP3    H278933   4.828   5.619   4.211 -0.8792  0.0721  0.5792
19148TIP3   OH278934   2.233   5.154   5.117  0.5910 -0.0738 -0.0712
19148TIP3    H178935   2.197   5.219   5.057 -0.1165 -0.2016  0.2101
19148TIP3    H278936   2.266   5.205   5.191 -0.4670 -0.0772  0.4021
19149TIP3   OH278937   0.066   5.884   6.040  0.1149 -0.4382  0.0021
19149TIP3    H178938   0.039   5.917   6.126  2.1673 -0.4794  0.6840
19149TIP3    H278939   0.115   5.805   6.059  0.1465 -0.7301 -1.2528
19150TIP3   OH278940   5.747   4.896   6.110 -0.1751 -0.7515  0.0353
19150TIP3    H178941   5.756   4.924   6.201  1.7739 -1.5761  0.1235
19150TIP3    H278942   5.669   4.941   6.079  0.4388  1.3875  1.4305
19151TIP3   OH278943   1.024   5.246   5.887 -0.5239  0.6020  0.2917
19151TIP3    H178944   1.116   5.227   5.904  0.0855  0.1896 -3.1099
19151TIP3    H278945   1.007   5.328   5.934  1.2693  0.1788  1.7428
19152TIP3   OH278946   5.948   4.258   5.470 -0.9197 -0.3176 -0.5687
19152TIP3    H178947   5.909   4.225   5.551 -0.7326  0.1976 -0.2642
19152TIP3    H278948   6.038   4.280   5.494 -0.3378 -1.8027 -1.3431
19153TIP3   OH278949   6.466   0.387   3.954 -0.3065 -0.3591  0.3210
19153TIP3    H178950   6.418   0.341   3.885  0.5032  0.2346 -0.6414
19153TIP3    H278951   6.430   0.475   3.954  1.1739  0.2604 -0.8036
19154TIP3   OH278952   5.433   5.096   5.662  0.1736 -0.5107 -0.4945
19154TIP3    H178953   5.379   5.090   5.741  1.0577 -0.3295  0.1321
19154TIP3    H278954   5.471   5.184   5.665 -0.1204 -0.3521 -1.3422
19155TIP3   OH278955   0.252   3.175   5.647  0.8111  0.4228  0.4778
19155TIP3    H178956   0.282   3.190   5.558  0.1332  0.7471  0.3015
19155TIP3    H278957   0.324   3.206   5.702  1.1004  0.5119  0.0504
19156TIP3   OH278958   6.934   5.480   3.455 -0.0996  0.2764 -0.0846
19156TIP3    H178959   6.970   5.418   3.391 -0.2305  1.0478 -0.9186
19156TIP3    H278960   7.010   5.517   3.499 -0.0633 -1.7584  1.6839
19157TIP3   OH278961   5.535   5.517   6.095 -0.1433  0.6461 -0.3667
19157TIP3    H178962   5.547   5.605   6.060  0.5680  0.2331 -1.1584
19157TIP3    H278963   5.445   5.494   6.072  0.4206  0.2524 -2.2021
19158TIP3   OH278964   5.974   6.664   4.270  0.2889 -0.0862  0.4987
19158TIP3    H178965   6.044   6.729   4.270  0.8872 -0.7196  1.6050
19158TIP3    H278966   5.943   6.662   4.361 -0.3468 -0.6769  0.2763
19159TIP3   OH278967   6.026   5.816   4.810 -0.3563 -0.1369 -0.2651
19159TIP3    H178968   5.954   5.876   4.829 -0.1203 -0.4170  1.6256
19159TIP3    H278969   6.105   5.869   4.821 -0.1935 -0.4673  0.1581
19160TIP3   OH278970   0.102   5.039   5.988 -0.3652  0.3297 -0.4497
19160TIP3    H178971   0.021   5.009   6.029  1.3438 -0.9153  2.1027
19160TIP3    H278972   0.111   5.131   6.015  0.1793 -0.1613  1.0453
19161TIP3   OH278973   0.428   6.753   4.085 -0.1857  0.3602 -0.4089
19161TIP3    H178974   0.403   6.731   4.175  0.4107  0.5833 -0.1858
19161TIP3    H278975   0.356   6.721   4.032 -0.3065 -0.2399  0.1078
19162TIP3   OH278976   1.777   1.128   3.696  0.1328  0.0757 -0.5581
19162TIP3    H178977   1.805   1.219   3.691 -0.0694  0.0660 -2.1548
19162TIP3    H278978   1.815   1.095   3.777  2.5495  0.7873 -1.3514
19163TIP3   OH278979   6.670   6.298   2.567 -0.2168  0.0235 -0.1060
19163TIP3    H178980   6.739   6.267   2.625 -0.7579 -0.1512  0.4476
19163TIP3    H278981   6.593   6.247   2.592 -0.8369  1.0341  0.0694
19164TIP3   OH278982   0.003   4.644   5.905 -0.2174 -0.2345 -0.0148
19164TIP3    H178983  -0.019   4.641   5.998  1.5882  0.8248  0.4540
19164TIP3    H278984  -0.052   4.714   5.870 -0.7455 -0.4941  0.2900
19165TIP3   OH278985   5.884   6.739   4.521  0.0967 -0.1116 -0.2432
19165TIP3    H178986   5.810   6.715   4.577 -0.5045  1.1951 -0.4397
19165TIP3    H278987   5.951   6.770   4.582 -0.2156  0.4419 -0.1774
19166TIP3   OH278988   0.617   6.111   5.328  0.0562  0.3070  0.1029
19166TIP3    H178989   0.712   6.116   5.342  0.5198  0.3518 -2.7275
19166TIP3    H278990   0.602   6.169   5.253 -2.3356  0.9074  1.0225
19167TIP3   OH278991   6.568   4.080   6.158  0.2149  0.2968 -0.4304
19167TIP3    H178992   6.561   4.038   6.072 -0.1263 -0.2631 -0.1300
19167TIP3    H278993   6.481   4.118   6.173 -0.4493 -1.5416  0.6549
19168TIP3   OH278994   6.189   5.183   4.408 -0.8687  0.1915  0.6192
19168TIP3    H178995   6.264   5.204   4.353 -1.5615 -0.5474 -0.6347
19168TIP3    H278996   6.168   5.265   4.453  0.8717  0.3163  1.2169
19169TIP3   OH278997   4.835   4.443   3.859  0.8770 -0.1572  0.0513
19169TIP3    H178998   4.849   4.487   3.775  2.5192  1.0748  0.9425
19169TIP3    H278999   4.847   4.512   3.925 -0.5348 -1.0700  1.3064
19170TIP3   OH279000   4.913   4.264   4.583  0.1319 -0.3895 -0.3867
19170TIP3    H179001   5.003   4.242   4.558  0.1878  1.2478 -1.7575
19170TIP3    H279002   4.880   4.317   4.510 -2.9909 -3.4140 -1.3336
19171TIP3   OH279003   5.173   7.231   4.564  0.2509  0.6401  0.3829
19171TIP3    H179004   5.151   7.156   4.619 -2.0828  2.0856  1.5124
19171TIP3    H279005   5.160   7.200   4.474  0.9199 -0.7733  0.7554
19172TIP3   OH279006   2.118   5.272   4.878  0.0691 -0.2042 -0.0195
19172TIP3    H179007   2.183   5.291   4.811  0.5052 -0.9643  0.1819
19172TIP3    H279008   2.046   5.332   4.859 -0.0504 -0.8098 -1.5151
19173TIP3   OH279009   6.475   4.587   4.992 -0.0841 -0.2390 -0.6092
19173TIP3    H179010   6.408   4.533   5.035 -0.4679  0.4337 -0.3565
19173TIP3    H279011   6.489   4.545   4.907 -1.8762  0.4318 -1.2641
19174TIP3   OH279012   5.573   4.382   5.285  0.2097 -0.1885 -0.0938
19174TIP3    H179013   5.523   4.444   5.338 -0.7311 -1.3766  0.4426
19174TIP3    H279014   5.554   4.407   5.195 -0.8040 -0.1861  0.1145
19175TIP3   OH279015   0.067   6.456   4.505 -0.3298 -0.1132  0.1473
19175TIP3    H179016   0.018   6.390   4.455 -2.5057 -0.0847  2.1668
19175TIP3    H279017   0.015   6.469   4.585 -0.0848  4.2120 -0.2770
19176TIP3   OH279018   4.891   4.455   4.787 -0.1476  0.4187  0.0781
19176TIP3    H179019   4.814   4.439   4.841  0.4950  1.1221  1.2177
19176TIP3    H279020   4.898   4.377   4.732 -0.9240 -0.2226  0.8642
19177TIP3   OH279021   6.185   4.525   4.245 -0.4135  0.4801 -0.0605
19177TIP3    H179022   6.177   4.568   4.330  0.3949 -0.1332  0.3398
19177TIP3    H279023   6.235   4.587   4.192 -0.8449  0.8266 -0.0685
19178TIP3   OH279024   0.302   2.536   4.128 -0.2291  0.2233 -0.3761
19178TIP3    H179025   0.314   2.482   4.051 -0.2513 -0.1809 -0.0952
19178TIP3    H279026   0.234   2.599   4.103 -2.2577 -1.6484  0.2130
19179TIP3   OH279027   6.645   4.098   2.611  0.3022  0.4225 -0.1169
19179TIP3    H179028   6.713   4.036   2.584 -0.2480  0.1099 -0.7707
19179TIP3    H279029   6.573   4.044   2.641  0.2675  0.7552  0.4097
19180TIP3   OH279030   6.038   5.991   5.284 -0.7459  0.0940  0.1988
19180TIP3    H179031   6.036   6.055   5.355 -1.6041  0.6394 -0.3023
19180TIP3    H279032   6.116   5.939   5.300  0.2683  1.6057  0.3159
19181TIP3   OH279033   0.427   4.455   3.745 -0.2084  0.3715  0.0028
19181TIP3    H179034   0.431   4.488   3.655 -1.2078 -0.8863 -0.5292
19181TIP3    H279035   0.348   4.400   3.747  0.5348 -0.6988  1.2699
19182TIP3   OH279036   5.933   3.983   4.660  0.2217  0.0245 -0.0560
19182TIP3    H179037   5.927   3.914   4.593 -0.0126 -1.0100  1.0131
19182TIP3    H279038   5.914   4.064   4.613 -2.3623 -0.9566 -0.7745
19183TIP3   OH279039   0.436   3.788   5.268  0.0884 -0.0152  0.0767
19183TIP3    H179040   0.432   3.773   5.173 -2.6872  0.9401 -0.0169
19183TIP3    H279041   0.411   3.704   5.306  0.2839 -0.1395 -0.0691
19184TIP3   OH279042   6.282   5.639   3.058 -0.2485 -0.0041  0.5208
19184TIP3    H179043   6.287   5.734   3.060 -1.4526  0.0858 -0.2079
19184TIP3    H279044   6.345   5.610   3.124  1.1111  1.2493 -0.1838
19185TIP3   OH279045   0.012   5.991   2.399 -0.2317 -0.0687  0.2255
19185TIP3    H179046   0.053   6.052   2.460 -0.5162  1.1006 -0.7553
19185TIP3    H279047   0.008   5.908   2.448 -0.2975  0.8128  1.7282
19186TIP3   OH279048   0.203   5.025   4.552 -0.1121  0.7019  0.6732
19186TIP3    H179049   0.281   5.000   4.504 -0.3147 -0.2177  0.8090
19186TIP3    H279050   0.235   5.072   4.630  0.2461  1.3728  0.1277
19187TIP3   OH279051   0.568   4.262   4.897  0.1953  0.4788 -0.7524
19187TIP3    H179052   0.543   4.310   4.976  0.2919 -1.7975  0.7321
19187TIP3    H279053   0.631   4.319   4.853  1.5497  1.0461  1.7892
19188TIP3   OH279054   7.307   3.669   3.472  0.2891 -0.7021  0.0568
19188TIP3    H179055   7.264   3.752   3.489  1.4408 -0.0673 -0.1133
19188TIP3    H279056   7.324   3.669   3.378 -0.8410 -1.6861 -0.1672
19189TIP3   OH279057   6.892   4.350   5.154  0.3032  0.1273 -0.6030
19189TIP3    H179058   6.905   4.435   5.197 -0.3544  0.2158 -0.5738
19189TIP3    H279059   6.980   4.313   5.147  0.4796  0.3677  0.2898
19190TIP3   OH279060   6.845   5.146   5.343  0.5535  0.3992 -0.3861
19190TIP3    H179061   6.842   5.145   5.248 -0.8517 -0.4235 -0.3577
19190TIP3    H279062   6.807   5.230   5.368 -0.2066  0.1075 -0.5403
19191TIP3   OH279063   7.165   5.106   5.591 -0.0800 -0.0225 -0.3624
19191TIP3    H179064   7.237   5.071   5.644  1.2039  1.3397 -1.1546
19191TIP3    H279065   7.186   5.078   5.502  0.6513  2.1863 -0.9120
19192TIP3   OH279066   7.043   3.054   3.800  0.3788  0.4397  0.1446
19192TIP3    H179067   7.018   2.981   3.857  1.8961 -0.8433 -0.8106
19192TIP3    H279068   7.109   3.102   3.849 -1.2497  1.7345  1.1467
19193TIP3   OH279069   6.364   3.901   5.837  0.5387 -0.0585  0.0052
19193TIP3    H179070   6.323   3.987   5.829 -0.0308 -0.3662 -0.3792
19193TIP3    H279071   6.447   3.918   5.880 -0.6992  0.3880  2.3186
19194TIP3   OH279072   1.758   4.428   5.824  0.5320 -1.1223 -0.3645
19194TIP3    H179073   1.761   4.373   5.745  1.7751 -1.7436  0.0991
19194TIP3    H279074   1.711   4.375   5.888 -2.2718  0.1851 -1.2611
19195TIP3   OH279075   4.870   5.199   3.102 -0.2243  0.3620 -0.4555
19195TIP3    H179076   4.795   5.140   3.108  0.1076 -0.0345 -0.0707
19195TIP3    H279077   4.930   5.168   3.171  0.9380 -0.2749 -1.7283
19196TIP3   OH279078   6.334   5.313   4.808 -0.5388 -0.2157  0.1446
19196TIP3    H179079   6.344   5.400   4.845 -0.9173 -0.2896  0.4251
19196TIP3    H279080   6.315   5.257   4.883  1.1891 -0.7995  0.1699
19197TIP3   OH279081   7.040   3.891   5.641 -0.7252 -0.3296  0.1787
19197TIP3    H179082   6.986   3.836   5.584  0.7469 -0.6877 -0.8991
19197TIP3    H279083   7.118   3.909   5.589 -0.1327  0.7903  1.4438
19198TIP3   OH279084   6.427   1.849   4.734 -0.6014  0.4607 -0.2524
19198TIP3    H179085   6.342   1.815   4.761 -1.9233  2.2055 -2.1612
19198TIP3    H279086   6.462   1.892   4.813 -0.6859 -1.7076  1.0126
19199TIP3   OH279087   6.870   3.781   5.976  0.7591 -0.0812  0.4314
19199TIP3    H179088   6.857   3.732   6.058  0.5397 -0.3938  0.2126
19199TIP3    H279089   6.840   3.721   5.908 -2.0725  1.3546  0.3544
19200TIP3   OH279090   4.282   2.203   3.778  0.0797 -0.7227  0.1629
19200TIP3    H179091   4.308   2.295   3.774  0.5684 -0.7956  1.3572
19200TIP3    H279092   4.233   2.188   3.697 -0.1053  0.6191  0.0152
19201TIP3   OH279093   0.257   4.735   4.485 -0.0279 -0.3089 -0.4136
19201TIP3    H179094   0.231   4.645   4.505  1.4524 -1.1944 -2.2914
19201TIP3    H279095   0.185   4.788   4.517 -1.7081 -2.3055 -0.7680
19202TIP3   OH279096   6.112   5.626   4.277  0.9073  0.1867 -0.0214
19202TIP3    H179097   6.073   5.624   4.364 -0.0605 -1.3531 -0.4721
19202TIP3    H279098   6.190   5.570   4.285  0.9303  0.2071 -0.0966
19203TIP3   OH279099   0.294   4.588   0.612 -0.2588  0.0168  0.3832
19203TIP3    H179100   0.308   4.557   0.701 -0.1333  1.6196  0.9306
19203TIP3    H279101   0.379   4.623   0.585 -0.4537  0.0841 -0.1426
19204TIP3   OH279102   5.778   6.034   3.325 -0.7961 -0.0885 -0.9284
19204TIP3    H179103   5.811   5.947   3.350 -1.4933  0.0743  0.6150
19204TIP3    H279104   5.830   6.095   3.378 -2.0850  0.2801 -0.0728
19205TIP3   OH279105   5.754   3.474   4.616  0.4174  0.3017 -0.6372
19205TIP3    H179106   5.834   3.518   4.585  0.7478  2.7624  3.3070
19205TIP3    H279107   5.689   3.544   4.619 -0.7667 -0.8155  0.0179
19206TIP3   OH279108   2.014   5.250   4.498 -0.1683 -0.0453 -0.6525
19206TIP3    H179109   1.949   5.302   4.546 -0.1281  0.8996 -1.6148
19206TIP3    H279110   2.093   5.257   4.551 -0.4352  0.0553 -0.2624
19207TIP3   OH279111   6.970   5.221   2.664 -0.0526  0.7405 -1.2041
19207TIP3    H179112   6.920   5.280   2.721  0.2100 -0.2648  0.0825
19207TIP3    H279113   6.909   5.199   2.594 -0.9551  0.6529 -0.4024
19208TIP3   OH279114   6.361   5.164   5.047 -0.1435 -0.0082  0.3053
19208TIP3    H179115   6.347   5.198   5.135  2.4146  1.6883  0.1223
19208TIP3    H279116   6.414   5.085   5.060 -2.2733 -1.4391  0.4471
19209TIP3   OH279117   1.222   6.333   4.465  0.2850  0.3738 -0.4105
19209TIP3    H179118   1.188   6.407   4.517  1.2687  1.7130 -1.6202
19209TIP3    H279119   1.160   6.324   4.393  0.9283  0.9381 -1.0349
19210TIP3   OH279120   5.582   4.033   5.622  0.4880  0.2512 -0.1349
19210TIP3    H179121   5.612   3.943   5.636 -0.3427  0.0632  0.5097
19210TIP3    H279122   5.651   4.087   5.660 -0.3227 -0.1956  2.0953
19211TIP3   OH279123   0.921   6.619   5.602 -0.4052 -0.1037  0.1330
19211TIP3    H179124   0.907   6.535   5.558  0.4361  0.3362 -1.0164
19211TIP3    H279125   0.984   6.599   5.671 -0.5268 -0.5001  0.1322
19212TIP3   OH279126   4.254   4.591   3.997 -0.2388  0.5619  0.5167
19212TIP3    H179127   4.316   4.655   4.033 -0.3121  0.6763  0.4397
19212TIP3    H279128   4.280   4.507   4.036 -1.4026  0.9643  2.1892
19213TIP3   OH279129   1.007   5.181   5.319  0.0371  0.0588  0.4997
19213TIP3    H179130   1.054   5.170   5.401 -0.8643 -0.0387  1.0175
19213TIP3    H279131   1.069   5.224   5.260  0.3027  1.2215  1.6116
19214TIP3   OH279132   0.084   6.673   3.435 -0.1658  0.3544  0.3491
19214TIP3    H179133   0.033   6.645   3.359 -0.3962  0.0861  0.6024
19214TIP3    H279134   0.173   6.686   3.401 -0.1448 -0.3002  0.1517
19215TIP3   OH279135   5.041   5.300   3.922  0.2795 -0.0352 -0.4568
19215TIP3    H179136   5.132   5.317   3.947  0.4296 -0.1454 -0.9241
19215TIP3    H279137   5.011   5.381   3.882  1.1149 -0.9643 -3.0252
19216TIP3   OH279138   6.918   6.149   5.539 -0.5573  0.2661 -0.0910
19216TIP3    H179139   6.934   6.147   5.634 -2.4604 -3.2098  0.2116
19216TIP3    H279140   6.844   6.209   5.528 -0.2641  0.7614  0.5950
19217TIP3   OH279141   0.377   3.885   4.153  0.4760 -0.1694  0.1161
19217TIP3    H179142   0.343   3.834   4.227  1.0940 -0.8131 -0.0464
19217TIP3    H279143   0.471   3.891   4.169  0.6455 -0.5291 -0.7597
19218TIP3   OH279144   0.810   4.707   3.709  0.2221  0.5494  0.7187
19218TIP3    H179145   0.727   4.723   3.664 -0.5116  0.5348  2.0353
19218TIP3    H279146   0.784   4.679   3.797  1.6076 -0.7145  0.7365
19219TIP3   OH279147   6.703   4.495   5.409 -0.0430 -0.5850  0.3057
19219TIP3    H179148   6.760   4.471   5.482  2.3675 -0.7032 -1.5449
19219TIP3    H279149   6.661   4.576   5.437  2.4883  0.5347  0.9932
19220TIP3   OH279150   7.164   4.831   5.347  0.1426 -0.2350  0.3674
19220TIP3    H179151   7.168   4.832   5.443  0.7904 -1.4524  0.3717
19220TIP3    H279152   7.158   4.923   5.322 -1.4369  0.0310  1.6314
19221TIP3   OH279153   6.472   5.536   4.890  0.6530 -0.2642  0.0473
19221TIP3    H179154   6.562   5.503   4.887  0.5633 -0.4353 -1.0940
19221TIP3    H279155   6.480   5.630   4.873  0.7596  0.0360  1.6654
19222TIP3   OH279156   5.977   6.447   3.696 -0.4477 -0.4975 -0.3680
19222TIP3    H179157   6.041   6.379   3.673 -0.7911 -0.7032 -0.7227
19222TIP3    H279158   6.022   6.530   3.679 -0.2815 -0.6432 -0.6455
19223TIP3   OH279159   7.135   2.060   3.728  0.2965  0.1655  0.2532
19223TIP3    H179160   7.160   2.060   3.636  0.2211  0.9558  0.2319
19223TIP3    H279161   7.086   1.978   3.739 -0.4698  0.5026 -0.6123
19224TIP3   OH279162   5.793   2.971   4.542 -0.0650  0.4353 -0.1182
19224TIP3    H179163   5.745   3.053   4.537  0.4355  0.7406  0.0752
19224TIP3    H279164   5.878   2.990   4.502  0.1707  0.0965  0.2175
19225TIP3   OH279165   6.536   3.407   4.294  0.5582  0.6152 -0.2767
19225TIP3    H179166   6.514   3.465   4.366  1.5584  0.9529 -0.2337
19225TIP3    H279167   6.569   3.328   4.336 -0.1755  0.2711 -0.3446
19226TIP3   OH279168   5.841   4.887   3.850 -0.0284 -0.4375 -0.0009
19226TIP3    H179169   5.883   4.807   3.821 -0.3729 -0.1184 -1.4184
19226TIP3    H279170   5.913   4.948   3.865  0.0996 -0.2511 -1.3093
19227TIP3   OH279171   3.169   5.734   5.168 -0.0464  0.2021 -0.0940
19227TIP3    H179172   3.123   5.699   5.244 -0.2751 -0.4681 -0.5382
19227TIP3    H279173   3.140   5.825   5.161  0.0946  0.3100  0.7120
19228TIP3   OH279174   1.072   6.945   5.536 -0.0508  0.0432 -0.1583
19228TIP3    H179175   1.049   7.032   5.569  0.7261  0.2179 -0.0584
19228TIP3    H279176   1.068   6.954   5.440  0.0426  0.1960 -0.1480
19229TIP3   OH279177   6.967   4.507   4.387  0.2421  0.4794  0.1145
19229TIP3    H179178   7.019   4.443   4.435  1.0609  0.3382 -0.9612
19229TIP3    H279179   6.965   4.584   4.444 -1.1454 -0.6261  1.6273
19230TIP3   OH279180   1.348   7.068   4.785  0.0125 -0.0432  0.0358
19230TIP3    H179181   1.311   6.981   4.792 -0.3428  0.1891  1.2090
19230TIP3    H279182   1.305   7.119   4.854  0.9648  0.7827  0.0535
19231TIP3   OH279183   6.780   5.425   4.449 -0.4075 -0.1991 -0.2307
19231TIP3    H179184   6.772   5.453   4.357 -0.9624 -1.4224 -0.5581
19231TIP3    H279185   6.835   5.347   4.446  0.1871  0.1802  0.5641
19232TIP3   OH279186   1.996   2.949   3.311 -0.3422  0.2629 -0.4192
19232TIP3    H179187   2.024   2.860   3.289  1.7909  0.4940  1.1517
19232TIP3    H279188   2.055   2.975   3.382 -0.4157  3.2242 -1.3821
19233TIP3   OH279189   5.935   4.442   5.817 -0.1031 -0.1798 -0.5092
19233TIP3    H179190   5.957   4.352   5.794  2.0106  0.1943 -0.0798
19233TIP3    H279191   5.849   4.436   5.859  0.4504 -2.1289  0.3952
19234TIP3   OH279192   0.248   4.394   3.029 -0.3040 -0.4347  0.6952
19234TIP3    H179193   0.226   4.477   2.986  1.0938 -0.3104  0.1990
19234TIP3    H279194   0.170   4.340   3.017 -1.3798  0.9384  1.3800
19235TIP3   OH279195   6.535   4.587   3.139 -0.1165  0.3200  0.0991
19235TIP3    H179196   6.557   4.543   3.222 -1.5185 -1.3405 -0.3717
19235TIP3    H279197   6.603   4.558   3.078 -0.7527 -0.8635 -0.0773
19236TIP3   OH279198   6.242   3.807   2.706  0.1421 -0.4189  0.3352
19236TIP3    H179199   6.228   3.722   2.746  0.3488 -0.2787  0.7092
19236TIP3    H279200   6.333   3.805   2.675  0.5637  0.1412  1.5150
19237TIP3   OH279201   4.665   2.618   5.468 -0.3253 -0.2865  0.3596
19237TIP3    H179202   4.684   2.536   5.423 -1.1689  0.5966 -1.6898
19237TIP3    H279203   4.743   2.672   5.454 -0.3520 -0.2249  0.4454
19238TIP3   OH279204   0.764   4.872   2.039 -0.1210  0.1130  0.0723
19238TIP3    H179205   0.768   4.826   2.123  1.4983 -0.8420 -0.5082
19238TIP3    H279206   0.671   4.871   2.016 -0.4887 -0.2171  1.5176
19239TIP3   OH279207   0.518   4.814   2.639  0.0363  0.1840  0.1303
19239TIP3    H179208   0.563   4.872   2.578 -0.7464 -0.1318 -0.7448
19239TIP3    H279209   0.428   4.847   2.642  0.0721  0.2088  1.1241
19240TIP3   OH279210   5.828   3.975   4.145 -0.0961 -0.3704  0.4168
19240TIP3    H179211   5.903   3.918   4.159  1.6334  1.3982 -1.3924
19240TIP3    H279212   5.820   3.982   4.050 -3.2651 -1.4002  0.5319
19241TIP3   OH279213   7.077   3.803   3.919 -0.0063 -0.0596  0.3010
19241TIP3    H179214   7.088   3.721   3.872  0.6742 -0.1942  0.6915
19241TIP3    H279215   7.016   3.783   3.989 -0.4362 -0.0416 -0.0638
19242TIP3   OH279216   5.459   4.563   5.435  0.2943  0.3337 -0.4430
19242TIP3    H179217   5.512   4.614   5.495  0.4565 -0.8010  0.3872
19242TIP3    H279218   5.427   4.490   5.487 -0.8038  0.1601 -1.3440
19243TIP3   OH279219   0.328   3.295   3.809  0.1828 -0.7103 -1.0586
19243TIP3    H179220   0.245   3.293   3.760 -1.4734 -1.4927  1.6730
19243TIP3    H279221   0.329   3.381   3.850 -0.7869 -1.8097  1.3483
19244TIP3   OH279222   5.913   3.234   5.540 -0.0598 -0.0488  1.1367
19244TIP3    H179223   5.972   3.205   5.609 -0.3535  0.4576  1.5978
19244TIP3    H279224   5.834   3.262   5.586 -0.4419 -0.1723  0.5633
19245TIP3   OH279225   0.091   3.485   5.199  0.1428  0.7198  0.4655
19245TIP3    H179226   0.056   3.554   5.143 -2.6410 -0.5099  0.5924
19245TIP3    H279227   0.050   3.500   5.284 -1.3250 -1.6524  0.2383
19246TIP3   OH279228   5.011   4.815   5.225 -0.0631 -0.6314 -0.0775
19246TIP3    H179229   5.044   4.741   5.173 -1.4887 -1.6208  0.3862
19246TIP3    H279230   5.068   4.888   5.201 -0.4133 -1.1544 -2.7296
19247TIP3   OH279231   5.594   3.358   6.018  0.1812  0.0798 -0.4058
19247TIP3    H179232   5.596   3.288   6.083 -1.5943  0.1846 -0.2071
19247TIP3    H279233   5.671   3.411   6.037  0.1513 -0.3840  1.0659
19248TIP3   OH279234   6.907   4.368   4.132 -0.9706  0.3036  0.7725
19248TIP3    H179235   6.939   4.409   4.212  0.4596  0.7967 -0.0190
19248TIP3    H279236   6.823   4.410   4.114 -0.1373  1.9613  0.6868
19249TIP3   OH279237   0.038   3.898   4.498  0.1145 -0.7820 -0.5455
19249TIP3    H179238  -0.006   3.967   4.448  0.1854 -0.2836  0.0780
19249TIP3    H279239   0.089   3.945   4.563 -1.1253 -1.4772  0.9576
19250TIP3   OH279240   6.361   3.081   5.658 -0.4376 -0.4157 -0.3570
19250TIP3    H179241   6.421   3.063   5.586 -0.7294  0.7590 -0.9064
19250TIP3    H279242   6.305   3.003   5.662  0.4105 -1.0401 -0.5581
19251TIP3   OH279243   5.960   5.291   3.491 -0.5921 -0.3229 -0.4239
19251TIP3    H179244   5.967   5.223   3.559 -0.8811 -0.9867 -1.0541
19251TIP3    H279245   6.048   5.329   3.487 -0.1752 -1.2945 -0.7201
19252TIP3   OH279246   0.137   3.791   5.482 -0.0031 -0.1003  0.9733
19252TIP3    H179247   0.209   3.729   5.494  0.6517  0.1971 -1.2153
19252TIP3    H279248   0.151   3.858   5.549  2.1596  0.3036  0.1381
19253TIP3   OH279249   6.190   4.076   6.351  0.3715  0.1474  0.5297
19253TIP3    H179250   6.200   4.154   6.297  2.3584  0.5924  1.5059
19253TIP3    H279251   6.263   4.020   6.326  0.1217 -0.5229  1.2892
19254TIP3   OH279252   7.094   4.648   3.791 -0.1571  0.4708 -0.0630
19254TIP3    H179253   7.159   4.628   3.723 -1.3110 -1.1948 -0.7011
19254TIP3    H279254   7.039   4.570   3.796 -1.8574  1.6879  0.7677
19255TIP3   OH279255   3.003   4.874   5.565 -0.1385 -0.4276 -0.0325
19255TIP3    H179256   2.966   4.833   5.486 -0.9119  1.1239 -0.4855
19255TIP3    H279257   2.935   4.934   5.595  0.8339  0.2283  0.8674
19256TIP3   OH279258   0.322   3.842   6.039  0.0730  0.2267 -0.0874
19256TIP3    H179259   0.285   3.764   6.082 -1.2124  0.3217 -0.9867
19256TIP3    H279260   0.401   3.810   5.995  0.2850 -0.2891  0.6546
19257TIP3   OH279261   6.782   5.155   5.061 -0.3038  0.5576 -0.2629
19257TIP3    H179262   6.734   5.072   5.065  0.2160  0.2561 -0.2069
19257TIP3    H279263   6.741   5.202   4.988  0.1488 -0.2301 -1.0355
19258TIP3   OH279264   7.112   5.802   2.590  0.0972 -1.2675  0.3748
19258TIP3    H179265   7.095   5.783   2.498  1.2282 -1.4655  0.2033
19258TIP3    H279266   7.025   5.820   2.627 -0.1450  1.5196 -1.3418
19259TIP3   OH279267   5.915   4.311   3.899  0.1109  0.1108  0.6860
19259TIP3    H179268   5.858   4.297   3.824  0.2233  1.1973  0.3843
19259TIP3    H279269   5.997   4.269   3.876  0.2066  0.6050  0.1122
19260TIP3   OH279270   3.033   6.996   4.073  0.0102  0.0429 -0.1306
19260TIP3    H179271   2.949   6.949   4.078  0.0071 -0.0861 -1.2205
19260TIP3    H279272   3.060   7.008   4.164 -1.9968  1.5276  0.3059
19261TIP3   OH279273   5.926   4.732   5.648  0.3103 -0.7291  0.0078
19261TIP3    H179274   5.961   4.652   5.687  2.3854 -0.0818 -0.4785
19261TIP3    H279275   5.983   4.749   5.573  1.5473  2.6592  1.6468
19262TIP3   OH279276   0.170   6.800   5.805  0.1332  0.3349  0.1160
19262TIP3    H179277   0.245   6.783   5.862 -0.4877 -0.1584  0.8032
19262TIP3    H279278   0.115   6.860   5.856 -1.2234 -1.4095  0.7278
19263TIP3   OH279279   3.218   4.570   3.523 -0.1492 -0.0720  0.4053
19263TIP3    H179280   3.260   4.504   3.579  0.2822 -0.1516 -0.0085
19263TIP3    H279281   3.230   4.652   3.570  2.5136  0.2625 -0.7895
19264TIP3   OH279282   0.312   4.868   2.993  0.5047 -0.1035  0.1126
19264TIP3    H179283   0.379   4.936   2.997  0.8057 -0.4303  0.6656
19264TIP3    H279284   0.230   4.915   3.005  0.6483  0.2726 -0.3541
19265TIP3   OH279285   5.277   4.705   5.712  0.4448  0.2370  0.5323
19265TIP3    H179286   5.310   4.763   5.643  0.6083  1.1414  1.3678
19265TIP3    H279287   5.200   4.663   5.673 -0.3002  1.8035  0.2883
19266TIP3   OH279288   7.191   2.439   5.395  0.3969 -0.0650 -0.5234
19266TIP3    H179289   7.119   2.492   5.429  1.3212  0.4759  0.6324
19266TIP3    H279290   7.153   2.353   5.379 -0.4307  0.1394  0.3441
19267TIP3   OH279291   1.137   3.189   3.762 -0.0126 -0.2317 -0.6627
19267TIP3    H179292   1.228   3.158   3.769 -0.0396  0.2352  2.5004
19267TIP3    H279293   1.118   3.226   3.848 -2.5163  1.6452 -1.9758
19268TIP3   OH279294   6.721   3.203   5.619  0.0648 -0.2375  0.3602
19268TIP3    H179295   6.717   3.171   5.709  0.3844 -0.2515  0.3682
19268TIP3    H279296   6.811   3.234   5.608 -0.1208  0.2467  0.2101
19269TIP3   OH279297   7.314   2.842   3.877  0.2652 -0.2514  0.4123
19269TIP3    H179298   7.254   2.863   3.949 -0.1565  1.0301 -0.2883
19269TIP3    H279299   7.306   2.916   3.817  1.3127 -0.8608 -0.5055
19270TIP3   OH279300   1.704   4.788   2.172 -0.0894 -0.1951  0.0539
19270TIP3    H179301   1.772   4.722   2.186 -0.7018 -0.5703  1.3197
19270TIP3    H279302   1.622   4.738   2.173 -0.5609  0.5717  1.0825
19271TIP3   OH279303   6.193   4.898   3.210 -0.7300  0.3460 -0.0664
19271TIP3    H179304   6.129   4.828   3.203 -0.5657  0.2393 -0.5153
19271TIP3    H279305   6.257   4.867   3.274 -0.8832  0.2610  0.0429
19272TIP3   OH279306   7.288   3.396   1.793 -0.0951  0.2094  0.6770
19272TIP3    H179307   7.276   3.409   1.887 -1.3358 -0.4860  0.6301
19272TIP3    H279308   7.216   3.338   1.767 -0.5074  1.4079 -0.9426
19273TIP3   OH279309   4.716   6.992   3.393 -0.2667 -0.3992  0.5380
19273TIP3    H179310   4.662   6.987   3.315  0.2589  2.6559 -0.1108
19273TIP3    H279311   4.656   6.972   3.465 -1.6207  0.1989 -0.3877
19274TIP3   OH279312   5.514   3.930   3.272  0.4054  0.3984 -1.3309
19274TIP3    H179313   5.572   3.898   3.341 -0.6261 -0.4159 -0.8361
19274TIP3    H279314   5.554   4.012   3.243  0.5992  0.9782  0.5420
19275TIP3   OH279315   6.535   5.451   5.423  0.2004  0.1315 -0.1706
19275TIP3    H179316   6.573   5.406   5.499 -2.7139 -2.4993 -0.1580
19275TIP3    H279317   6.486   5.524   5.461  1.3829  0.7787  0.1642
19276TIP3   OH279318   7.293   5.329   4.771 -0.2024 -0.2539 -0.4350
19276TIP3    H179319   7.359   5.314   4.839 -1.1070 -1.7909  0.1179
19276TIP3    H279320   7.210   5.328   4.818 -0.6958  0.7491 -1.2726
19277TIP3   OH279321   6.050   3.822   4.176 -0.5700 -0.3452 -0.2924
19277TIP3    H179322   6.099   3.740   4.168  0.8305  0.3861  0.6373
19277TIP3    H279323   6.095   3.883   4.117 -1.0399  0.0118 -0.2823
19278TIP3   OH279324   6.662   4.780   5.936  0.4363  0.4028 -0.1202
19278TIP3    H179325   6.722   4.707   5.953 -1.2848 -1.0988 -0.3751
19278TIP3    H279326   6.622   4.758   5.852 -0.8715  1.1143  0.3150
19279TIP3   OH279327   6.449   3.697   4.759  0.0210  0.7040 -0.0345
19279TIP3    H179328   6.521   3.663   4.812  0.5082  0.6231 -0.7475
19279TIP3    H279329   6.465   3.791   4.753 -0.1990  0.7587  0.2068
19280TIP3   OH279330   0.923   5.003   5.110 -0.1878 -0.7126  0.1037
19280TIP3    H179331   0.937   5.040   5.197  0.5186 -1.3409  0.2655
19280TIP3    H279332   1.011   4.978   5.080 -0.1076  1.5238 -1.7233
19281TIP3   OH279333   7.338   5.314   3.980 -0.9820  0.2984  0.1874
19281TIP3    H179334   7.244   5.302   3.998 -0.1932 -2.9878  2.7477
19281TIP3    H279335   7.357   5.403   4.009 -3.1897  0.7988  0.2054
19282TIP3   OH279336   5.349   4.686   4.923  0.3553  0.2328 -0.2089
19282TIP3    H179337   5.266   4.638   4.917  1.1586 -1.1333 -0.4881
19282TIP3    H279338   5.357   4.730   4.838 -0.1803  0.5368 -0.1074
19283TIP3   OH279339   5.364   5.977   3.449 -0.1895 -0.3050  0.2594
19283TIP3    H179340   5.436   6.025   3.488 -1.9207  2.2319  0.4412
19283TIP3    H279341   5.398   5.948   3.364  1.2235  0.3151  0.5956
19284TIP3   OH279342   6.173   5.755   5.621  0.0365  0.2700 -0.6193
19284TIP3    H179343   6.251   5.810   5.630 -0.5936  1.2096 -0.8598
19284TIP3    H279344   6.207   5.666   5.618  1.0410  0.6216  0.1237
19285TIP3   OH279345   7.227   6.882   4.686  0.2235 -0.0053  0.3615
19285TIP3    H179346   7.174   6.823   4.634  1.9406 -0.8411 -0.5047
19285TIP3    H279347   7.176   6.897   4.766 -2.2014  0.9065 -1.3194
19286TIP3   OH279348   6.226   4.308   5.427 -0.0951 -0.1170  0.5070
19286TIP3    H179349   6.302   4.337   5.377 -0.8297 -0.1119 -0.6275
19286TIP3    H279350   6.221   4.368   5.501  1.0535 -0.1795  0.6421
19287TIP3   OH279351   5.539   6.568   1.610 -1.1416  0.3677  0.4973
19287TIP3    H179352   5.581   6.492   1.570  0.9120  1.3092  0.8121
19287TIP3    H279353   5.453   6.536   1.637 -0.8913 -1.4347 -0.7331
19288TIP3   OH279354   4.817   4.898   4.965 -0.1664  0.0278  0.1613
19288TIP3    H179355   4.837   4.860   5.050 -1.1176  1.6816  1.1524
19288TIP3    H279356   4.754   4.837   4.926  2.8157 -2.5359 -0.8508
19289TIP3   OH279357   5.806   5.006   5.769  0.4403  0.5381  0.3227
19289TIP3    H179358   5.860   4.942   5.722 -0.8009 -0.2500 -0.0623
19289TIP3    H279359   5.756   5.050   5.700 -0.5540  0.1711  0.8029
19290TIP3   OH279360   1.457   2.677   4.937  0.1608  0.0281  0.2047
19290TIP3    H179361   1.393   2.617   4.897  0.7715  0.3978 -1.3808
19290TIP3    H279362   1.467   2.747   4.872  0.6133  1.0406  1.3699
19291TIP3   OH279363   5.896   4.220   4.548  0.8003  0.3744  0.4642
19291TIP3    H179364   5.851   4.302   4.527 -0.9361 -0.9976 -1.4070
19291TIP3    H279365   5.986   4.246   4.566  0.2186  2.7189  0.1769
19292TIP3   OH279366   4.917   7.047   3.831 -0.2083 -0.0093  0.1535
19292TIP3    H179367   4.883   7.124   3.876 -0.5868  1.6104 -2.7402
19292TIP3    H279368   4.996   7.024   3.879 -3.8058 -2.2202  5.3963
19293TIP3   OH279369   4.254   6.198   4.473 -0.1534  0.2045 -0.0372
19293TIP3    H179370   4.243   6.232   4.384  1.5737  1.2108  0.1013
19293TIP3    H279371   4.346   6.216   4.494 -0.2578 -1.0192  1.5399
19294TIP3   OH279372   5.678   2.467   5.059  0.0398  0.5771 -0.1376
19294TIP3    H179373   5.678   2.561   5.039  1.6528  0.6003 -0.0967
19294TIP3    H279374   5.737   2.459   5.135 -1.3038 -0.2681  0.8349
19295TIP3   OH279375   0.294   1.840   5.451 -0.0326  0.2455  0.2338
19295TIP3    H179376   0.240   1.845   5.530 -0.0421  2.0349  0.1437
19295TIP3    H279377   0.381   1.815   5.484  0.0566  1.3460  0.8722
19296TIP3   OH279378   2.687   4.171   2.827 -0.0856 -0.1842 -0.6456
19296TIP3    H179379   2.641   4.128   2.899 -0.9649 -0.2006 -1.2241
19296TIP3    H279380   2.673   4.115   2.751 -1.1858  1.0594 -1.3912
19297TIP3   OH279381   1.396   4.339   3.714  0.1984 -0.6965  0.6072
19297TIP3    H179382   1.473   4.387   3.746 -0.2818  1.2526 -1.0692
19297TIP3    H279383   1.330   4.350   3.783  0.7705 -0.7192  1.1629
19298TIP3   OH279384   2.642   1.439   1.812 -0.4679  0.4302  0.2891
19298TIP3    H179385   2.588   1.459   1.736 -1.5687  0.7945  1.1511
19298TIP3    H279386   2.704   1.513   1.818 -0.3954  0.4128 -0.2245
19299TIP3   OH279387   1.113   4.861   1.295  0.0641 -0.3779 -0.4008
19299TIP3    H179388   1.190   4.905   1.332  0.5712 -0.0388 -1.8080
19299TIP3    H279389   1.071   4.819   1.370  0.9156  0.4935  0.5880
19300TIP3   OH279390   0.986   4.643   4.325 -0.4390 -0.2883 -0.2151
19300TIP3    H179391   1.011   4.726   4.284 -0.4435  1.5127  3.2382
19300TIP3    H279392   0.891   4.650   4.337 -0.2680 -0.1828  1.2387
19301TIP3   OH279393   6.379   2.464   3.058 -0.4847  0.0091 -0.1885
19301TIP3    H179394   6.467   2.455   3.096 -0.4009  1.0148 -0.1401
19301TIP3    H279395   6.336   2.529   3.113 -1.1216 -0.1805 -0.4643
19302TIP3   OH279396   5.234   3.401   5.587 -0.2301 -0.3352  0.0440
19302TIP3    H179397   5.144   3.404   5.617 -0.0518 -0.5123  0.6005
19302TIP3    H279398   5.272   3.326   5.632 -0.7314 -2.3762 -2.7981
19303TIP3   OH279399   6.714   4.919   4.806  0.2966 -0.1426 -0.0589
19303TIP3    H179400   6.738   4.862   4.879 -0.9746 -0.9217 -0.2354
19303TIP3    H279401   6.628   4.886   4.777 -0.4222  1.8043 -0.2091
19304TIP3   OH279402   7.177   3.705   4.589  0.1028 -0.6891  0.4735
19304TIP3    H179403   7.267   3.735   4.575 -0.1775 -0.4746 -0.8587
19304TIP3    H279404   7.123   3.782   4.572 -0.6230 -1.9213 -3.0741
19305TIP3   OH279405   0.504   4.819   4.387  0.3197  0.4431 -0.3037
19305TIP3    H179406   0.420   4.784   4.416  0.0129  1.5035  0.1349
19305TIP3    H279407   0.569   4.776   4.442  0.0833 -0.4946 -0.7503
19306TIP3   OH279408   2.189   6.462   5.226  0.3536 -0.3701 -0.3083
19306TIP3    H179409   2.169   6.533   5.288 -0.2303  0.0762 -0.9937
19306TIP3    H279410   2.262   6.415   5.266  0.9671  0.8274 -0.0122
19307TIP3   OH279411   0.746   4.477   2.082 -0.6862 -0.1044 -0.0069
19307TIP3    H179412   0.705   4.479   1.995  1.1672  0.8296 -0.8889
19307TIP3    H279413   0.828   4.429   2.068 -1.4021 -1.9142  1.7206
19308TIP3   OH279414   0.030   5.382   5.359 -0.4730  0.1516  0.0254
19308TIP3    H179415  -0.014   5.459   5.323  0.4127  1.0449  0.8343
19308TIP3    H279416   0.065   5.412   5.443 -0.1486 -1.1490  0.3599
19309TIP3   OH279417   1.308   6.518   5.819 -0.5481 -0.3226  0.7249
19309TIP3    H179418   1.404   6.520   5.826 -0.5707  2.6917  0.7706
19309TIP3    H279419   1.279   6.478   5.900  0.5649  1.9249  2.2720
19310TIP3   OH279420   6.330   6.645   4.338  0.6261 -0.3128 -0.0390
19310TIP3    H179421   6.289   6.717   4.289  0.8954 -0.5138 -0.5667
19310TIP3    H279422   6.359   6.685   4.420  2.4628  0.6232 -1.1247
19311TIP3   OH279423   0.660   4.553   3.891 -0.0555 -0.6524 -0.0678
19311TIP3    H179424   0.574   4.546   3.851  0.4651  0.5040 -1.4381
19311TIP3    H279425   0.643   4.575   3.983 -1.2284 -1.5683 -0.0680
19312TIP3   OH279426   2.372   0.729   2.950  0.1233 -0.3860 -0.0764
19312TIP3    H179427   2.324   0.736   2.867  0.1016  2.5005  0.1328
19312TIP3    H279428   2.424   0.808   2.954  2.0940 -1.7267  1.5006
19313TIP3   OH279429   2.093   7.001   4.382 -0.3362 -0.4601 -0.2674
19313TIP3    H179430   2.137   6.963   4.306  1.2308  0.5278  0.1306
19313TIP3    H279431   2.000   6.993   4.362  0.0465 -1.0190 -1.8897
19314TIP3   OH279432   2.951   6.504   5.730  0.2502 -0.1661  0.1951
19314TIP3    H179433   3.026   6.480   5.784 -0.8426 -1.4777  1.1541
19314TIP3    H279434   2.875   6.485   5.785 -0.8190  0.2839 -1.1069
19315TIP3   OH279435   2.101   7.193   5.009 -0.0232 -0.1568 -0.9645
19315TIP3    H179436   2.089   7.288   5.010 -1.1158 -0.3037  0.1350
19315TIP3    H279437   2.060   7.164   4.927 -1.4409  0.1018 -0.3610
19316TIP3   OH279438   1.585   1.410   5.229 -0.6395  0.0950  0.4006
19316TIP3    H179439   1.654   1.463   5.188 -0.2684  0.4229  1.4379
19316TIP3    H279440   1.517   1.473   5.252 -0.7407 -0.0541  0.5107
19317TIP3   OH279441   0.887   7.153   4.181  0.1466  0.1538 -0.1933
19317TIP3    H179442   0.823   7.221   4.161  0.9999  1.0331  0.0608
19317TIP3    H279443   0.857   7.077   4.131 -2.1182 -0.0023  1.3542
19318TIP3   OH279444   7.315   5.942   5.770 -0.5474 -0.0267  0.0168
19318TIP3    H179445   7.322   5.922   5.864  2.5703 -1.3036 -0.4261
19318TIP3    H279446   7.307   6.037   5.766  0.1363  0.1098  1.5665
19319TIP3   OH279447   1.935   5.759   5.806  0.3104  0.3823  0.3902
19319TIP3    H179448   1.976   5.833   5.761  2.6256 -1.7548 -1.1519
19319TIP3    H279449   1.915   5.793   5.894  1.6311  2.7248 -0.1745
19320TIP3   OH279450   1.268   7.198   3.486 -0.3914  0.0988 -0.2108
19320TIP3    H179451   1.259   7.293   3.497 -0.0371  0.1856 -0.6738
19320TIP3    H279452   1.178   7.165   3.492 -0.5241  0.4721 -0.1221
19321TIP3   OH279453   1.056   0.357   3.250  0.5715  0.1641 -0.2263
19321TIP3    H179454   1.042   0.381   3.342  0.4421  1.3936 -0.5504
19321TIP3    H279455   0.975   0.384   3.206  0.8504  0.0866 -0.7890
19322TIP3   OH279456   2.698   0.073   3.733  0.0480 -0.2794  0.2882
19322TIP3    H179457   2.684  -0.021   3.727  1.6926 -0.5369  0.4090
19322TIP3    H279458   2.652   0.099   3.813 -0.6631 -0.9256  0.0918
19323TIP3   OH279459   2.347   4.939   4.407  0.2428  0.0115 -0.0351
19323TIP3    H179460   2.350   5.034   4.411 -1.2077  0.1442 -1.5760
19323TIP3    H279461   2.254   4.919   4.391  0.4480 -1.6751  0.7589
19324TIP3   OH279462   3.526   5.898   4.800 -0.3153 -0.0074  0.1730
19324TIP3    H179463   3.554   5.833   4.865 -1.7235  2.1896  3.1114
19324TIP3    H279464   3.483   5.966   4.852 -1.9124  1.6301 -3.1596
19325TIP3   OH279465   6.728   4.325   6.035  0.3976  0.0879 -0.5032
19325TIP3    H179466   6.668   4.344   5.963  0.0431  0.5179 -0.0948
19325TIP3    H279467   6.718   4.231   6.049 -1.2020  0.3811  0.4616
19326TIP3   OH279468   6.939   4.813   3.239  0.4956 -0.4426 -0.2544
19326TIP3    H179469   6.912   4.782   3.153  0.9046 -2.1641  0.2145
19326TIP3    H279470   6.892   4.756   3.301  1.5002 -0.3396  0.6217
19327TIP3   OH279471   0.096   7.098   3.310 -0.0999 -0.8722  0.0165
19327TIP3    H179472   0.106   7.010   3.345  0.2223 -1.6847 -2.0390
19327TIP3    H279473   0.174   7.112   3.257 -0.5891  0.3027 -0.4251
19328TIP3   OH279474   2.124   0.047   5.621 -0.6560  0.3719 -0.3043
19328TIP3    H179475   2.144  -0.044   5.597 -0.8706 -0.3805  2.2010
19328TIP3    H279476   2.117   0.045   5.716  2.3875  3.6672  0.0507
19329TIP3   OH279477   6.916   5.049   3.353 -0.4915  0.5382 -0.0478
19329TIP3    H179478   6.986   5.067   3.416 -0.3705  2.9334 -0.8056
19329TIP3    H279479   6.947   4.971   3.305  0.7823  0.4653  0.8591
19330TIP3   OH279480   6.553   6.074   3.633 -0.0946  0.0042  0.3425
19330TIP3    H179481   6.562   6.164   3.664 -1.6252  0.5370 -0.7182
19330TIP3    H279482   6.630   6.059   3.579 -0.3502  1.0356 -0.3137
19331TIP3   OH279483   2.298   1.277   5.658 -0.0700 -0.1241  0.0051
19331TIP3    H179484   2.355   1.294   5.734 -0.8635  0.0144  0.5747
19331TIP3    H279485   2.227   1.223   5.693 -0.4220 -0.0924 -0.6527
19332TIP3   OH279486   7.266   5.610   4.951 -0.1591  0.1766  0.1809
19332TIP3    H179487   7.337   5.651   4.999 -0.8416  1.3174  0.2464
19332TIP3    H279488   7.258   5.662   4.871 -0.2979 -0.5189 -0.2587
19333TIP3   OH279489   1.121   6.184   5.195 -0.0967  0.1202 -0.4156
19333TIP3    H179490   1.038   6.159   5.155  0.3567 -0.3253 -1.0915
19333TIP3    H279491   1.100   6.260   5.249 -1.2676 -1.0536  0.7878
19334TIP3   OH279492   0.779   5.775   3.957 -0.3302 -0.0314  0.4424
19334TIP3    H179493   0.688   5.755   3.934  0.4904  0.0102 -2.9689
19334TIP3    H279494   0.822   5.690   3.959 -0.2739  0.0131  1.4209
19335TIP3   OH279495   1.255   0.130   3.557  0.6005 -0.0443 -0.4465
19335TIP3    H179496   1.302   0.197   3.508 -1.8741  2.3994  0.3594
19335TIP3    H279497   1.204   0.179   3.622 -0.5132 -2.7859  0.8405
19336TIP3   OH279498   2.562   4.526   5.189 -0.5834 -0.2804 -0.3369
19336TIP3    H179499   2.538   4.605   5.141 -0.1037  0.2148  0.2212
19336TIP3    H279500   2.482   4.501   5.236 -1.4666 -1.5877 -2.4838
19337TIP3   OH279501   1.129   6.534   4.625  0.0613 -0.7042 -0.1184
19337TIP3    H179502   1.096   6.478   4.695  0.8157 -0.8868  0.0879
19337TIP3    H279503   1.130   6.622   4.663 -0.1923 -0.6992 -0.1247
19338TIP3   OH279504   7.090   0.303   4.902  0.0804  0.2853  0.1453
19338TIP3    H179505   7.083   0.367   4.973  0.3517 -0.3310  0.7296
19338TIP3    H279506   7.105   0.219   4.946 -3.9008 -0.8250 -0.4313
19339TIP3   OH279507   2.696   6.361   5.482  0.0921 -0.0065  0.2422
19339TIP3    H179508   2.634   6.418   5.436  0.2426  0.2573  0.3587
19339TIP3    H279509   2.688   6.386   5.574  0.3838  0.0485  0.2555
19340TIP3   OH279510   1.745   0.721   4.363 -0.5047  0.3283  0.4847
19340TIP3    H179511   1.675   0.770   4.407 -0.2457 -0.4466  1.8037
19340TIP3    H279512   1.823   0.774   4.376 -1.0871  1.8960 -2.2194
19341TIP3   OH279513   0.575   0.332   5.480  0.4595  0.6441 -0.1413
19341TIP3    H179514   0.500   0.368   5.528  1.1703 -0.2644  1.6735
19341TIP3    H279515   0.549   0.337   5.388 -0.8809  2.5184  0.3055
19342TIP3   OH279516   3.968   6.873   5.603  0.1170  0.1415  0.6093
19342TIP3    H179517   3.911   6.802   5.571  0.7082  0.0436 -0.2459
19342TIP3    H279518   3.964   6.866   5.699 -1.3894  0.2017  0.5611
19343TIP3   OH279519   0.616   6.874   5.001 -0.1718  0.1985  0.1698
19343TIP3    H179520   0.670   6.879   4.922  0.8571  0.3765  0.8854
19343TIP3    H279521   0.584   6.963   5.014  1.2227  0.5715  1.0492
19344TIP3   OH279522   2.814   7.198   5.536 -0.2771  0.6697 -0.6369
19344TIP3    H179523   2.771   7.176   5.453 -0.1755  0.9144 -0.7567
19344TIP3    H279524   2.748   7.247   5.585 -1.1426 -1.4708  0.3948
19345TIP3   OH279525   1.970   5.963   4.738 -0.1977 -0.0666  0.4657
19345TIP3    H179526   2.025   5.919   4.672 -2.3189 -0.6224 -0.9801
19345TIP3    H279527   1.980   5.910   4.817  0.8608 -0.4995  0.0579
19346TIP3   OH279528   7.010   5.930   5.717  0.8575 -0.1415  0.8319
19346TIP3    H179529   6.973   5.993   5.779 -0.1274 -2.2548  2.4614
19346TIP3    H279530   7.102   5.953   5.711  0.3648  1.9252  0.7924
19347TIP3   OH279531   5.894   1.223   6.003  0.2629 -0.4218 -0.4046
19347TIP3    H179532   5.973   1.250   6.049 -1.2458  1.3799  1.2309
19347TIP3    H279533   5.878   1.292   5.938 -0.4377 -0.3200 -0.1327
19348TIP3   OH279534   0.648   1.194   3.217  0.0642  0.2945 -0.4241
19348TIP3    H179535   0.557   1.220   3.234 -0.1615  1.2276 -2.8016
19348TIP3    H279536   0.692   1.205   3.301 -1.4617  2.3290  0.1660
19349TIP3   OH279537   0.527   3.814   4.972  0.5037  0.2413 -0.3719
19349TIP3    H179538   0.621   3.824   4.991  0.6499  1.4448 -1.6593
19349TIP3    H279539   0.494   3.904   4.970 -0.8384 -0.2059  0.8027
19350TIP3   OH279540   0.754   4.740   4.784 -0.4971  0.1216 -0.0066
19350TIP3    H179541   0.778   4.652   4.813 -1.8616  0.3802  2.0611
19350TIP3    H279542   0.822   4.765   4.722 -1.0682 -3.0843 -2.0550
19351TIP3   OH279543   1.038   7.009   5.275  0.7208  0.0438 -0.5655
19351TIP3    H179544   1.024   7.100   5.249 -1.5369  0.1903  0.9687
19351TIP3    H279545   0.991   6.958   5.209  1.6555 -0.0027 -1.2036
19352TIP3   OH279546   0.261   0.023   4.102 -0.4539 -0.7154 -0.0585
19352TIP3    H179547   0.206   0.077   4.046 -0.5700  0.9112  1.5802
19352TIP3    H279548   0.213  -0.060   4.109 -1.5981 -0.0942 -0.4395
19353TIP3   OH279549   3.165   5.997   5.216 -0.0227 -0.1617 -0.0685
19353TIP3    H179550   3.251   5.978   5.252  0.1955 -1.4432 -1.2139
19353TIP3    H279551   3.172   6.086   5.182  0.6515 -0.0274  0.4214
19354TIP3   OH279552   0.283   5.722   5.460  0.1580  0.4176  0.2909
19354TIP3    H179553   0.262   5.633   5.432 -0.1953  0.6068 -0.0510
19354TIP3    H279554   0.220   5.777   5.414 -0.3821  0.7492  1.3978
19355TIP3   OH279555   2.633   6.458   5.734 -0.9197 -0.1177 -0.0434
19355TIP3    H179556   2.555   6.469   5.788 -1.3246 -0.2834 -0.5937
19355TIP3    H279557   2.688   6.397   5.783 -0.6901  0.7750  0.8212
19356TIP3   OH279558   5.855   5.730   5.301  0.0695 -0.1528 -0.0099
19356TIP3    H179559   5.914   5.800   5.274  0.2391 -0.2960 -0.0125
19356TIP3    H279560   5.860   5.666   5.231  0.1422 -0.3045  0.1328
19357TIP3   OH279561   6.739   4.040   5.655 -0.2846 -0.5098 -0.1616
19357TIP3    H179562   6.644   4.044   5.639 -0.8011 -3.2834  1.8385
19357TIP3    H279563   6.768   3.960   5.611  1.1706  0.4027 -0.8878
19358TIP3   OH279564   6.452   4.904   5.059 -0.3135 -0.2800 -0.4372
19358TIP3    H179565   6.538   4.874   5.088  0.5231  0.4110 -2.1746
19358TIP3    H279566   6.418   4.831   5.006 -0.7635 -0.5002  0.1410
19359TIP3   OH279567   1.636   7.273   4.385 -0.2967  0.1754  0.0306
19359TIP3    H179568   1.586   7.312   4.313 -1.5770 -0.1402  0.7356
19359TIP3    H279569   1.583   7.199   4.413  0.9585 -0.6337  0.2897
19360TIP3   OH279570   7.245   1.144   4.235 -0.7759  0.6929  0.2275
19360TIP3    H179571   7.308   1.135   4.307 -1.9820  2.0113  1.4722
19360TIP3    H279572   7.161   1.122   4.274 -1.1124 -1.0586 -1.4305
19361TIP3   OH279573   1.420   0.054   5.276 -0.4039 -0.0765  0.0217
19361TIP3    H179574   1.481   0.108   5.227 -4.4799  1.1729 -3.9380
19361TIP3    H279575   1.431  -0.034   5.240 -2.5981  0.6259 -2.4844
19362TIP3   OH279576   2.775   5.402   5.813 -0.3742 -0.2719 -0.3647
19362TIP3    H179577   2.846   5.338   5.804  0.2285  0.6493 -2.4031
19362TIP3    H279578   2.764   5.412   5.907  0.5767 -2.2137 -0.0160
19363TIP3   OH279579   0.957   0.058   3.641  0.0433 -0.3239 -0.0726
19363TIP3    H179580   0.991   0.030   3.556 -0.9017  0.7941 -0.8327
19363TIP3    H279581   1.006   0.137   3.663 -1.6342  0.9764 -0.9097
19364TIP3   OH279582   0.599   0.969   5.738  0.8418 -0.5052 -0.2165
19364TIP3    H179583   0.661   1.040   5.722  0.0941  0.4346  0.9788
19364TIP3    H279584   0.513   1.009   5.725  0.4107 -1.1680  0.5785
19365TIP3   OH279585   1.690   7.041   4.620  0.3893 -0.3080  0.7860
19365TIP3    H179586   1.600   7.021   4.594  0.0981  1.0378  0.7091
19365TIP3    H279587   1.681   7.091   4.700  1.1701 -1.8919  1.8862
19366TIP3   OH279588   0.137   0.931   2.652 -0.0771  0.3189  0.2761
19366TIP3    H179589   0.062   0.877   2.677  0.2596 -0.5486 -0.5538
19366TIP3    H279590   0.185   0.945   2.733  0.7681 -2.1066  0.2284
19367TIP3   OH279591   7.253   0.007   5.466  0.3109  0.4397 -0.4787
19367TIP3    H179592   7.195  -0.044   5.523  0.6723 -2.4699 -2.5733
19367TIP3    H279593   7.334   0.017   5.516 -1.4710  3.3986  1.9548
19368TIP3   OH279594   7.096   5.175   4.047  0.8516  0.5247  0.2948
19368TIP3    H179595   7.055   5.211   4.125  2.1418  1.0763  0.7400
19368TIP3    H279596   7.147   5.100   4.079  0.5757  0.1425 -0.1666
19369TIP3   OH279597   4.391   0.049   5.865 -0.3701  0.0914  0.2944
19369TIP3    H179598   4.349   0.133   5.884  3.2622  1.9070  0.6187
19369TIP3    H279599   4.382  -0.001   5.946 -1.7907  0.4899  0.3926
19370TIP3   OH279600   7.241   4.726   4.693  0.1396  0.2475 -0.3061
19370TIP3    H179601   7.154   4.740   4.656 -0.1952 -1.3293 -0.1079
19370TIP3    H279602   7.260   4.808   4.740 -1.0492  0.7471 -0.6803
19371TIP3   OH279603   0.924   6.662   5.303 -0.2952 -0.2127 -0.6772
19371TIP3    H179604   1.013   6.694   5.314  0.3505 -1.6337 -1.6687
19371TIP3    H279605   0.896   6.636   5.391 -0.5874  2.3842  0.0253
19372TIP3   OH279606   2.455   0.730   3.602 -0.1030 -0.0165 -0.1231
19372TIP3    H179607   2.402   0.716   3.680  1.5465 -2.2580  0.6434
19372TIP3    H279608   2.500   0.813   3.618 -1.9692  0.9889  0.0014
19373TIP3   OH279609   6.088   6.503   2.697 -0.2060 -0.0314 -0.4905
19373TIP3    H179610   6.083   6.598   2.711  0.8507 -0.0335 -0.0920
19373TIP3    H279611   6.033   6.465   2.765  0.3372  0.2340  0.0913
19374TIP3   OH279612   1.490   5.450   4.422 -0.6387 -0.3800  0.1199
19374TIP3    H179613   1.426   5.468   4.353  2.4028  3.9732 -1.8035
19374TIP3    H279614   1.458   5.499   4.498  0.2471  1.6774 -0.7952
19375TIP3   OH279615   7.074   4.081   4.980  1.1901  0.1065 -0.0787
19375TIP3    H179616   7.163   4.057   5.006  1.1427  0.8459  0.8173
19375TIP3    H279617   7.022   4.063   5.058  0.8956  1.5764  0.0724
19376TIP3   OH279618   6.889   6.382   4.376 -0.2687 -0.0148 -0.3506
19376TIP3    H179619   6.873   6.354   4.286  0.3255  1.9255 -1.0796
19376TIP3    H279620   6.819   6.444   4.394  0.8263  1.1942 -0.2124
19377TIP3   OH279621   0.431   6.503   5.832  0.2613 -0.1172  0.5516
19377TIP3    H179622   0.422   6.579   5.889  1.4891 -0.2274  0.9078
19377TIP3    H279623   0.394   6.531   5.748 -1.3196  0.1322  1.3180
19378TIP3   OH279624   1.350   5.872   4.048  0.0494  0.2723  1.0118
19378TIP3    H179625   1.330   5.784   4.017  1.6914  0.3084 -0.1665
19378TIP3    H279626   1.293   5.929   3.996  2.3251  0.2752 -1.5799
19379TIP3   OH279627   6.964   3.893   4.258 -0.1929  0.0423  0.0212
19379TIP3    H179628   6.989   3.970   4.207 -0.0724 -0.2283 -0.3314
19379TIP3    H279629   6.959   3.823   4.193 -0.9023 -0.1158  0.2441
19380TIP3   OH279630   6.469   1.235   5.636  0.0657 -0.4075 -0.1972
19380TIP3    H179631   6.402   1.169   5.656  1.4895 -1.6848  0.4915
19380TIP3    H279632   6.435   1.281   5.559 -1.0289 -1.8626 -0.6179
19381TIP3   OH279633   7.195   1.515   5.536  0.2095  0.0698 -0.2650
19381TIP3    H179634   7.192   1.447   5.469 -0.2535  0.7121 -0.8994
19381TIP3    H279635   7.147   1.589   5.498  0.0069  0.4633  0.7426
19382TIP3   OH279636   2.688   6.896   4.921  0.2358 -0.0011  0.1402
19382TIP3    H179637   2.690   6.800   4.918  1.5131  0.0351 -0.5876
19382TIP3    H279638   2.595   6.918   4.914 -0.1677 -1.2088  1.3767
19383TIP3   OH279639   1.605   5.331   4.826  0.1690  0.0830  0.2528
19383TIP3    H179640   1.644   5.279   4.896 -2.2963 -1.8778  0.2094
19383TIP3    H279641   1.516   5.350   4.857 -0.0111  1.5842 -1.1365
19384TIP3   OH279642   0.806   7.063   4.496 -0.1165  0.2387 -0.1324
19384TIP3    H179643   0.818   6.987   4.439 -0.2714 -0.7461  1.0986
19384TIP3    H279644   0.780   7.025   4.580  0.1997  1.6451  0.6201
19385TIP3   OH279645   1.275   5.248   4.149 -0.3103  0.1510 -0.0403
19385TIP3    H179646   1.214   5.176   4.167 -0.7964 -0.4720 -3.7648
19385TIP3    H279647   1.300   5.236   4.057  2.0578  2.9460  0.1641
19386TIP3   OH279648   6.457   5.644   5.597 -0.0041 -0.2149  0.6173
19386TIP3    H179649   6.449   5.739   5.599  0.8548 -0.1575  2.1875
19386TIP3    H279650   6.436   5.616   5.687 -1.0956 -1.5749 -0.0366
19387TIP3   OH279651   0.185   7.153   5.467  0.2774 -0.5152 -0.2907
19387TIP3    H179652   0.176   7.222   5.533 -0.1281 -0.9245  0.0891
19387TIP3    H279653   0.235   7.193   5.396 -0.8263  0.4737 -0.5091
19388TIP3   OH279654   0.622   5.073   5.148 -0.5861 -0.4107  0.2491
19388TIP3    H179655   0.692   5.016   5.116 -0.3669  0.1591 -0.2839
19388TIP3    H279656   0.542   5.022   5.137 -0.1567 -1.4321  1.7383
19389TIP3   OH279657   6.406   5.792   4.878  0.0415  0.2858  0.0140
19389TIP3    H179658   6.389   5.810   4.970  0.4347  1.2859 -0.0982
19389TIP3    H279659   6.344   5.848   4.831  1.0577  1.1301 -0.3427
19390TIP3   OH279660   0.446   0.119   5.821  0.1304 -0.3556 -0.3977
19390TIP3    H179661   0.358   0.142   5.794 -0.3116 -1.1559  0.3241
19390TIP3    H279662   0.438   0.098   5.914  1.4708  1.6238  0.1959
19391TIP3   OH279663   1.452   7.156   4.214 -0.3265 -0.2210  0.0578
19391TIP3    H179664   1.508   7.195   4.146 -1.1959  1.5966  0.3669
19391TIP3    H279665   1.371   7.208   4.211 -0.3079 -0.0111  2.6033
19392TIP3   OH279666   1.232   6.517   5.106 -0.2914  0.0977  0.0018
19392TIP3    H179667   1.301   6.451   5.109  0.7350  1.0753 -1.3158
19392TIP3    H279668   1.151   6.468   5.106  0.4336 -1.1179  0.2021
19393TIP3   OH279669   0.604   5.499   5.121 -0.5188 -0.2850  0.1916
19393TIP3    H179670   0.646   5.575   5.161 -0.3396 -0.4339  0.2833
19393TIP3    H279671   0.646   5.424   5.161 -1.9414 -0.4470  1.4446
19394TIP3   OH279672   1.682   5.886   5.585  0.8806 -0.3643  0.0111
19394TIP3    H179673   1.604   5.933   5.615  0.8741 -1.5410  1.9410
19394TIP3    H279674   1.746   5.954   5.567 -0.0412  0.5187  0.0433
19395TIP3   OH279675   7.081   5.748   4.781 -0.3603  0.3236 -0.1390
19395TIP3    H179676   7.071   5.791   4.867 -0.0213 -0.3042  0.2111
19395TIP3    H279677   7.020   5.675   4.784  0.2042 -0.1481 -0.1492
19396TIP3   OH279678   5.468   5.818   5.706  0.1286 -0.2359 -0.5257
19396TIP3    H179679   5.463   5.802   5.800  2.9319  1.1115 -0.1140
19396TIP3    H279680   5.474   5.731   5.667  1.1778 -0.7097  0.6883
19397TIP3   OH279681   0.389   0.846   5.087 -0.0641 -0.3673  0.3706
19397TIP3    H179682   0.341   0.893   5.156 -0.7932 -0.4994 -0.0394
19397TIP3    H279683   0.346   0.872   5.006  0.9347 -0.0517 -0.0631
19398TIP3   OH279684   0.720   1.147   2.536 -0.9837  0.2051 -0.1249
19398TIP3    H179685   0.641   1.143   2.481 -1.6530  0.6699  0.7817
19398TIP3    H279686   0.686   1.165   2.624  0.1348  0.2910  0.2880
19399TIP3   OH279687   0.267   7.239   5.232 -0.0869  0.0449 -0.1084
19399TIP3    H179688   0.349   7.208   5.195 -0.2826 -0.1939 -0.3387
19399TIP3    H279689   0.202   7.174   5.207 -0.1346 -0.3786  1.0575
19400TIP3   OH279690   0.413   6.523   6.236  0.3716 -0.3109 -0.0244
19400TIP3    H179691   0.321   6.508   6.259  0.1750  0.0817 -0.5560
19400TIP3    H279692   0.459   6.514   6.319  0.0156 -1.7858  0.0335
19401TIP3   OH279693   1.256   0.958   2.903  0.1865  0.3971 -0.1997
19401TIP3    H179694   1.213   0.909   2.832  0.1496 -1.0099  0.7603
19401TIP3    H279695   1.331   0.903   2.927 -0.5160  0.2228  1.6874
19402TIP3   OH279696   1.002   0.053   4.944 -0.1809  0.1358 -0.5800
19402TIP3    H179697   0.991  -0.017   5.008 -1.2014  1.6713  0.9764
19402TIP3    H279698   1.097   0.068   4.940 -0.0481 -0.5526 -0.0956
19403TIP3   OH279699   0.551   5.871   5.604  0.1950  0.3100  0.6601
19403TIP3    H179700   0.584   5.782   5.615  1.8476  0.1769 -4.3078
19403TIP3    H279701   0.627   5.921   5.574 -1.8524  2.1660 -1.6643
19404TIP3   OH279702   1.621   6.950   2.699  0.3211 -0.5177 -0.3699
19404TIP3    H179703   1.551   7.015   2.705  0.6812 -0.0553 -1.0850
19404TIP3    H279704   1.688   6.992   2.645  2.1843 -0.0131  2.2024
19405TIP3   OH279705   0.552   0.176   4.581  0.5596  0.1279  0.1319
19405TIP3    H179706   0.615   0.216   4.521 -2.4095  2.1501 -1.8221
19405TIP3    H279707   0.499   0.250   4.612 -1.6526 -1.6506  0.7054
19406TIP3   OH279708   1.461   1.722   3.251  0.1593  0.2213  0.2718
19406TIP3    H179709   1.503   1.655   3.197  0.9335  1.1843 -0.3362
19406TIP3    H279710   1.501   1.804   3.222 -0.1946  0.8570  1.5707
19407TIP3   OH279711   1.723   0.080   2.436 -0.0784 -0.1211 -0.8185
19407TIP3    H179712   1.670   0.160   2.431 -0.4593 -0.2185  1.1317
19407TIP3    H279713   1.811   0.111   2.459 -0.0837 -0.2267 -0.6588
19408TIP3   OH279714   1.561   5.775   4.853  0.4545 -0.6932 -0.0877
19408TIP3    H179715   1.491   5.824   4.896  0.4494 -2.4432  2.0016
19408TIP3    H279716   1.638   5.833   4.860 -0.4222  0.5966 -1.0434
19409TIP3   OH279717   0.262   6.878   5.561 -0.3188 -0.7579 -0.5020
19409TIP3    H179718   0.237   6.970   5.549 -1.2357 -1.2406 -2.5507
19409TIP3    H279719   0.224   6.853   5.645 -1.6027  0.2267 -0.7817
19410TIP3   OH279720   3.477   6.675   3.011  0.6181 -0.4053  0.7925
19410TIP3    H179721   3.480   6.739   2.939 -0.6909 -0.2318  0.8876
19410TIP3    H279722   3.559   6.626   3.002  0.5948 -0.2180 -0.6767
19411TIP3   OH279723   7.326   5.130   3.671 -0.1861 -0.3433  0.1748
19411TIP3    H179724   7.359   5.218   3.655 -2.1217  0.2705 -0.5781
19411TIP3    H279725   7.235   5.142   3.697  0.2544 -1.9728  2.6606
19412TIP3   OH279726   2.630   2.016   3.876  0.1076  0.1779 -0.1184
19412TIP3    H179727   2.543   2.046   3.851 -0.2450 -1.8987 -1.5385
19412TIP3    H279728   2.689   2.062   3.817 -0.4123 -1.7689 -2.1937
19413TIP3   OH279729   0.471   6.235   5.726  0.8791 -0.8405  0.0655
19413TIP3    H179730   0.507   6.174   5.790 -0.9063 -0.5871  1.3705
19413TIP3    H279731   0.446   6.312   5.778  1.3506  0.2219 -1.2668
19414TIP3   OH279732   4.007   4.398   2.773  0.3483 -0.6206  0.3711
19414TIP3    H179733   4.016   4.393   2.678 -1.0928  0.6870  0.1352
19414TIP3    H279734   4.078   4.344   2.807 -0.2067 -2.5812 -1.4670
19415TIP3   OH279735   6.743   1.138   5.047  0.4698  0.5073  0.0597
19415TIP3    H179736   6.804   1.161   4.977 -2.1304 -0.2728 -2.5839
19415TIP3    H279737   6.776   1.054   5.081  1.7046  0.8378 -0.3023
19416TIP3   OH279738   6.816   0.507   3.701 -0.5376  0.0378 -0.6076
19416TIP3    H179739   6.747   0.441   3.700  1.0627 -1.7069 -0.2623
19416TIP3    H279740   6.842   0.513   3.792 -1.1397  1.6862 -0.5308
19417TIP3   OH279741   1.485   5.689   5.482 -0.6653 -0.0424  0.2153
19417TIP3    H179742   1.533   5.771   5.497 -1.4214  0.3539  0.4818
19417TIP3    H279743   1.485   5.647   5.568  0.4496 -0.7263 -0.1060
19418TIP3   OH279744   1.878   4.186   5.433 -0.2438 -0.1881  0.1565
19418TIP3    H179745   1.841   4.198   5.346 -0.3553 -3.0251 -0.2427
19418TIP3    H279746   1.816   4.230   5.492 -0.3879  1.3736 -1.1207
19419TIP3   OH279747   0.559   7.304   4.214  0.5618  0.2939  0.6107
19419TIP3    H179748   0.471   7.340   4.221  0.0128 -1.0779  1.0000
19419TIP3    H279749   0.553   7.237   4.146  1.6039  1.0370 -0.2365
19420TIP3   OH279750   0.721   0.462   2.662 -0.0800  0.2100 -0.3351
19420TIP3    H179751   0.815   0.474   2.671 -0.0165  0.1077 -0.8468
19420TIP3    H279752   0.711   0.372   2.630 -0.4290 -0.3054  1.2043
19421TIP3   OH279753   5.438   6.746   5.606 -0.2915  0.5574 -0.0977
19421TIP3    H179754   5.502   6.690   5.563  0.6835  1.4787  0.1465
19421TIP3    H279755   5.367   6.687   5.630 -0.1634 -0.2287 -1.6013
19422TIP3   OH279756   0.166   0.231   4.292 -0.1705  0.6522 -0.2935
19422TIP3    H179757   0.193   0.154   4.241 -1.1315 -0.7389  1.2314
19422TIP3    H279758   0.239   0.292   4.284  2.3569 -1.9807  1.7003
19423TIP3   OH279759   7.222   2.627   3.350 -0.2429 -0.0989 -0.0337
19423TIP3    H179760   7.273   2.674   3.284  0.0424 -0.3458  0.0090
19423TIP3    H279761   7.219   2.687   3.425 -1.0838  0.4339 -0.4806
19424TIP3   OH279762   2.334   1.192   3.889 -0.6692 -1.0243  0.2709
19424TIP3    H179763   2.414   1.197   3.943 -1.0507  0.0602  0.7584
19424TIP3    H279764   2.267   1.159   3.948 -1.2334  0.7370  0.6608
19425TIP3   OH279765   2.025   0.115   5.122  0.1772  0.3340 -0.5205
19425TIP3    H179766   2.009   0.069   5.205  1.5035  0.1035 -0.3799
19425TIP3    H279767   1.944   0.164   5.106 -0.1745  0.2050  0.7952
19426TIP3   OH279768   0.429   5.479   4.882 -0.4189  0.5249  0.0683
19426TIP3    H179769   0.498   5.423   4.845  1.0981  2.0136  0.6320
19426TIP3    H279770   0.461   5.503   4.968 -0.6775  2.9607 -0.4929
19427TIP3   OH279771   1.208   6.712   5.390 -0.2447 -0.1792  0.3333
19427TIP3    H179772   1.192   6.758   5.472  1.5080 -0.8769  1.0910
19427TIP3    H279773   1.248   6.629   5.416 -0.3025 -0.7011 -1.1853
19428TIP3   OH279774   7.193   6.989   2.653 -0.0485 -0.1764 -0.0978
19428TIP3    H179775   7.184   6.910   2.706 -0.3880 -1.1980 -1.6557
19428TIP3    H279776   7.106   7.002   2.615 -0.1750  1.3291  0.6494
19429TIP3   OH279777   0.266   4.308   5.187 -0.0110  1.0545 -0.1774
19429TIP3    H179778   0.257   4.215   5.209  1.2802  1.1326  0.6818
19429TIP3    H279779   0.177   4.343   5.193 -0.1774  0.3380  1.5994
19430TIP3   OH279780   0.939   5.955   4.095 -0.0513 -0.4638  0.2412
19430TIP3    H179781   1.011   5.971   4.034  0.6801 -0.8234  0.9918
19430TIP3    H279782   0.883   5.891   4.051  0.7884 -1.1700  0.1836
19431TIP3   OH279783   1.003   0.961   5.713 -0.0681  0.2808  0.6116
19431TIP3    H179784   1.057   0.942   5.789 -0.3865 -0.1836  0.7232
19431TIP3    H279785   1.061   0.948   5.638 -0.1794 -0.8008  0.7039
19432TIP3   OH279786   0.167   6.288   6.572 -0.2581  0.3545 -0.4000
19432TIP3    H179787   0.232   6.276   6.502  0.8883  0.8566  0.5527
19432TIP3    H279788   0.130   6.375   6.555  0.6668  0.8631  0.1170
19433TIP3   OH279789   0.291   2.124   4.914 -0.4565 -0.4525  0.0975
19433TIP3    H179790   0.201   2.092   4.915 -0.5496 -0.1589  2.4517
19433TIP3    H279791   0.293   2.194   4.979  0.7335  1.6962 -2.1670
19434TIP3   OH279792   1.385   4.653   4.371 -0.9187  0.7527  0.0787
19434TIP3    H179793   1.479   4.651   4.389 -0.7514  1.6973 -0.6374
19434TIP3    H279794   1.344   4.642   4.457 -0.1535  0.4699  0.4121
19435TIP3   OH279795   0.363   0.196   3.411  0.0864 -0.0780 -0.1989
19435TIP3    H179796   0.416   0.121   3.382 -0.2556 -0.2829 -0.3000
19435TIP3    H279797   0.371   0.194   3.506  0.1706 -0.1743 -0.2071
19436TIP3   OH279798   0.151   6.852   6.180 -0.5043  0.0148  0.3775
19436TIP3    H179799   0.107   6.772   6.207 -0.1114 -0.7233 -1.1060
19436TIP3    H279800   0.092   6.892   6.116 -1.3160  1.6139  2.0758
19437TIP3   OH279801   5.701   0.558   5.659  0.4824  0.1452 -0.0505
19437TIP3    H179802   5.652   0.532   5.582  0.5251  0.6648 -0.2561
19437TIP3    H279803   5.766   0.489   5.671  1.2254  0.6310 -1.1632
19438TIP3   OH279804   1.234   6.269   5.673 -0.2222  0.2322 -0.4027
19438TIP3    H179805   1.258   6.357   5.643 -0.9326  0.6978  0.3705
19438TIP3    H279806   1.301   6.246   5.737 -0.2365  0.3587 -0.3427
19439TIP3   OH279807   6.875   4.519   5.632  0.3465  0.2850 -0.8936
19439TIP3    H179808   6.892   4.425   5.636 -0.5860  0.1941  1.9988
19439TIP3    H279809   6.947   4.559   5.681 -1.2787  0.7565  1.1784
19440TIP3   OH279810   1.065   0.222   5.704 -0.3966 -0.4300  0.3638
19440TIP3    H179811   0.983   0.185   5.673  0.6245 -2.4649 -0.0404
19440TIP3    H279812   1.124   0.214   5.629  0.6769 -0.6882  1.2259
19441TIP3   OH279813   0.667   6.800   3.936 -0.3424  0.3869  0.1124
19441TIP3    H179814   0.578   6.779   3.967 -1.1702  1.7517 -1.2888
19441TIP3    H279815   0.705   6.851   4.008  0.1119 -2.0725  1.6521
19442TIP3   OH279816   0.081   7.053   4.539 -0.1547  0.4216 -0.5622
19442TIP3    H179817   0.041   7.046   4.626  0.2029  0.0777 -0.4253
19442TIP3    H279818   0.107   7.145   4.533 -0.9998  0.6620 -0.6694
19443TIP3   OH279819   0.535   4.110   5.682  0.2559  0.1860 -0.8642
19443TIP3    H179820   0.466   4.108   5.749  1.7159  0.0772  0.6601
19443TIP3    H279821   0.494   4.154   5.608 -2.2651 -2.0495 -0.9049
19444TIP3   OH279822   1.560   7.262   4.756  0.0864  0.4650  0.4219
19444TIP3    H179823   1.549   7.283   4.663  2.9227 -0.3669 -0.1316
19444TIP3    H279824   1.493   7.196   4.774 -0.9885  1.1888 -0.8028
19445TIP3   OH279825   0.941   6.711   3.924  0.6719  0.6171  0.3707
19445TIP3    H179826   1.032   6.739   3.929  0.4694  1.0066  2.2058
19445TIP3    H279827   0.900   6.747   4.003 -0.9015 -0.1516 -0.0676
19446TIP3   OH279828   1.027   4.549   4.680  0.8965  0.2159  0.2443
19446TIP3    H179829   1.029   4.519   4.771  0.0575 -4.7001 -1.2324
19446TIP3    H279830   1.087   4.490   4.634 -1.4065  0.3339 -3.0354
19447TIP3   OH279831   0.582   6.380   5.242  0.6951  0.3104 -0.5979
19447TIP3    H179832   0.568   6.472   5.221 -1.2622 -0.0394 -0.8847
19447TIP3    H279833   0.586   6.378   5.338  0.6171  0.6587 -0.5852
19448TIP3   OH279834   7.233   5.121   5.322  0.1290 -0.2338  0.0634
19448TIP3    H179835   7.238   5.214   5.347 -1.4452 -0.3291  0.7714
19448TIP3    H279836   7.263   5.120   5.231 -0.0178  1.0009 -0.0163
19449TIP3   OH279837   6.584   7.323   4.213  0.1762  0.3962  0.1131
19449TIP3    H179838   6.518   7.295   4.276  0.2518  0.8236  0.3870
19449TIP3    H279839   6.643   7.379   4.263 -0.1593  1.3100 -0.4932
19450TIP3   OH279840   0.016   6.523   5.243  0.0073 -0.0670 -0.0926
19450TIP3    H179841   0.101   6.486   5.221 -0.1929 -1.6523  1.7255
19450TIP3    H279842   0.036   6.608   5.282  0.5794  0.8416 -2.2922
19451TIP3   OH279843   6.497   2.321   4.383  0.3520  0.1995 -0.5242
19451TIP3    H179844   6.588   2.296   4.370  0.2004 -0.1361 -0.9279
19451TIP3    H279845   6.466   2.263   4.453  0.3268  0.0302 -0.6763
19452TIP3   OH279846   1.129   1.243   4.341 -0.2220 -0.2977 -0.2180
19452TIP3    H179847   1.038   1.239   4.369  0.8102  0.2737  3.5371
19452TIP3    H279848   1.156   1.151   4.332 -0.6560 -0.5141  0.6043
19453TIP3   OH279849   2.355   0.115   4.488  0.5794 -0.3044 -0.0246
19453TIP3    H179850   2.323   0.044   4.543  1.8261 -1.8160 -1.1994
19453TIP3    H279851   2.437   0.142   4.530  0.0154  0.5916  0.5243
19454TIP3   OH279852   2.467   6.774   5.978 -0.6416  0.5024  0.4744
19454TIP3    H179853   2.432   6.687   5.958 -0.2913  0.6279 -0.7095
19454TIP3    H279854   2.543   6.757   6.035  0.0361 -0.0320 -0.5767
19455TIP3   OH279855   0.651   6.713   5.662  0.1320  0.2942  0.4579
19455TIP3    H179856   0.736   6.679   5.635 -0.5043 -1.7354  0.8997
19455TIP3    H279857   0.621   6.767   5.588  1.8843  1.2116  0.4038
19456TIP3   OH279858   1.622   6.150   3.286  0.6461 -0.3489  0.4246
19456TIP3    H179859   1.676   6.126   3.211  1.3588 -0.3882  0.9382
19456TIP3    H279860   1.674   6.215   3.333 -0.0126  0.0435  0.6118
19457TIP3   OH279861   0.672   6.900   3.669  0.0194 -0.1548  0.8111
19457TIP3    H179862   0.624   6.865   3.744  2.4367 -1.2572  1.8982
19457TIP3    H279863   0.650   6.993   3.668 -0.9652 -0.3548  2.1762
19458TIP3   OH279864   1.083   4.747   3.935 -0.3730  0.2502  0.0565
19458TIP3    H179865   1.030   4.681   3.980  0.7093 -0.1738  0.7150
19458TIP3    H279866   1.161   4.756   3.989  1.6083 -1.2993 -2.4717
19459TIP3   OH279867   0.842   0.518   4.846  0.5390 -0.1647  0.4058
19459TIP3    H179868   0.770   0.565   4.804  0.7560  0.4465  0.7177
19459TIP3    H279869   0.904   0.500   4.776  0.2170 -0.4468  0.1900
19460TIP3   OH279870   1.323   6.480   5.528 -0.2676 -0.5388  0.2697
19460TIP3    H179871   1.329   6.521   5.614  0.7126  1.4208 -0.7065
19460TIP3    H279872   1.406   6.434   5.518 -1.1877 -2.4597  1.1783
19461TIP3   OH279873   3.158   6.999   4.338  0.8997  0.0905  0.4460
19461TIP3    H179874   3.140   7.015   4.430 -1.4838  1.3957 -0.2086
19461TIP3    H279875   3.235   7.053   4.319  0.4189  1.0921  1.3000
19462TIP3   OH279876   2.088   0.380   4.680 -0.2133  0.0655 -0.2390
19462TIP3    H179877   2.028   0.367   4.753  0.4267  1.0564  0.4846
19462TIP3    H279878   2.038   0.431   4.616 -0.5602 -0.2360 -0.2079
19463TIP3   OH279879   0.822   5.060   0.127 -0.3557  0.1759  0.7460
19463TIP3    H179880   0.794   5.083   0.039  2.3045 -1.1367 -0.4998
19463TIP3    H279881   0.741   5.036   0.173 -1.6295 -0.1870 -1.6413
19464TIP3   OH279882   2.063   6.694   5.590  0.3741  0.0599 -0.0213
19464TIP3    H179883   1.977   6.699   5.633 -0.0241  0.9778 -0.9117
19464TIP3    H279884   2.124   6.674   5.661 -0.7794 -2.1787  0.3895
19465TIP3   OH279885   7.258   5.686   5.334  0.5208  0.2550 -0.8050
19465TIP3    H179886   7.321   5.707   5.266  1.2552  0.4626 -0.0776
19465TIP3    H279887   7.275   5.752   5.402  0.1882 -0.2977 -0.1850
19466TIP3   OH279888   0.571   6.785   5.420  0.0975 -0.3020 -0.8334
19466TIP3    H179889   0.577   6.881   5.423  0.5912 -0.2748 -2.3374
19466TIP3    H279890   0.590   6.763   5.329  0.5513 -1.8789 -0.3687
19467TIP3   OH279891   1.373   5.041   4.664 -0.3691 -0.4541  0.1404
19467TIP3    H179892   1.329   5.125   4.675 -0.2799 -0.2655 -0.8663
19467TIP3    H279893   1.463   5.063   4.643 -0.3805 -0.7954 -0.2794
19468TIP3   OH279894   2.673   4.234   5.497 -0.0657  0.3818 -0.8461
19468TIP3    H179895   2.588   4.190   5.493 -0.4528  1.0952 -0.5778
19468TIP3    H279896   2.653   4.323   5.524  0.7691  0.5699 -0.8183
19469TIP3   OH279897   6.668   6.773   5.579 -0.1831  0.2219 -0.2634
19469TIP3    H179898   6.617   6.854   5.572  0.6200  0.7046 -0.5927
19469TIP3    H279899   6.733   6.779   5.509  1.0184  0.1091  0.8191
19470TIP3   OH279900   0.747   5.713   5.175  0.1391  0.2395 -0.0159
19470TIP3    H179901   0.750   5.720   5.080  1.6713  0.0888  0.0173
19470TIP3    H279902   0.838   5.703   5.202 -0.4751 -1.9866  1.3164
19471TIP3   OH279903   0.939   4.790   4.609  0.0156 -0.4547 -0.1130
19471TIP3    H179904   0.967   4.701   4.588  0.4183 -1.0321  2.6950
19471TIP3    H279905   1.018   4.834   4.639 -0.4683  0.4398 -0.1124
19472TIP3   OH279906   1.419   6.298   5.128  0.0055  0.4030 -0.3558
19472TIP3    H179907   1.513   6.300   5.146 -0.0389 -0.8756  0.0800
19472TIP3    H279908   1.413   6.269   5.037  0.0816  2.2182 -0.9500
19473TIP3   OH279909   2.136   5.703   3.811 -0.7317 -0.3446 -0.2790
19473TIP3    H179910   2.062   5.713   3.751  0.1956 -0.5251 -1.4696
19473TIP3    H279911   2.188   5.782   3.797 -1.2488  0.3072  1.3483
19474TIP3   OH279912   3.579   4.225   5.729  0.4043 -0.4961  0.4109
19474TIP3    H179913   3.577   4.258   5.819  1.4210  0.6703  0.0309
19474TIP3    H279914   3.653   4.165   5.727  0.3166 -0.6025  0.3791
19475TIP3   OH279915   5.719   0.179   5.863 -0.3074 -0.8035  0.1462
19475TIP3    H179916   5.702   0.089   5.892 -1.2787 -0.8800 -0.6644
19475TIP3    H279917   5.705   0.232   5.942 -0.1663 -1.3037  0.5153
19476TIP3   OH279918   2.297   0.563   5.005 -0.3181  0.1616 -0.9206
19476TIP3    H179919   2.330   0.478   4.979 -0.5549  0.0206 -0.7654
19476TIP3    H279920   2.361   0.597   5.067 -0.9189 -0.5095  0.0936
19477TIP3   OH279921   2.376   4.952   4.090 -0.7641  0.1338 -0.1088
19477TIP3    H179922   2.441   5.012   4.127 -1.0757 -0.7906  2.0165
19477TIP3    H279923   2.419   4.913   4.014  0.4784  0.8760  0.2014
19478TIP3   OH279924   0.305   0.464   5.403 -0.2236 -0.2559  0.3637
19478TIP3    H179925   0.255   0.383   5.414 -1.0935  0.2410  0.0924
19478TIP3    H279926   0.334   0.486   5.492 -0.1261 -0.7631  0.4653
19479TIP3   OH279927   2.654   6.708   6.220  0.1526  0.0370  0.2538
19479TIP3    H179928   2.679   6.746   6.304  0.0154 -1.6682  1.0771
19479TIP3    H279929   2.726   6.731   6.161  0.5013  0.7725  0.9574
19480TIP3   OH279930   2.639   6.693   5.502 -0.2883 -0.4301 -0.4140
19480TIP3    H179931   2.627   6.612   5.552 -0.9334  0.3736  0.7442
19480TIP3    H279932   2.582   6.757   5.545 -2.5075 -0.2463 -3.4918
19481TIP3   OH279933   1.870   7.102   5.519 -0.1750 -0.1854  0.2386
19481TIP3    H179934   1.944   7.081   5.576  0.6198 -2.2074 -1.4958
19481TIP3    H279935   1.899   7.179   5.469 -0.3883  0.8015  1.5925
19482TIP3   OH279936   1.860   7.234   2.055 -0.4461 -0.0707 -0.2690
19482TIP3    H179937   1.766   7.254   2.060 -0.5995 -0.5511 -1.0512
19482TIP3    H279938   1.895   7.303   1.998 -0.1375  0.6942  0.8246
19483TIP3   OH279939   6.482   4.885   5.406 -0.4321  0.5286  0.2343
19483TIP3    H179940   6.448   4.968   5.440 -0.1383  1.3208 -1.3703
19483TIP3    H279941   6.411   4.851   5.352  0.5167  1.1313 -1.3988
19484TIP3   OH279942   6.768   4.592   3.976  0.4503 -0.1339  0.0701
19484TIP3    H179943   6.680   4.595   3.938  0.6108  1.0767 -0.2111
19484TIP3    H279944   6.767   4.656   4.047  1.4804  0.8169 -0.7542
19485TIP3   OH279945   1.628   0.687   3.582 -0.0829 -0.3691  0.3822
19485TIP3    H179946   1.664   0.666   3.668 -2.6307 -2.0872  1.0623
19485TIP3    H279947   1.682   0.636   3.521  0.8540 -0.2074  1.0544
19486TIP3   OH279948   7.262   4.487   4.812  0.3949 -0.3400 -0.0553
19486TIP3    H179949   7.308   4.435   4.747  1.3300  0.8917 -0.4031
19486TIP3    H279950   7.253   4.574   4.771 -1.8862 -0.4296  0.1482
19487TIP3   OH279951   1.502   5.106   5.285  0.3230  0.7329  0.1147
19487TIP3    H179952   1.412   5.083   5.260  1.6487 -2.4684 -2.1632
19487TIP3    H279953   1.499   5.117   5.380 -1.9912 -2.2362  0.4697
19488TIP3   OH279954   0.543   7.076   5.458  0.3942 -0.2992 -0.7986
19488TIP3    H179955   0.469   7.118   5.501  0.4169  1.8624 -2.7097
19488TIP3    H279956   0.619   7.106   5.508  0.1300 -0.9553 -0.0000
19489TIP3   OH279957   0.052   3.363   5.689 -0.6347 -0.7496 -0.1081
19489TIP3    H179958   0.113   3.289   5.694 -0.0563 -0.3665 -1.3353
19489TIP3    H279959  -0.021   3.337   5.744  0.2390 -1.5983  0.6799
19490TIP3   OH279960   1.958   5.610   5.542 -0.3878 -0.5693  0.4117
19490TIP3    H179961   1.932   5.655   5.622 -1.1253 -0.0292 -0.1280
19490TIP3    H279962   1.877   5.600   5.492  0.0642 -0.9109 -0.2664
19491TIP3   OH279963   7.126   6.901   3.460 -0.3943  0.3528  0.1847
19491TIP3    H179964   7.088   6.871   3.542 -0.9903  1.2786  0.2551
19491TIP3    H279965   7.208   6.943   3.485 -0.1928 -0.0543  0.2178
19492TIP3   OH279966   2.127   4.812   4.625  0.2005 -0.6123  0.2152
19492TIP3    H179967   2.219   4.826   4.647 -0.3952 -0.1637  2.5177
19492TIP3    H279968   2.101   4.735   4.677 -0.5561 -1.1271 -0.8962
19493TIP3   OH279969   1.327   5.461   5.816 -0.0685  0.1999 -0.0714
19493TIP3    H179970   1.278   5.484   5.896  0.1415 -1.0619  0.4345
19493TIP3    H279971   1.312   5.367   5.806  0.5809  0.2032 -1.0750
19494TIP3   OH279972   2.209   0.371   4.366  0.2728 -0.0883  0.2952
19494TIP3    H179973   2.272   0.419   4.420  0.4344 -1.6202  1.5067
19494TIP3    H279974   2.259   0.297   4.331  0.3223  1.2221 -2.4574
19495TIP3   OH279975   2.590   1.232   2.914 -0.1491  0.1567  0.7151
19495TIP3    H179976   2.582   1.242   3.009  2.5395  3.8899  0.6303
19495TIP3    H279977   2.674   1.189   2.901  1.8268  4.1063 -0.0936
19496TIP3   OH279978   2.290   5.798   6.189  0.1065  0.1469 -0.0709
19496TIP3    H179979   2.218   5.838   6.140  1.2147 -0.2162 -2.0236
19496TIP3    H279980   2.369   5.827   6.144  0.9820 -4.4249 -1.7472
19497TIP3   OH279981   2.616   6.036   6.412 -0.2877  0.4708  0.4792
19497TIP3    H179982   2.605   5.963   6.472  0.5063  2.4519  3.1247
19497TIP3    H279983   2.527   6.056   6.381 -0.8374  0.0285  1.7489
19498TIP3   OH279984   3.502   0.224   5.489 -0.4724 -0.2168 -0.6276
19498TIP3    H179985   3.535   0.313   5.484 -0.3984 -0.3078 -1.7957
19498TIP3    H279986   3.419   0.232   5.537 -0.5244  0.4866 -0.8298
19499TIP3   OH279987   2.862   6.437   5.262  0.3458 -0.5221 -0.0057
19499TIP3    H179988   2.807   6.405   5.333  0.4961 -1.5898 -0.3692
19499TIP3    H279989   2.808   6.501   5.216 -0.0476 -0.4432  0.5612
19500TIP3   OH279990   0.173   4.633   2.910  0.1050  0.0254 -1.1154
19500TIP3    H179991   0.216   4.717   2.925  1.1547 -0.7158  0.0308
19500TIP3    H279992   0.105   4.653   2.846 -0.2517  1.9429 -0.1823
19501TIP3   OH279993   1.613   4.217   4.427  0.0494 -0.4037  0.4107
19501TIP3    H179994   1.670   4.243   4.500 -2.0527  0.3779  1.7955
19501TIP3    H279995   1.652   4.259   4.350 -0.1530  2.3294  1.7524
19502TIP3   OH279996   3.230   0.746   4.317 -0.0355  0.2246 -0.3146
19502TIP3    H179997   3.143   0.767   4.281  0.3235  2.8458  0.2061
19502TIP3    H279998   3.230   0.651   4.327 -2.1078 -0.0122 -2.1961
19503TIP3   OH279999   3.795   6.772   5.370  0.3250 -0.0947  0.1005
19503TIP3    H180000   3.806   6.678   5.352  0.9970  0.0335 -0.1510
19503TIP3    H280001   3.709   6.777   5.413  0.6030 -0.9125  0.7790
19504TIP3   OH280002   5.994   6.956   3.633 -0.3970  0.3093  0.0255
19504TIP3    H180003   5.919   6.910   3.671 -0.9239  0.6014 -0.6542
19504TIP3    H280004   6.001   7.037   3.684 -0.6361  0.3490 -0.0049
19505TIP3   OH280005   4.605   6.631   5.175  0.1282  0.1693  0.4138
19505TIP3    H180006   4.609   6.727   5.177 -0.4869  0.2094 -0.2696
19505TIP3    H280007   4.528   6.611   5.122  1.2786 -0.7299 -0.9343
19506TIP3   OH280008   3.495   6.956   4.491  0.3682 -0.3087  0.1244
19506TIP3    H180009   3.549   7.000   4.557 -0.5985 -0.5898  1.1218
19506TIP3    H280010   3.449   7.027   4.447 -0.4709 -0.2454  1.0911
19507TIP3   OH280011   1.230   5.813   5.464  0.2179  0.2401 -0.1126
19507TIP3    H180012   1.207   5.723   5.488  2.2600  0.0834  1.3440
19507TIP3    H280013   1.318   5.805   5.426  0.3346  1.5925 -0.1192
19508TIP3   OH280014   0.396   4.375   4.331  0.3811 -0.6547  0.0541
19508TIP3    H180015   0.456   4.314   4.373 -1.4936 -2.2779  0.4452
19508TIP3    H280016   0.369   4.331   4.251  0.6657  0.6006 -0.7484
19509TIP3   OH280017   2.645   5.721   5.430 -0.2278  0.0789 -0.1217
19509TIP3    H180018   2.672   5.712   5.339  0.0566  0.3191 -0.0584
19509TIP3    H280019   2.563   5.770   5.426 -0.9852 -1.1650 -0.3579
19510TIP3   OH280020   2.377   6.068   4.546  0.0680  0.0159 -0.0289
19510TIP3    H180021   2.431   6.014   4.487  0.2474  0.6274 -0.4419
19510TIP3    H280022   2.384   6.025   4.631  3.0660  1.2864  0.4599
19511TIP3   OH280023   3.944   6.632   5.795  0.4597  0.5065 -0.4069
19511TIP3    H180024   3.866   6.686   5.809  0.9326  1.3809 -1.1186
19511TIP3    H280025   3.995   6.641   5.875 -0.5033 -0.6389  0.3549
19512TIP3   OH280026   1.044   7.210   5.662 -0.2697  0.5396 -0.2100
19512TIP3    H180027   1.121   7.263   5.642 -1.1541  2.0214  0.2216
19512TIP3    H280028   1.060   7.176   5.750  0.2254  0.2611 -0.4131
19513TIP3   OH280029   3.957   5.342   4.867  0.0086  1.3608 -0.5359
19513TIP3    H180030   4.045   5.363   4.898  0.7964 -1.2324 -0.8726
19513TIP3    H280031   3.938   5.410   4.802  2.2909  1.2301 -1.3875
19514TIP3   OH280032   2.057   5.225   5.852 -0.3029 -1.0157 -0.4475
19514TIP3    H180033   2.117   5.233   5.926 -2.1503  3.1424  0.7329
19514TIP3    H280034   2.092   5.284   5.786 -1.5206 -0.7035 -0.8227
19515TIP3   OH280035   4.931   6.597   5.188  0.0250 -0.4219  0.1401
19515TIP3    H180036   4.905   6.683   5.219  0.6994  0.0510 -0.5991
19515TIP3    H280037   5.027   6.597   5.193 -0.0262 -1.6388  1.4963
19516TIP3   OH280038   0.542   5.514   4.474  0.3411  0.4577 -0.3918
19516TIP3    H180039   0.511   5.471   4.554  1.5866  0.4538  0.0977
19516TIP3    H280040   0.517   5.454   4.404  0.8018 -0.3990  0.1599
19517TIP3   OH280041   1.696   0.467   3.418  0.7956 -0.1460  0.3092
19517TIP3    H180042   1.779   0.449   3.373  0.7070 -1.0321  0.4940
19517TIP3    H280043   1.629   0.434   3.358  0.5626  0.5387  0.1759
19518TIP3   OH280044   3.468   6.111   5.639 -1.1630 -0.4128 -0.2919
19518TIP3    H180045   3.472   6.155   5.554  3.2323 -1.3487 -0.6852
19518TIP3    H280046   3.470   6.181   5.704  1.4331  0.1883 -0.9641
19519TIP3   OH280047   4.349   6.067   5.549 -0.1152  0.0737 -0.0577
19519TIP3    H180048   4.400   6.132   5.502 -1.4973  2.0030  1.0271
19519TIP3    H280049   4.358   6.091   5.641 -0.8594 -1.1013  0.3393
19520TIP3   OH280050   1.886   6.559   5.749  0.3949 -0.4620  0.3721
19520TIP3    H180051   1.907   6.537   5.840  1.6180  0.6148  0.3770
19520TIP3    H280052   1.803   6.606   5.754 -1.6599 -3.9357  0.4699
19521TIP3   OH280053   3.103   5.126   3.137  0.0986  0.2542  0.6861
19521TIP3    H180054   3.063   5.200   3.091 -2.4981 -1.5540 -0.0951
19521TIP3    H280055   3.141   5.072   3.068  0.5358  0.0434  1.0882
19522TIP3   OH280056   5.168   6.864   3.943  0.2314 -0.1336  0.2479
19522TIP3    H180057   5.228   6.819   3.883  1.0179  0.1112  0.8356
19522TIP3    H280058   5.140   6.795   4.004 -0.7091 -0.4220 -0.5019
19523TIP3   OH280059   3.259   1.287   1.955 -0.7127  0.3291  0.2739
19523TIP3    H180060   3.286   1.195   1.959  1.3284  0.8221 -1.1561
19523TIP3    H280061   3.281   1.314   1.866 -0.5995  2.3944  0.9007
19524TIP3   OH280062   0.879   6.493   4.143 -0.0951  0.4453  0.1891
19524TIP3    H180063   0.920   6.548   4.210 -1.0287  0.4867  0.7382
19524TIP3    H280064   0.901   6.536   4.061 -1.1969  1.9360  0.6382
19525TIP3   OH280065   5.113   6.016   5.977  0.0313 -0.8069 -0.1629
19525TIP3    H180066   5.137   5.945   6.036 -1.6071 -1.2397  0.0246
19525TIP3    H280067   5.058   6.074   6.030 -0.5436 -0.6212 -0.9471
19526TIP3   OH280068   2.121   6.379   4.968 -0.0188 -0.3980 -0.2264
19526TIP3    H180069   2.211   6.388   4.937  0.1067 -1.4751 -0.2123
19526TIP3    H280070   2.118   6.428   5.050  0.2367  0.6328 -0.8340
19527TIP3   OH280071   4.024   6.820   4.809 -0.0749 -0.5388 -0.2921
19527TIP3    H180072   4.084   6.856   4.873 -0.4248 -0.0148 -0.2541
19527TIP3    H280073   4.076   6.758   4.758  0.2590 -0.7804  0.3402
19528TIP3   OH280074   2.009   7.185   2.269  0.4651 -0.4082 -0.4151
19528TIP3    H180075   1.983   7.221   2.184 -0.2106  0.3018  0.0849
19528TIP3    H280076   2.024   7.092   2.252  1.8600  0.0293 -1.6482
19529TIP3   OH280077   0.948   6.341   2.910  0.2176 -0.0654 -0.0980
19529TIP3    H180078   0.958   6.368   2.819  0.8715 -0.4721 -0.1529
19529TIP3    H280079   0.981   6.416   2.960 -1.0447  0.5409 -0.1698
19530TIP3   OH280080   4.775   0.945   4.552 -0.0806  0.3617  0.2598
19530TIP3    H180081   4.757   1.023   4.605 -1.3592 -1.0504  1.9826
19530TIP3    H280082   4.688   0.912   4.529  0.4229 -1.1202  0.4383
19531TIP3   OH280083   4.169   7.153   2.924 -0.0811 -0.0317 -0.1900
19531TIP3    H180084   4.177   7.101   3.004 -0.2103 -0.6946 -0.6115
19531TIP3    H280085   4.254   7.195   2.915  0.7136 -1.7694 -0.9588
19532TIP3   OH280086   2.831   6.723   3.802  0.5703  0.7843 -0.8885
19532TIP3    H180087   2.875   6.755   3.723 -1.0578  2.4010 -1.1832
19532TIP3    H280088   2.803   6.802   3.848 -0.0897 -0.1702  0.3952
19533TIP3   OH280089   3.580   5.772   4.439 -0.3865 -0.3696  0.4897
19533TIP3    H180090   3.627   5.842   4.485 -2.0409  0.9969  0.1662
19533TIP3    H280091   3.603   5.692   4.486  2.5484  0.1915  0.0996
19534TIP3   OH280092   3.332   7.157   5.047 -0.3138 -0.5114  0.0182
19534TIP3    H180093   3.280   7.237   5.035  0.2332 -0.2650 -0.7568
19534TIP3    H280094   3.315   7.105   4.968 -0.7344 -1.1926  0.5629
19535TIP3   OH280095   2.187   6.671   4.610 -0.0345  0.5892  0.1675
19535TIP3    H180096   2.192   6.691   4.703  0.7264 -0.3260  0.3278
19535TIP3    H280097   2.104   6.709   4.582 -1.2495 -0.9094  1.6604
19536TIP3   OH280098   2.184   0.315   5.464  0.6566  0.1600 -0.1805
19536TIP3    H180099   2.198   0.237   5.518  1.5267 -0.7461 -1.7049
19536TIP3    H280100   2.099   0.301   5.423  1.8292 -1.0834 -2.2532
19537TIP3   OH280101   2.879   4.424   4.028  0.1165 -0.6832 -0.2133
19537TIP3    H180102   2.796   4.426   4.076  0.0646 -0.8622 -0.2935
19537TIP3    H280103   2.908   4.515   4.024  1.3807 -0.9295  2.3360
19538TIP3   OH280104   1.966   0.035   5.381  0.2644  0.1495 -0.3551
19538TIP3    H180105   1.890   0.080   5.416  0.2694 -0.1152  0.0007
19538TIP3    H280106   2.017   0.010   5.458 -0.3182 -1.4922 -0.4648
19539TIP3   OH280107   4.492   1.889   4.149 -0.8187 -0.0451 -0.3446
19539TIP3    H180108   4.489   1.851   4.238  2.6863  0.9566  0.2722
19539TIP3    H280109   4.456   1.977   4.159 -0.1397  0.1807  0.1793
19540TIP3   OH280110   2.940   1.008   5.099  0.3597 -0.5365  0.0084
19540TIP3    H180111   2.881   1.054   5.159  1.2426  1.6138 -0.7172
19540TIP3    H280112   2.915   1.039   5.012 -0.2167 -2.8402 -0.6809
19541TIP3   OH280113   6.656   0.373   4.552 -0.5868 -0.1936 -0.4227
19541TIP3    H180114   6.576   0.339   4.512  1.7319 -2.4288 -3.3980
19541TIP3    H280115   6.697   0.296   4.593  1.8733  0.0946 -2.2255
19542TIP3   OH280116   3.470   0.301   2.352 -0.0670 -0.1033  0.2585
19542TIP3    H180117   3.545   0.317   2.410 -0.9088  1.6057  0.9383
19542TIP3    H280118   3.474   0.373   2.290 -1.4567  0.3070  0.6419
19543TIP3   OH280119   2.464   1.072   4.986 -0.3882 -0.4873 -0.1938
19543TIP3    H180120   2.519   0.994   4.974  1.8886  0.9635  0.5814
19543TIP3    H280121   2.505   1.120   5.057 -0.8038  2.2613 -1.7391
19544TIP3   OH280122   3.290   5.616   4.415  0.2975  0.2744  0.6426
19544TIP3    H180123   3.340   5.675   4.359  0.7149 -1.2788 -0.6740
19544TIP3    H280124   3.332   5.531   4.404 -0.2111 -0.2621  2.6007
19545TIP3   OH280125   2.940   6.601   6.139  0.1685 -0.2684 -0.5839
19545TIP3    H180126   3.000   6.634   6.205  0.6536 -1.1571 -0.5578
19545TIP3    H280127   2.938   6.669   6.071  0.2696  0.2977 -0.0176
19546TIP3   OH280128   1.132   3.586   4.369 -0.6773 -0.0543  0.1760
19546TIP3    H180129   1.176   3.513   4.326 -1.8388 -0.2508 -0.7110
19546TIP3    H280130   1.195   3.658   4.364 -0.6606 -0.1658 -1.5928
19547TIP3   OH280131   3.575   5.630   5.942 -0.4321  0.4179 -0.1583
19547TIP3    H180132   3.522   5.709   5.931 -1.2780 -0.2034 -0.5898
19547TIP3    H280133   3.516   5.567   5.983 -0.7588 -1.0278 -2.7135
19548TIP3   OH280134   3.117   6.136   5.715  0.4556  0.3831 -0.2900
19548TIP3    H180135   3.039   6.181   5.683  0.9745  0.4459 -1.4885
19548TIP3    H280136   3.132   6.173   5.802 -1.3897 -0.3160  0.3557
19549TIP3   OH280137   3.215   6.920   3.884  0.3035 -1.2174  0.4178
19549TIP3    H180138   3.232   6.830   3.858 -0.1737 -1.1298 -0.2353
19549TIP3    H280139   3.133   6.916   3.934 -0.0154 -1.0753 -0.0892
19550TIP3   OH280140   1.642   4.916   3.565  0.0398  0.4511  0.0797
19550TIP3    H180141   1.716   4.967   3.534  2.1394 -2.5492  0.0372
19550TIP3    H280142   1.596   4.888   3.486  1.2850 -1.2079 -0.0623
19551TIP3   OH280143   2.723   4.426   6.225 -0.1102 -0.3362 -0.3890
19551TIP3    H180144   2.627   4.425   6.225 -0.1252  0.3786  0.0691
19551TIP3    H280145   2.747   4.478   6.148 -0.1743  2.5513  1.4376
19552TIP3   OH280146   2.544   6.707   2.501  0.0622  0.2150  0.0828
19552TIP3    H180147   2.589   6.627   2.475 -1.1586  0.8096 -4.0992
19552TIP3    H280148   2.463   6.707   2.451 -0.0028  4.0244  0.0556
19553TIP3   OH280149   4.029   0.851   4.795  0.0908  0.6284 -0.1155
19553TIP3    H180150   4.080   0.927   4.767  1.2128  0.0992  0.4568
19553TIP3    H280151   4.088   0.802   4.853 -1.2058  0.2244  0.8970
19554TIP3   OH280152   2.743   6.590   4.851 -0.1897 -0.2258 -0.6779
19554TIP3    H180153   2.670   6.576   4.911  0.7323 -0.1127  0.4888
19554TIP3    H280154   2.793   6.509   4.855  0.4092  0.1468 -0.5485
19555TIP3   OH280155   3.038   2.061   3.682 -0.2384 -0.2997 -0.0810
19555TIP3    H180156   3.134   2.062   3.683 -0.2330 -0.6772  1.1684
19555TIP3    H280157   3.015   1.968   3.686 -0.6329 -0.1396  2.8440
19556TIP3   OH280158   0.802   5.625   5.532 -0.3114  0.1892 -0.1526
19556TIP3    H180159   0.864   5.675   5.478 -0.1249  0.5545  0.3896
19556TIP3    H280160   0.838   5.537   5.533 -0.6764  0.0231 -1.1709
19557TIP3   OH280161   1.451   5.817   3.059  0.3211  0.4746  0.1574
19557TIP3    H180162   1.547   5.816   3.056  0.3406 -0.5603  0.6849
19557TIP3    H280163   1.425   5.860   2.978  1.2367  1.1685  0.2102
19558TIP3   OH280164   3.005   0.135   5.216 -0.1457 -0.2125  0.7314
19558TIP3    H180165   3.020   0.221   5.254 -0.2648  0.2012 -0.1314
19558TIP3    H280166   3.067   0.130   5.143  0.2532 -1.0847  1.1220
19559TIP3   OH280167   1.739   5.134   3.436 -0.3768 -1.0183 -0.1227
19559TIP3    H180168   1.662   5.166   3.390 -0.2044 -0.8812 -0.3169
19559TIP3    H280169   1.776   5.067   3.377 -0.0633 -0.7253 -0.2620
19560TIP3   OH280170   3.627   7.114   5.552  0.0352 -0.2929 -0.2820
19560TIP3    H180171   3.610   7.027   5.589  0.9331 -0.1846  0.3959
19560TIP3    H280172   3.573   7.117   5.473  0.6254 -1.7734 -0.7595
19561TIP3   OH280173   1.036   5.580   2.848  0.0168 -0.5248  0.2040
19561TIP3    H180174   1.076   5.498   2.820  0.8498  0.3375 -1.2179
19561TIP3    H280175   1.094   5.612   2.918  1.7329  0.5813 -1.6585
19562TIP3   OH280176   1.153   4.581   5.322  0.0063  0.1857  0.1565
19562TIP3    H180177   1.123   4.490   5.331 -1.4887  0.6035 -0.3545
19562TIP3    H280178   1.248   4.575   5.317 -0.1020 -1.3919 -0.3155
19563TIP3   OH280179   1.379   4.788   3.810  0.3144  0.1875 -0.6376
19563TIP3    H180180   1.359   4.724   3.742  1.6289  0.1170 -0.9792
19563TIP3    H280181   1.344   4.751   3.890 -0.7958  0.0288 -1.1884
19564TIP3   OH280182   1.017   6.476   5.822  0.1202  0.0828  0.3472
19564TIP3    H180183   1.111   6.473   5.837  0.0612 -1.0988  0.4728
19564TIP3    H280184   0.995   6.390   5.787 -0.4992  1.1840 -2.1221
19565TIP3   OH280185   4.054   0.482   3.565  0.5423 -0.3244  0.1009
19565TIP3    H180186   4.084   0.526   3.485 -2.2362 -0.7987 -1.2744
19565TIP3    H280187   4.074   0.390   3.550  0.3772 -0.3626  0.1155
19566TIP3   OH280188   2.404   7.055   5.958  0.6521 -0.5479 -0.2550
19566TIP3    H180189   2.323   7.047   6.009  1.6833  1.1882  1.6987
19566TIP3    H280190   2.441   6.966   5.957 -0.4668 -1.0321  0.1329
19567TIP3   OH280191   3.382   5.672   5.647  0.2261  0.0372 -0.5539
19567TIP3    H180192   3.330   5.728   5.589  0.0337  1.2384  0.7793
19567TIP3    H280193   3.382   5.717   5.731  0.4274 -1.7571  0.4228
19568TIP3   OH280194   4.239   5.827   5.509  0.7322  0.8823  0.6658
19568TIP3    H180195   4.275   5.915   5.513 -1.0785  1.5646  2.6365
19568TIP3    H280196   4.187   5.818   5.589 -1.5393 -0.8878 -0.9300
19569TIP3   OH280197   3.109   7.328   4.991 -0.0668 -0.1062  0.0392
19569TIP3    H180198   3.108   7.345   4.897  0.8775 -1.0420 -0.1474
19569TIP3    H280199   3.052   7.252   5.003  1.2957 -1.1571 -0.0274
19570TIP3   OH280200   6.941   6.696   3.555  0.0387  0.7731 -0.2098
19570TIP3    H180201   6.994   6.652   3.488  0.1178  0.7024 -0.1017
19570TIP3    H280202   6.942   6.635   3.629  0.6868  1.2423  0.1797
19571TIP3   OH280203   3.957   6.005   6.165  0.6957  0.0122 -0.6210
19571TIP3    H180204   3.879   5.950   6.170  0.2304  0.6591 -0.6836
19571TIP3    H280205   3.964   6.045   6.252 -0.3136  1.6565 -1.2620
19572TIP3   OH280206   2.463   6.109   3.176  0.0434  0.2225  0.0579
19572TIP3    H180207   2.524   6.139   3.108  0.2081 -0.4435 -0.0936
19572TIP3    H280208   2.477   6.014   3.180 -1.3343 -0.0069 -0.3248
19573TIP3   OH280209   1.991   6.276   5.659 -0.5045  0.3889  0.4283
19573TIP3    H180210   1.920   6.339   5.669 -0.2153  0.9124 -0.6504
19573TIP3    H280211   2.071   6.328   5.674 -0.3538 -0.2583  1.9390
19574TIP3   OH280212   2.729   6.943   4.284  0.4342 -0.0691 -0.0243
19574TIP3    H180213   2.705   6.851   4.268 -0.4744 -0.0643  1.2316
19574TIP3    H280214   2.655   6.979   4.332 -0.3555  2.0573 -2.7155
19575TIP3   OH280215   2.333   0.318   3.641 -0.5863  0.1217  0.0645
19575TIP3    H180216   2.268   0.276   3.584 -0.1407 -1.4082  0.6810
19575TIP3    H280217   2.394   0.248   3.664  2.3875  1.9447 -2.0385
19576TIP3   OH280218   3.975   6.603   5.007  0.1585  0.0560  0.0789
19576TIP3    H180219   3.908   6.620   4.942  0.9751  0.9447 -0.5368
19576TIP3    H280220   3.978   6.682   5.061  0.9470  0.1521 -0.1041
19577TIP3   OH280221   3.121   3.907   4.180  0.0017 -0.0294  0.0277
19577TIP3    H180222   3.058   3.905   4.108 -0.3256 -0.5811  0.3248
19577TIP3    H280223   3.140   4.000   4.193  0.4244  0.0381 -1.0868
19578TIP3   OH280224   1.624   6.960   5.706 -0.4037 -0.4166 -0.1612
19578TIP3    H180225   1.547   6.990   5.753 -1.0013 -0.3031 -1.2058
19578TIP3    H280226   1.694   6.961   5.772 -1.1759 -0.0593  0.6637
19579TIP3   OH280227   1.847   5.944   4.040 -0.3948 -0.4893 -0.0951
19579TIP3    H180228   1.870   6.033   4.066 -3.0244  0.2877 -0.2955
19579TIP3    H280229   1.852   5.945   3.944 -0.5767 -0.5341 -0.1039
19580TIP3   OH280230   4.181   5.902   6.036  0.2673 -0.3422  0.2622
19580TIP3    H180231   4.102   5.929   6.084 -1.3315 -1.5001 -1.6451
19580TIP3    H280232   4.191   5.809   6.058  1.3192 -0.1082  0.7841
19581TIP3   OH280233   3.909   7.239   4.546 -0.3439  0.5495 -0.4185
19581TIP3    H180234   3.953   7.196   4.473 -0.3948  1.5914 -1.0708
19581TIP3    H280235   3.953   7.205   4.624  2.4960  2.4713 -1.0953
19582TIP3   OH280236   2.892   6.604   4.315 -0.0140  0.1819 -0.5961
19582TIP3    H180237   2.898   6.566   4.227  1.4708 -1.1543  0.0526
19582TIP3    H280238   2.812   6.656   4.313 -1.6519 -2.3175 -1.7910
19583TIP3   OH280239   4.095   6.030   4.257  0.0690 -0.1016  0.2010
19583TIP3    H180240   4.163   5.972   4.290  0.0441 -0.8258 -0.9889
19583TIP3    H280241   4.013   5.990   4.286  0.1503  1.7466  3.2272
19584TIP3   OH280242   2.726   0.239   3.472 -0.6659 -1.0199 -0.0741
19584TIP3    H180243   2.722   0.247   3.567  0.1027  1.1562 -0.1934
19584TIP3    H280244   2.813   0.270   3.449 -1.3899 -0.0678 -1.6165
19585TIP3   OH280245   3.051   5.130   5.383 -0.1490  0.5533  0.4943
19585TIP3    H180246   2.997   5.055   5.409 -0.2020 -0.1196 -1.4699
19585TIP3    H280247   3.133   5.091   5.353  0.2477  1.3741  0.5056
19586TIP3   OH280248   3.195   5.047   3.730 -0.2459  0.4214 -0.0528
19586TIP3    H180249   3.246   5.126   3.747 -0.0638  0.3974 -0.4880
19586TIP3    H280250   3.107   5.068   3.762 -0.2390  0.8631 -0.3136
19587TIP3   OH280251   4.218   6.689   5.951  0.1483 -0.2969  0.1659
19587TIP3    H180252   4.306   6.687   5.989  1.0881  1.3088 -1.8483
19587TIP3    H280253   4.232   6.681   5.857 -1.9165 -0.7593 -0.1300
19588TIP3   OH280254   2.167   7.256   2.797 -0.5218  0.0188  0.1905
19588TIP3    H180255   2.132   7.236   2.711 -1.0566 -1.6658  0.7711
19588TIP3    H280256   2.093   7.243   2.857  0.1809 -0.1033  1.0479
19589TIP3   OH280257   4.194   0.440   3.969  0.0501 -0.4718 -0.3945
19589TIP3    H180258   4.178   0.534   3.979  0.3565 -0.5087  0.4198
19589TIP3    H280259   4.111   0.405   3.935  0.6791  0.4740 -3.0825
19590TIP3   OH280260   3.546   1.569   4.095  0.1213 -0.4009 -0.1093
19590TIP3    H180261   3.457   1.558   4.128  0.0625  0.2343 -0.0566
19590TIP3    H280262   3.541   1.545   4.003 -0.3404  0.7031 -0.3818
19591TIP3   OH280263   2.201   6.730   4.967 -0.4777 -0.3886  0.1227
19591TIP3    H180264   2.144   6.802   4.995  0.7883  0.1237  1.4122
19591TIP3    H280265   2.239   6.696   5.048  2.9465  0.8605 -0.8988
19592TIP3   OH280266   1.582   5.966   5.335  0.3176 -0.3354  0.3525
19592TIP3    H180267   1.669   5.956   5.373 -0.0981 -1.0953  1.1131
19592TIP3    H280268   1.546   6.043   5.379  0.6901  0.1192 -0.1331
19593TIP3   OH280269   2.468   5.447   5.085 -0.3383 -0.1417 -0.1920
19593TIP3    H180270   2.556   5.448   5.046 -0.3428  0.6938 -0.1796
19593TIP3    H280271   2.484   5.442   5.179 -0.3283 -2.3263 -0.2683
19594TIP3   OH280272   4.214   6.627   5.144  0.4906  0.1047 -0.0540
19594TIP3    H180273   4.150   6.594   5.081 -1.3097  1.8045  0.8427
19594TIP3    H280274   4.255   6.547   5.180 -1.7698 -1.0523  0.0286
19595TIP3   OH280275   3.740   0.322   4.963  1.1884  0.0679 -0.0365
19595TIP3    H180276   3.812   0.288   5.017  1.4830  1.6361  0.5872
19595TIP3    H280277   3.662   0.281   4.999  1.5922 -0.3263  0.3932
19596TIP3   OH280278   2.006   7.279   4.286  0.2173  0.7016  0.0060
19596TIP3    H180279   2.045   7.214   4.344 -0.9446  0.4085  0.4806
19596TIP3    H280280   2.022   7.363   4.329 -0.7437  0.4757  0.8313
19597TIP3   OH280281   2.630   0.315   3.222  0.3342 -0.6187  0.0240
19597TIP3    H180282   2.665   0.285   3.306 -0.9563  0.2508  0.9061
19597TIP3    H280283   2.624   0.410   3.232  0.7930 -0.4407 -1.3108
19598TIP3   OH280284   1.264   6.021   4.250 -0.3031  0.6002  0.2369
19598TIP3    H180285   1.289   5.943   4.201  0.4120  0.8987  0.1235
19598TIP3    H280286   1.288   6.002   4.340  0.2455  0.8456  0.1453
19599TIP3   OH280287   4.289   6.770   1.785  0.3192  0.3848 -0.0614
19599TIP3    H180288   4.335   6.796   1.865  0.6947  1.1953 -0.5285
19599TIP3    H280289   4.309   6.840   1.723 -1.1481  0.5012 -0.4192
19600TIP3   OH280290   2.108   2.278   5.635  0.0104 -0.3806 -0.0619
19600TIP3    H180291   2.023   2.246   5.664 -0.0776  0.1976  0.3173
19600TIP3    H280292   2.088   2.358   5.586  0.0145 -2.0265 -2.9071
19601TIP3   OH280293   4.208   6.533   3.994 -0.0087  0.2211 -0.0451
19601TIP3    H180294   4.121   6.555   4.028  0.1502 -1.2558  1.3464
19601TIP3    H280295   4.205   6.438   3.981  1.6052  0.0683  0.6352
19602TIP3   OH280296   2.857   6.237   6.463 -0.3465  0.1639  0.2466
19602TIP3    H180297   2.952   6.249   6.469 -0.5298  1.4190  0.7543
19602TIP3    H280298   2.823   6.275   6.544 -1.2943 -0.2738  0.0613
19603TIP3   OH280299   2.512   4.797   5.356 -0.2139 -0.0090 -0.0842
19603TIP3    H180300   2.489   4.704   5.350  0.4824 -0.1644 -0.4000
19603TIP3    H280301   2.449   4.833   5.418 -0.6320 -0.6470 -0.1278
19604TIP3   OH280302   1.449   0.502   3.259  0.8659  0.4839 -0.8223
19604TIP3    H180303   1.393   0.542   3.193 -0.7417 -1.3406 -0.5926
19604TIP3    H280304   1.419   0.540   3.342  0.1471 -0.2592 -0.7323
19605TIP3   OH280305   6.119   7.037   3.408 -0.2404 -0.0305 -0.0869
19605TIP3    H180306   6.105   7.132   3.414  2.2904  0.4766 -1.2868
19605TIP3    H280307   6.100   7.005   3.496  1.9331  2.1158  1.2558
19606TIP3   OH280308   4.688   0.704   4.850  0.0300 -0.2642  0.1845
19606TIP3    H180309   4.683   0.796   4.873 -0.5013 -0.6912  1.8369
19606TIP3    H280310   4.701   0.659   4.934  2.7420 -1.4953 -0.8438
19607TIP3   OH280311   3.888   7.159   5.641 -0.7952 -0.3473  0.3393
19607TIP3    H180312   3.811   7.134   5.591  0.9126 -1.6035 -1.7615
19607TIP3    H280313   3.954   7.093   5.619  1.6586  2.0931  0.0553
19608TIP3   OH280314   2.454   7.049   4.295 -0.0195 -0.3142 -0.3423
19608TIP3    H180315   2.469   7.031   4.388 -0.8903  0.1734 -0.1039
19608TIP3    H280316   2.409   6.971   4.263 -0.4126 -0.1657 -0.1665
19609TIP3   OH280317   3.856   0.127   3.229  0.7326  0.3686 -0.0625
19609TIP3    H180318   3.781   0.183   3.248 -0.1535 -0.7653 -0.0829
19609TIP3    H280319   3.816   0.044   3.201  2.0020 -0.4819  0.6160
19610TIP3   OH280320   3.159   6.654   4.038 -0.2727 -0.5489 -0.1027
19610TIP3    H180321   3.164   6.694   4.125 -0.4018  0.5760 -0.5914
19610TIP3    H280322   3.067   6.636   4.025 -0.4471  0.5976 -0.5599
19611TIP3   OH280323   1.528   6.312   4.705 -0.5644  0.1005  0.6224
19611TIP3    H180324   1.621   6.303   4.686 -1.0952 -0.7117 -1.6792
19611TIP3    H280325   1.497   6.381   4.647 -1.8220 -1.0584 -0.1257
19612TIP3   OH280326   1.909   0.539   4.565  0.2285 -0.1801 -0.4254
19612TIP3    H180327   1.820   0.563   4.593  0.0169  1.0066 -2.0654
19612TIP3    H280328   1.899   0.514   4.474  1.7249  0.7453 -0.8522
19613TIP3   OH280329   1.501   7.298   3.744  0.3430 -0.1039 -0.5434
19613TIP3    H180330   1.547   7.370   3.701 -0.1567  0.2528 -0.4768
19613TIP3    H280331   1.409   7.316   3.730  0.2168 -0.7768 -0.5989
19614TIP3   OH280332   2.448   3.521   3.190 -0.4849 -0.0030  0.6139
19614TIP3    H180333   2.377   3.457   3.190 -1.7074  1.3109  2.1184
19614TIP3    H280334   2.441   3.564   3.105 -1.0948 -0.3090  0.5083
19615TIP3   OH280335   2.737   1.243   4.459 -0.2552  0.4624  0.9337
19615TIP3    H180336   2.779   1.159   4.439 -0.8149  0.2301  0.7252
19615TIP3    H280337   2.802   1.309   4.435 -1.3635  0.2597 -2.9743
19616TIP3   OH280338   1.525   1.480   3.085 -0.6273 -0.3280 -0.2520
19616TIP3    H180339   1.512   1.495   2.991 -1.3628  0.7736  0.0134
19616TIP3    H280340   1.618   1.457   3.093 -0.6853 -0.9697 -1.3110
19617TIP3   OH280341   1.299   5.362   5.380 -0.0802  0.1054 -0.0346
19617TIP3    H180342   1.392   5.368   5.402  0.2849  0.1613 -1.5375
19617TIP3    H280343   1.282   5.268   5.374  0.2725  0.1084 -1.2986
19618TIP3   OH280344   4.077   6.242   5.698 -0.1673  0.1602 -0.1553
19618TIP3    H180345   4.101   6.152   5.677  1.3878  0.6496 -0.5375
19618TIP3    H280346   4.113   6.256   5.786  0.5005  0.7475 -0.5255
19619TIP3   OH280347   1.618   3.839   4.070 -0.2701 -0.1149  0.0097
19619TIP3    H180348   1.671   3.860   3.993 -0.2328 -3.4724 -0.9613
19619TIP3    H280349   1.681   3.837   4.142  0.0578  0.8302 -0.2364
19620TIP3   OH280350   4.109   6.306   5.386 -0.1667 -0.3274 -0.5663
19620TIP3    H180351   4.059   6.358   5.449 -0.9154 -1.0245 -0.5827
19620TIP3    H280352   4.195   6.349   5.383  0.0219 -0.5203  1.2363
19621TIP3   OH280353   2.901   1.137   4.832 -0.3069  0.2957  0.0610
19621TIP3    H180354   2.857   1.214   4.796  1.6076  0.7976 -1.3061
19621TIP3    H280355   2.871   1.064   4.779 -0.6010  0.4106  0.0715
19622TIP3   OH280356   2.335   6.280   5.407  0.2709  0.7308  0.3833
19622TIP3    H180357   2.307   6.313   5.493  0.2963 -1.1509  1.1555
19622TIP3    H280358   2.274   6.209   5.388  0.6901  0.6872 -0.8382
19623TIP3   OH280359   1.918   0.954   1.971 -0.3871  0.1603  0.0441
19623TIP3    H180360   1.973   0.905   2.032 -0.6939 -0.5255 -0.2238
19623TIP3    H280361   1.844   0.896   1.954 -0.8071  0.7620 -0.1987
19624TIP3   OH280362   4.748   6.267   4.745 -0.6454 -0.2754  0.5237
19624TIP3    H180363   4.806   6.311   4.808 -1.8345 -1.2294  2.3117
19624TIP3    H280364   4.800   6.193   4.714 -0.0184  0.2559  0.2618
19625TIP3   OH280365   1.800   6.191   4.384  0.0645  0.2625  0.3807
19625TIP3    H180366   1.841   6.271   4.352  0.9838 -0.0344  0.8178
19625TIP3    H280367   1.754   6.155   4.308 -1.5469  1.9580  0.5357
19626TIP3   OH280368   2.060   6.004   5.775 -0.2317 -0.1058 -0.3789
19626TIP3    H180369   2.035   6.056   5.699  1.3372  2.7006  0.9948
19626TIP3    H280370   2.152   5.982   5.761 -0.6914 -2.0043 -0.6229
19627TIP3   OH280371   2.696   5.373   3.720  0.6927 -0.4107 -0.5622
19627TIP3    H180372   2.670   5.462   3.695 -0.0583 -1.0891 -2.2899
19627TIP3    H280373   2.659   5.362   3.808  0.9139  1.0272 -0.2654
19628TIP3   OH280374   3.874   0.140   4.119 -0.5868  0.4829 -0.1312
19628TIP3    H180375   3.892   0.228   4.086 -1.5184  0.9407  0.5648
19628TIP3    H280376   3.901   0.144   4.211 -0.4835 -0.0076 -0.1426
19629TIP3   OH280377   2.915   6.972   5.608 -0.5831  0.1051  0.1807
19629TIP3    H180378   2.861   6.927   5.673  0.0731 -2.1654 -0.7920
19629TIP3    H280379   2.870   7.056   5.593 -1.9309 -0.2830  1.9055
19630TIP3   OH280380   2.931   6.282   5.582 -0.3110  0.4847 -0.1059
19630TIP3    H180381   2.864   6.294   5.515 -1.7033 -2.1659  0.7169
19630TIP3    H280382   2.940   6.368   5.623 -2.7420  1.0551 -0.6704
19631TIP3   OH280383   3.028   5.399   4.423  0.0453 -0.2066 -0.0693
19631TIP3    H180384   3.070   5.335   4.365  0.7084 -0.5074  0.7386
19631TIP3    H280385   3.088   5.473   4.423  0.0128 -0.1809  0.1785
19632TIP3   OH280386   3.726   7.167   3.384 -0.2713  0.0889  0.0092
19632TIP3    H180387   3.682   7.088   3.414 -0.4184 -0.8700 -2.5998
19632TIP3    H280388   3.819   7.151   3.399 -0.4332  0.1867  1.1567
19633TIP3   OH280389   3.379   6.568   5.851 -0.0229 -0.1661  0.2775
19633TIP3    H180390   3.449   6.626   5.883  0.5111 -0.7741  0.2178
19633TIP3    H280391   3.368   6.594   5.759  0.8209 -0.7338  0.0032
19634TIP3   OH280392   2.413   6.609   2.920  0.0642  0.0682  0.2368
19634TIP3    H180393   2.328   6.614   2.877  0.4038  0.9863 -0.3678
19634TIP3    H280394   2.474   6.645   2.855  0.9603 -0.9139  0.5208
19635TIP3   OH280395   4.194   0.230   4.603  0.4253  0.1844  0.0017
19635TIP3    H180396   4.228   0.161   4.661 -2.5878  1.2055  3.0980
19635TIP3    H280397   4.260   0.299   4.607  1.7495 -1.0270 -0.3073
19636TIP3   OH280398   0.696   6.266   5.015 -0.4522  0.4446  0.1435
19636TIP3    H180399   0.641   6.297   5.088 -0.3611 -0.7009  0.6971
19636TIP3    H280400   0.686   6.334   4.948 -0.9668  1.2386  1.0091
19637TIP3   OH280401   2.857   7.283   6.444 -0.5836 -0.8045  0.1599
19637TIP3    H180402   2.849   7.378   6.452  0.8281 -0.6819  0.1173
19637TIP3    H280403   2.947   7.264   6.470 -0.7113 -2.0790 -0.3134
19638TIP3   OH280404   4.643   0.656   5.967 -0.0303 -0.3291 -0.1143
19638TIP3    H180405   4.728   0.686   6.001  0.1935 -0.9351 -0.1350
19638TIP3    H280406   4.598   0.621   6.044 -0.5300  0.5929  0.0224
19639TIP3   OH280407   4.845   0.832   3.823 -0.3316  0.2631  0.0065
19639TIP3    H180408   4.859   0.742   3.794 -0.8999 -0.0038  0.5271
19639TIP3    H280409   4.751   0.837   3.839 -0.1437  0.6050  1.0742
19640TIP3   OH280410   2.542   5.257   5.976 -0.7920  0.0689 -0.3750
19640TIP3    H180411   2.611   5.205   5.934 -0.9533 -0.4141 -0.0434
19640TIP3    H280412   2.520   5.324   5.911  0.0629  0.2940 -0.4423
19641TIP3   OH280413   4.796   0.409   5.787  0.0111  0.0315  0.0374
19641TIP3    H180414   4.748   0.327   5.802  1.4559 -0.9900 -0.7876
19641TIP3    H280415   4.827   0.434   5.874 -0.2268 -0.4148  0.2545
19642TIP3   OH280416   0.691   0.221   5.051  0.3527 -0.5456 -0.3849
19642TIP3    H180417   0.683   0.154   4.983 -1.3369 -2.2372  1.4286
19642TIP3    H280418   0.607   0.268   5.049  0.2753 -0.6359  0.5591
19643TIP3   OH280419   5.385   0.063   4.560 -0.1964 -0.0970 -0.3854
19643TIP3    H180420   5.410   0.013   4.637  0.9433 -1.6605 -1.7537
19643TIP3    H280421   5.300   0.026   4.534 -1.8270  2.1180  1.5436
19644TIP3   OH280422   4.845   5.473   5.202 -0.6716  0.6473  0.2969
19644TIP3    H180423   4.929   5.499   5.240 -0.4931  1.6361 -0.7407
19644TIP3    H280424   4.781   5.532   5.242 -0.6923  0.7274  0.1457
19645TIP3   OH280425   2.677   6.201   5.840  0.1361  0.4055 -0.4615
19645TIP3    H180426   2.703   6.138   5.908 -0.6247  1.1032  0.4828
19645TIP3    H280427   2.581   6.200   5.841  0.0958 -0.3094 -2.2193
19646TIP3   OH280428   1.311   6.876   5.672  0.1537 -0.6686 -0.4537
19646TIP3    H180429   1.234   6.907   5.626 -0.4851  0.3912  1.2606
19646TIP3    H280430   1.345   6.953   5.718  1.8970 -1.2416 -0.7108
19647TIP3   OH280431   3.402   1.610   4.488 -0.5899  0.4322  0.0184
19647TIP3    H180432   3.369   1.535   4.439 -1.9993  0.8546  0.3021
19647TIP3    H280433   3.397   1.584   4.579 -0.0260  0.4578  0.0584
19648TIP3   OH280434   4.485   5.801   5.030 -0.2124 -0.0953  0.3725
19648TIP3    H180435   4.564   5.850   5.006  0.9665 -1.1379  1.9931
19648TIP3    H280436   4.506   5.710   5.010 -1.9173 -0.1250 -1.4153
19649TIP3   OH280437   5.623   5.262   2.752  0.5444  0.1556 -0.6628
19649TIP3    H180438   5.718   5.268   2.761  0.5546 -0.8111 -0.1448
19649TIP3    H280439   5.609   5.254   2.657  1.0282 -0.5439 -0.6793
19650TIP3   OH280440   5.912   7.275   2.863  0.3323 -0.1425 -0.0869
19650TIP3    H180441   5.955   7.357   2.840 -0.3047  0.4662  0.8572
19650TIP3    H280442   5.963   7.240   2.936  0.7637 -0.7357 -0.6583
19651TIP3   OH280443   2.200   6.040   3.266  0.0427  0.0675 -0.6622
19651TIP3    H180444   2.227   6.063   3.177  1.0130  3.5786  0.4633
19651TIP3    H280445   2.104   6.040   3.262  0.0007  2.9858 -1.1263
19652TIP3   OH280446   2.070   6.865   3.666  0.0498 -0.7097  0.0844
19652TIP3    H180447   2.120   6.911   3.734 -1.4896  0.9709  0.1303
19652TIP3    H280448   2.134   6.847   3.597  0.8834  0.7564  0.4569
19653TIP3   OH280449   1.943   4.322   4.888 -0.0000  0.1768 -0.4171
19653TIP3    H180450   2.016   4.268   4.921  0.5819  0.1319 -1.7370
19653TIP3    H280451   1.983   4.407   4.872 -0.4710  0.4340 -0.2029
19654TIP3   OH280452   5.002   6.134   4.896 -0.0477 -0.3162 -0.0934
19654TIP3    H180453   5.018   6.057   4.842 -1.3873 -0.0989 -0.8257
19654TIP3    H280454   5.038   6.207   4.845  1.9370 -0.5240  0.9560
19655TIP3   OH280455   3.454   0.428   4.942  0.8546  0.7503 -0.4672
19655TIP3    H180456   3.507   0.407   4.865  0.4105  0.7067 -0.7674
19655TIP3    H280457   3.493   0.508   4.978  0.4906  1.3104 -1.2925
19656TIP3   OH280458   2.073   4.290   2.689 -0.0600  0.5641  0.3737
19656TIP3    H180459   2.013   4.340   2.633 -0.2054 -0.2222 -0.1713
19656TIP3    H280460   2.142   4.353   2.712 -0.0152  0.8958 -0.6609
19657TIP3   OH280461   0.739   3.763   4.424  0.5306  0.5714 -0.0727
19657TIP3    H180462   0.727   3.671   4.449 -0.6613  0.6133 -0.4443
19657TIP3    H280463   0.821   3.788   4.465  0.8666 -0.6620  0.0467
19658TIP3   OH280464   3.231   5.747   6.146  0.4535 -0.2616  0.7025
19658TIP3    H180465   3.262   5.829   6.107  0.1263  0.0510  1.0890
19658TIP3    H280466   3.156   5.774   6.200 -1.5031 -1.1932 -1.4619
19659TIP3   OH280467   2.308   3.459   5.823  0.6559 -0.1881  0.0028
19659TIP3    H180468   2.249   3.534   5.812 -0.2313 -1.1025 -1.7004
19659TIP3    H280469   2.268   3.408   5.894  0.1824 -0.0461 -0.1554
19660TIP3   OH280470   1.326   5.540   4.652  0.2403 -0.1153 -0.8452
19660TIP3    H180471   1.257   5.581   4.600 -0.3826 -0.0068  0.0526
19660TIP3    H280472   1.365   5.612   4.702  0.7511 -0.2372 -1.0693
19661TIP3   OH280473   3.371   5.316   5.579  0.4501 -0.0637  0.7588
19661TIP3    H180474   3.292   5.371   5.575  0.8472  0.4216 -0.7369
19661TIP3    H280475   3.443   5.378   5.588  1.2195 -0.0035 -4.4010
19662TIP3   OH280476   1.855   0.286   5.993 -0.6708 -0.4408 -0.0181
19662TIP3    H180477   1.807   0.211   6.029 -1.9954  0.1001 -0.6146
19662TIP3    H280478   1.806   0.309   5.913  0.0234  0.7330 -0.1151
19663TIP3   OH280479   2.474   6.860   5.650  0.1304  0.0576 -0.6912
19663TIP3    H180480   2.416   6.828   5.719  1.8454 -1.0647  0.2532
19663TIP3    H280481   2.453   6.953   5.644 -1.0828 -0.1282  0.3171
19664TIP3   OH280482   3.850   5.734   5.447  0.0256 -0.4035 -0.1616
19664TIP3    H180483   3.915   5.776   5.390 -0.2342 -2.7992 -2.3011
19664TIP3    H280484   3.780   5.799   5.456  1.1055  0.8519 -0.7184
19665TIP3   OH280485   3.384   6.631   5.572  0.5759 -0.1433  0.4565
19665TIP3    H180486   3.298   6.665   5.549  0.2982 -1.4870 -0.5673
19665TIP3    H280487   3.410   6.578   5.496  1.0310 -2.1019  1.9299
19666TIP3   OH280488   2.524   6.954   4.526 -0.4002 -0.2003 -0.3994
19666TIP3    H180489   2.554   6.863   4.530  0.6032  0.1597  0.7942
19666TIP3    H280490   2.580   7.000   4.589  0.1892  1.5552 -2.1623
19667TIP3   OH280491   3.465   3.621   3.431  0.7669  0.2210  0.1928
19667TIP3    H180492   3.417   3.540   3.414  1.9697 -0.0643 -2.0905
19667TIP3    H280493   3.465   3.630   3.526  1.0796 -2.7684  0.5262
19668TIP3   OH280494   3.753   6.339   5.124 -0.5837  1.0142 -0.1922
19668TIP3    H180495   3.782   6.392   5.198  0.5895 -0.8832  0.7462
19668TIP3    H280496   3.833   6.322   5.074 -0.9652  0.2462 -0.5475
19669TIP3   OH280497   3.436   7.147   4.288  0.6182  0.2367 -0.2004
19669TIP3    H180498   3.520   7.193   4.280  0.2801  0.7425 -0.9401
19669TIP3    H280499   3.402   7.144   4.198 -0.2775  0.2671  0.1297
19670TIP3   OH280500   1.729   7.237   2.750 -0.2631  0.7528 -0.0023
19670TIP3    H180501   1.702   7.184   2.825  0.3177  2.9730  1.8625
19670TIP3    H280502   1.654   7.294   2.732  0.6647  2.3034  0.8839
19671TIP3   OH280503   1.758   4.855   5.334  0.1535 -0.3368 -0.3117
19671TIP3    H180504   1.782   4.763   5.328  1.5527  0.1397 -3.1758
19671TIP3    H280505   1.674   4.861   5.289 -0.8789 -0.4943  1.5536
19672TIP3   OH280506   4.722   1.678   3.108  0.2357  0.1838  0.7866
19672TIP3    H180507   4.803   1.633   3.131  1.3008  1.0212 -1.2129
19672TIP3    H280508   4.655   1.610   3.110  1.6256 -1.3115 -1.1432
19673TIP3   OH280509   4.113   1.572   4.381  0.0872  0.2387 -0.5266
19673TIP3    H180510   4.146   1.542   4.466 -1.0519  1.6121  0.4281
19673TIP3    H280511   4.119   1.668   4.385 -3.2558  0.5180 -0.5862
19674TIP3   OH280512   4.435   1.679   3.970  0.1765  0.2590 -0.4213
19674TIP3    H180513   4.400   1.627   4.042 -0.4021 -0.1493 -0.9862
19674TIP3    H280514   4.482   1.751   4.012 -0.1068 -0.0065  0.3555
19675TIP3   OH280515   2.510   7.005   4.028 -0.4362 -0.1707  0.0898
19675TIP3    H180516   2.510   7.025   4.122 -1.4201  1.6349 -0.2704
19675TIP3    H280517   2.440   7.060   3.992 -0.2869 -1.0980 -1.6500
19676TIP3   OH280518   3.011   0.950   2.459 -0.6388 -0.6886  0.1942
19676TIP3    H180519   3.033   0.857   2.456  0.7725 -0.3637  0.1197
19676TIP3    H280520   2.922   0.955   2.424 -0.4216 -1.9134 -0.5659
19677TIP3   OH280521   2.388   5.537   1.440  0.6952 -0.0068 -0.2539
19677TIP3    H180522   2.467   5.496   1.475  1.2442 -0.4423 -1.9417
19677TIP3    H280523   2.411   5.630   1.430  1.7327 -0.4687 -2.6410
19678TIP3   OH280524   1.394   5.422   5.019 -0.0991  0.0190 -0.0628
19678TIP3    H180525   1.323   5.448   5.079  0.3044  0.1665  0.3506
19678TIP3    H280526   1.473   5.460   5.057  0.4970 -1.7761  0.5162
19679TIP3   OH280527   2.950   6.678   5.097 -0.5069  0.1908 -0.4223
19679TIP3    H180528   2.928   6.720   5.180  1.0449 -0.9114  0.5714
19679TIP3    H280529   2.991   6.747   5.045 -0.1712  0.5291  0.2809
19680TIP3   OH280530   2.834   5.793   3.200 -0.4245 -0.6364  0.2609
19680TIP3    H180531   2.927   5.770   3.198 -0.0386  0.8351  1.0134
19680TIP3    H280532   2.827   5.860   3.268 -1.6531  0.9107 -1.3522
19681TIP3   OH280533   5.835   1.621   3.421  0.0473 -0.2835  0.3339
19681TIP3    H180534   5.914   1.668   3.444  0.7501 -0.8698 -0.8093
19681TIP3    H280535   5.763   1.679   3.446  0.8824  0.9693 -0.1753
19682TIP3   OH280536   3.915   5.143   4.675  0.0034  0.4114  0.1751
19682TIP3    H180537   3.820   5.144   4.659 -0.1655 -0.2116  1.1035
19682TIP3    H280538   3.925   5.191   4.757  0.2076 -1.8501  1.5056
19683TIP3   OH280539   2.933   6.806   5.953  0.4032 -0.1836 -0.0954
19683TIP3    H180540   2.872   6.833   5.885  1.2013  2.4410  0.1748
19683TIP3    H280541   2.944   6.884   6.008  0.9768 -1.7816  2.1264
19684TIP3   OH280542   5.419   0.994   4.771 -0.5568  0.4670  0.3633
19684TIP3    H180543   5.346   1.011   4.830 -1.0884  0.2940 -0.2514
19684TIP3    H280544   5.495   0.989   4.829 -1.3207 -1.4676  1.2283
19685TIP3   OH280545   5.122   6.937   5.347 -0.3883 -0.0068 -0.0310
19685TIP3    H180546   5.179   6.941   5.423 -0.2850 -1.6867 -0.0026
19685TIP3    H280547   5.056   6.870   5.369 -1.3362  0.6716 -0.7474
19686TIP3   OH280548   0.220   6.398   3.951 -0.2331 -0.6794  0.0794
19686TIP3    H180549   0.151   6.347   3.994  2.1360 -2.0337  2.4100
19686TIP3    H280550   0.302   6.359   3.982  1.6269  2.2659 -0.9295
19687TIP3   OH280551   4.669   5.482   5.900 -0.1173  0.6906 -0.5362
19687TIP3    H180552   4.596   5.528   5.942 -0.0306 -0.4766  0.9408
19687TIP3    H280553   4.636   5.394   5.884  0.0702  0.9299 -2.3963
19688TIP3   OH280554   6.262   5.997   4.741  0.1865 -0.3285 -0.0965
19688TIP3    H180555   6.301   6.077   4.707  0.7303 -0.0317  1.2084
19688TIP3    H280556   6.171   6.000   4.710  0.6704 -0.0827 -1.5227
19689TIP3   OH280557   4.450   5.455   5.026  0.0523 -0.3488  0.1930
19689TIP3    H180558   4.460   5.454   5.121  0.4501 -0.9506  0.1501
19689TIP3    H280559   4.359   5.428   5.011  0.6742 -2.6690  0.3391
19690TIP3   OH280560   4.679   3.927   5.007 -0.3880  0.3400  0.0936
19690TIP3    H180561   4.731   3.981   4.948 -0.0464  0.8770  0.8823
19690TIP3    H280562   4.589   3.938   4.976 -0.0930 -0.2956 -1.0398
19691TIP3   OH280563   5.005   5.945   5.115 -0.1048 -0.3519 -0.1533
19691TIP3    H180564   4.964   6.008   5.055 -2.1288 -1.1030  0.3796
19691TIP3    H280565   4.947   5.944   5.191  2.0560  0.0655  1.5422
19692TIP3   OH280566   3.682   4.556   5.763  0.0998 -0.0931 -0.0143
19692TIP3    H180567   3.604   4.530   5.714  0.1053 -1.2273  0.5521
19692TIP3    H280568   3.684   4.495   5.837  0.4668  1.1611  1.0166
19693TIP3   OH280569   3.540   7.029   3.948 -0.3172  0.0838  0.4319
19693TIP3    H180570   3.583   6.990   4.025 -2.6074 -0.0286  1.6868
19693TIP3    H280571   3.453   7.053   3.978 -1.3403 -0.1363 -2.1970
19694TIP3   OH280572   3.868   5.844   4.362  0.3769 -0.1560 -0.2371
19694TIP3    H180573   3.832   5.845   4.451  1.0193 -1.7734  0.0551
19694TIP3    H280574   3.822   5.772   4.318  0.4493  0.2875 -1.0461
19695TIP3   OH280575   6.842   4.393   3.465 -0.2942 -0.1318 -0.1263
19695TIP3    H180576   6.756   4.359   3.440 -0.4514 -0.4931  0.9079
19695TIP3    H280577   6.831   4.422   3.555  0.3735  0.8453 -0.3553
19696TIP3   OH280578   1.741   4.053   5.786  0.8516  0.1107 -0.4682
19696TIP3    H180579   1.678   4.082   5.720  1.5455 -0.5428 -1.4222
19696TIP3    H280580   1.687   4.018   5.857  0.0937  1.2475 -0.4755
19697TIP3   OH280581   6.226   6.137   6.191 -0.6140 -0.2445 -0.1465
19697TIP3    H180582   6.311   6.182   6.191 -0.9251  0.3476 -0.8920
19697TIP3    H280583   6.223   6.090   6.108 -0.2836 -1.6869  0.6371
19698TIP3   OH280584   3.477   5.476   4.020 -0.1088 -0.1283  0.2579
19698TIP3    H180585   3.413   5.418   4.061  0.9073 -0.9515  0.6907
19698TIP3    H280586   3.523   5.421   3.957  0.1661  0.4707 -0.0743
19699TIP3   OH280587   6.138   6.166   2.888  0.5082 -0.1371 -0.1485
19699TIP3    H180588   6.129   6.132   2.977  2.3939 -2.3099 -0.7494
19699TIP3    H280589   6.050   6.195   2.865 -0.3417 -1.0132  1.8316
19700TIP3   OH280590   4.623   6.787   4.682 -0.4861 -0.2877 -0.2602
19700TIP3    H180591   4.693   6.722   4.690  0.8703  1.2473  0.6872
19700TIP3    H280592   4.630   6.819   4.592  0.9689  0.8488  0.2278
19701TIP3   OH280593   5.372   6.917   3.190  0.0834  0.7573  0.3571
19701TIP3    H180594   5.450   6.876   3.152  0.5755 -0.4131  2.5124
19701TIP3    H280595   5.405   6.998   3.229  0.0294  0.7721  0.3715
19702TIP3   OH280596   3.407   6.255   2.972  0.5923 -0.2796 -0.1592
19702TIP3    H180597   3.378   6.228   2.885 -0.5331 -2.0997  0.7526
19702TIP3    H280598   3.490   6.209   2.984  1.4220  1.0175 -0.7755
19703TIP3   OH280599   4.269   1.298   3.707 -0.2896  0.4479 -0.0417
19703TIP3    H180600   4.193   1.259   3.664  0.9060 -0.4264 -1.4215
19703TIP3    H280601   4.250   1.392   3.710 -0.6853  0.4393 -1.9036
19704TIP3   OH280602   5.399   4.849   5.225  0.5228  0.1217  0.2123
19704TIP3    H180603   5.319   4.895   5.200 -0.5783 -1.5137  0.6384
19704TIP3    H280604   5.389   4.833   5.319  0.8569 -1.0392  0.0553
19705TIP3   OH280605   4.141   5.401   5.273  0.2313  0.0741  0.7804
19705TIP3    H180606   4.054   5.365   5.283  0.9978 -2.2204 -0.5514
19705TIP3    H280607   4.155   5.454   5.352 -0.8490 -2.7282  2.8979
19706TIP3   OH280608   5.511   1.529   4.543  0.1477  0.4070  0.0760
19706TIP3    H180609   5.602   1.509   4.523  0.5955  0.7539  1.7263
19706TIP3    H280610   5.470   1.444   4.557 -0.1406  0.1661 -2.1173
19707TIP3   OH280611   6.032   5.121   3.157  0.5102  0.0254  0.1280
19707TIP3    H180612   6.060   5.175   3.083  0.7852  0.3935  0.4965
19707TIP3    H280613   6.108   5.065   3.176  0.7231  0.4689  0.6182
19708TIP3   OH280614   4.293   0.682   4.640 -0.1271  0.2555 -0.2813
19708TIP3    H180615   4.382   0.659   4.667  0.3787  0.1969 -1.9363
19708TIP3    H280616   4.277   0.767   4.680  0.1449 -0.3732  1.1848
19709TIP3   OH280617   3.570   3.727   2.873  0.4782 -0.3423 -0.4160
19709TIP3    H180618   3.482   3.690   2.867 -0.0827  0.8705  0.1475
19709TIP3    H280619   3.617   3.669   2.932  0.0904 -1.0573 -0.8057
19710TIP3   OH280620   4.181   5.358   2.408  0.7336 -0.6670 -0.5885
19710TIP3    H180621   4.158   5.409   2.486 -1.0752  0.1392 -1.6152
19710TIP3    H280622   4.175   5.267   2.436 -1.7033 -0.4250 -0.2545
19711TIP3   OH280623   5.420   7.160   5.559  0.1147 -0.0455  0.3131
19711TIP3    H180624   5.500   7.110   5.571  0.1877 -0.2686 -1.0329
19711TIP3    H280625   5.446   7.251   5.573  0.1881 -0.2819  1.7868
19712TIP3   OH280626   3.566   0.479   5.575 -0.3567  0.0811 -0.3714
19712TIP3    H180627   3.567   0.522   5.661 -2.0496 -2.5786  1.0711
19712TIP3    H280628   3.473   0.481   5.549 -0.5696 -3.1089  0.0089
19713TIP3   OH280629   6.062   5.902   4.205 -0.0338  0.3997  0.5439
19713TIP3    H180630   6.098   5.931   4.121 -0.7706 -0.4346 -0.0644
19713TIP3    H280631   6.078   5.808   4.207 -2.1855  0.0114  0.2675
19714TIP3   OH280632   3.127   0.517   4.738  0.0324  0.1605 -0.6199
19714TIP3    H180633   3.144   0.468   4.658 -2.9425 -1.2145 -0.4915
19714TIP3    H280634   3.161   0.461   4.808  3.2602  1.6763 -0.9063
19715TIP3   OH280635   4.961   0.539   5.350  0.1752 -0.3352  0.4112
19715TIP3    H180636   4.909   0.560   5.428  0.6095 -0.4677  0.7359
19715TIP3    H280637   4.929   0.453   5.322 -1.3109  0.5391 -0.6747
19716TIP3   OH280638   5.743   1.053   2.677  0.1943  0.6025 -0.2031
19716TIP3    H180639   5.654   1.040   2.643  0.3026  2.4067 -1.2666
19716TIP3    H280640   5.799   1.048   2.600  0.9229  0.3755  0.3392
19717TIP3   OH280641   4.762   4.828   5.345  0.4203  0.6198  0.2008
19717TIP3    H180642   4.728   4.749   5.302 -0.3296  1.0534 -0.0029
19717TIP3    H280643   4.853   4.833   5.316  0.1038  0.5456 -0.8272
19718TIP3   OH280644   3.450   4.555   5.563 -0.1695 -0.7234 -0.2701
19718TIP3    H180645   3.373   4.576   5.510  0.0432 -0.6758 -0.5560
19718TIP3    H280646   3.468   4.463   5.544  0.7018 -0.3447 -1.2787
19719TIP3   OH280647   3.466   1.742   5.382  0.5480 -0.4784 -0.7375
19719TIP3    H180648   3.552   1.710   5.408  0.5410 -0.6286 -0.8994
19719TIP3    H280649   3.424   1.668   5.338 -0.7175 -1.2673  1.7071
19720TIP3   OH280650   3.952   6.106   6.416 -0.4423 -0.6004 -0.0902
19720TIP3    H180651   3.879   6.119   6.477 -1.1723 -0.3739 -0.9917
19720TIP3    H280652   4.010   6.044   6.459 -0.7310 -0.1074  1.0189
19721TIP3   OH280653   4.160   2.151   3.543  0.1431 -0.1526  0.3225
19721TIP3    H180654   4.169   2.230   3.488  2.4841 -1.1831 -0.8444
19721TIP3    H280655   4.161   2.079   3.481  1.7683 -1.2885  1.6421
19722TIP3   OH280656   3.690   7.162   6.512 -0.1305 -0.5313 -0.1432
19722TIP3    H180657   3.643   7.079   6.505 -0.1938 -0.5425  0.4033
19722TIP3    H280658   3.666   7.210   6.434 -0.1339 -1.0113 -0.4381
19723TIP3   OH280659   6.268   6.095   4.412 -0.2843 -0.0864 -0.2627
19723TIP3    H180660   6.226   6.105   4.326 -0.4263 -0.8587 -0.2891
19723TIP3    H280661   6.349   6.146   4.406  0.2924 -1.0956 -1.2633
19724TIP3   OH280662   3.905   4.711   2.938 -0.0391  0.0420 -0.6776
19724TIP3    H180663   3.833   4.725   2.999  0.0350 -0.7731 -0.4013
19724TIP3    H280664   3.938   4.624   2.958  0.6487  0.1717 -1.1965
19725TIP3   OH280665   5.471   5.695   4.028 -0.3425 -0.1847 -0.1138
19725TIP3    H180666   5.551   5.740   4.001 -0.3552  1.4317  2.4052
19725TIP3    H280667   5.495   5.602   4.025  1.3952  0.2381 -0.1895
19726TIP3   OH280668   4.592   6.410   4.561 -0.0100  0.0986  0.5369
19726TIP3    H180669   4.672   6.459   4.540 -1.0485  0.7318 -2.2720
19726TIP3    H280670   4.611   6.366   4.643  3.1748  0.3979  0.0257
19727TIP3   OH280671   3.319   0.561   5.465 -0.1921 -0.2248 -0.1850
19727TIP3    H180672   3.239   0.588   5.509  0.7126 -0.0164  1.3596
19727TIP3    H280673   3.318   0.609   5.382 -1.5979 -0.1296 -0.1157
19728TIP3   OH280674   6.109   1.007   4.776  0.0815  0.1737  0.1917
19728TIP3    H180675   6.135   1.095   4.750  2.2597 -1.0650 -2.0341
19728TIP3    H280676   6.188   0.967   4.812 -0.2124 -1.6560 -1.0815
19729TIP3   OH280677   3.136   1.806   5.800  0.5321 -0.1880 -0.2280
19729TIP3    H180678   3.203   1.789   5.734  1.4065 -1.9886  1.0826
19729TIP3    H280679   3.114   1.720   5.835  0.0216  0.7254  1.7550
19730TIP3   OH280680   4.875   5.628   5.477 -0.0219 -0.2947  0.0391
19730TIP3    H180681   4.789   5.635   5.434  1.1768 -0.2207 -2.4537
19730TIP3    H280682   4.858   5.649   5.569 -2.5727  0.3018 -0.5327
19731TIP3   OH280683   3.643   7.315   5.771  0.2323 -0.1928  0.5078
19731TIP3    H180684   3.721   7.301   5.825  0.7988  2.8008  0.5263
19731TIP3    H280685   3.667   7.279   5.685  1.4267  0.2058  0.6661
19732TIP3   OH280686   2.480   5.560   3.443 -0.1904  0.1843 -0.9548
19732TIP3    H180687   2.427   5.483   3.463 -0.2655  0.5624  0.3643
19732TIP3    H280688   2.500   5.598   3.529  2.6904 -0.2499 -1.3618
19733TIP3   OH280689   2.374   6.615   5.422  0.2808  0.1866  0.8509
19733TIP3    H180690   2.322   6.674   5.367  1.7415  1.4712  0.7916
19733TIP3    H280691   2.400   6.669   5.497 -1.6291 -1.5282  2.8045
19734TIP3   OH280692   4.636   1.557   3.818  0.3581  0.9640  0.3691
19734TIP3    H180693   4.671   1.468   3.814  1.5256  1.3544  1.6645
19734TIP3    H280694   4.570   1.554   3.887 -0.1317  0.9176 -0.1025
19735TIP3   OH280695   4.792   0.566   5.082  0.0128  0.3839  0.4970
19735TIP3    H180696   4.868   0.619   5.104  0.4052  0.1753 -0.3478
19735TIP3    H280697   4.807   0.482   5.125  0.3654  0.2686  0.1517
19736TIP3   OH280698   3.448   5.847   3.812  0.1029 -0.6800  0.4761
19736TIP3    H180699   3.368   5.802   3.786  0.8753 -2.3323  0.8496
19736TIP3    H280700   3.443   5.853   3.908  0.4298 -0.7913  0.5013
19737TIP3   OH280701   5.776   6.853   5.306 -0.3883 -0.1068  0.0888
19737TIP3    H180702   5.819   6.908   5.240 -0.7140  0.2759  0.1940
19737TIP3    H280703   5.791   6.899   5.389  0.0828 -0.6235  0.2925
19738TIP3   OH280704   4.738   6.955   5.581  0.2371 -0.3077  0.3892
19738TIP3    H180705   4.651   6.933   5.550  0.5499 -1.9975  0.6336
19738TIP3    H280706   4.733   6.944   5.676  0.3761  0.8130  0.5275
19739TIP3   OH280707   6.515   1.420   5.157  0.2985  0.6122 -0.2742
19739TIP3    H180708   6.606   1.449   5.160  0.2536  0.7989 -0.6483
19739TIP3    H280709   6.471   1.484   5.100  0.3439 -0.5491 -1.6554
19740TIP3   OH280710   6.302   5.943   5.374 -0.4579 -0.8045 -0.6376
19740TIP3    H180711   6.396   5.930   5.364 -0.3452 -0.3064 -0.2381
19740TIP3    H280712   6.292   5.980   5.461 -0.8357  1.0446 -1.4431
19741TIP3   OH280713   4.264   1.544   3.461  0.3632  0.5426 -0.2377
19741TIP3    H180714   4.355   1.518   3.473  0.4018  1.0951  0.7150
19741TIP3    H280715   4.253   1.622   3.516 -0.1481  1.6742 -1.9186
19742TIP3   OH280716   3.363   5.853   5.852 -0.4455 -0.1519 -0.0501
19742TIP3    H180717   3.352   5.910   5.928 -2.2888 -0.3738 -0.1355
19742TIP3    H280718   3.338   5.907   5.777 -2.3179 -1.0551 -0.1222
19743TIP3   OH280719   5.094   6.546   4.586  0.0102  0.4540  0.8377
19743TIP3    H180720   5.053   6.469   4.547  0.2928  1.0156 -0.6003
19743TIP3    H280721   5.103   6.608   4.513  3.4167  0.3279  1.0654
19744TIP3   OH280722   4.032   6.830   5.254 -0.3514 -0.2704 -0.6322
19744TIP3    H180723   3.956   6.812   5.310  0.8010 -1.5863  0.5788
19744TIP3    H280724   4.085   6.750   5.260  0.6918  0.2841 -2.1744
19745TIP3   OH280725   4.598   0.774   3.550 -0.3896  0.2469 -0.0940
19745TIP3    H180726   4.555   0.698   3.589  0.2479 -0.5715 -0.9501
19745TIP3    H280727   4.595   0.841   3.618 -0.3847 -0.7589  0.9132
19746TIP3   OH280728   4.351   6.676   4.779 -0.3838  0.1425  0.3838
19746TIP3    H180729   4.309   6.662   4.695  0.9272  0.8607 -0.4143
19746TIP3    H280730   4.425   6.734   4.759  0.6871 -0.7074  1.8133
19747TIP3   OH280731   2.497   5.766   3.072  0.4582 -0.1568  0.0739
19747TIP3    H180732   2.582   5.720   3.075  1.3995  1.4994 -0.5126
19747TIP3    H280733   2.480   5.791   3.163  0.4676 -0.7288  0.2335
19748TIP3   OH280734   4.839   6.101   5.528  0.1573 -0.2571  0.4026
19748TIP3    H180735   4.825   6.195   5.519 -2.2952 -0.8200 -2.5884
19748TIP3    H280736   4.752   6.066   5.546  0.6717 -2.1907 -0.8080
19749TIP3   OH280737   4.256   5.034   4.842 -0.2734 -0.0362  0.0776
19749TIP3    H180738   4.334   5.013   4.892 -0.5214  1.0099  0.9247
19749TIP3    H280739   4.183   5.014   4.901 -0.6317 -0.5016 -0.5148
19750TIP3   OH280740   4.163   5.556   5.484 -0.2216  0.0063 -0.0723
19750TIP3    H180741   4.130   5.545   5.573 -0.3691  1.4470  0.0725
19750TIP3    H280742   4.219   5.634   5.490  1.8377 -1.3997 -0.6794
19751TIP3   OH280743   4.598   0.902   5.465 -0.5816  0.2849  0.2877
19751TIP3    H180744   4.629   0.845   5.535 -0.8269  0.5170  0.5866
19751TIP3    H280745   4.658   0.977   5.466 -0.5127  0.2311  0.1733
19752TIP3   OH280746   3.561   6.236   5.381  0.1987 -0.0630  0.6506
19752TIP3    H180747   3.529   6.323   5.356 -0.7475 -0.4032  0.6652
19752TIP3    H280748   3.656   6.242   5.373  0.2445  1.4513  2.1704
19753TIP3   OH280749   6.209   6.826   4.146  0.3537 -0.2342  0.2663
19753TIP3    H180750   6.190   6.867   4.062  0.4264 -2.1234 -0.6864
19753TIP3    H280751   6.204   6.898   4.209 -0.3006  1.0859 -1.2573
19754TIP3   OH280752   6.202   6.066   3.161 -0.5694  0.6386  0.0149
19754TIP3    H180753   6.232   6.081   3.251  0.3105  0.9253 -0.3239
19754TIP3    H280754   6.116   6.106   3.157 -2.1472 -2.3815  1.7495
19755TIP3   OH280755   5.096   4.941   5.575  0.1165 -0.2160  0.2772
19755TIP3    H180756   5.106   4.874   5.507 -0.7392 -0.6436  0.5632
19755TIP3    H280757   5.025   4.908   5.631  1.6421 -0.4667  2.0914
19756TIP3   OH280758   4.457   6.491   4.970 -0.1027 -0.1019 -0.9090
19756TIP3    H180759   4.388   6.427   4.957 -0.5242  0.4330 -1.3240
19756TIP3    H280760   4.434   6.564   4.912 -0.8243  1.3572  1.1384
19757TIP3   OH280761   6.259   0.038   6.041 -0.0866  0.1297  0.3216
19757TIP3    H180762   6.204   0.106   6.081  0.2626  0.2082  0.6772
19757TIP3    H280763   6.329   0.024   6.105 -1.8848 -2.8403  1.7633
19758TIP3   OH280764   6.743   5.506   4.962  0.3005 -0.0946  0.4590
19758TIP3    H180765   6.832   5.540   4.968  0.2647  0.3869 -1.5036
19758TIP3    H280766   6.709   5.512   5.051  2.2058 -0.2386  1.2163
19759TIP3   OH280767   5.296   5.381   3.995  0.5764  0.5213  0.5022
19759TIP3    H180768   5.379   5.357   4.036  0.9941 -0.0459 -0.6371
19759TIP3    H280769   5.322   5.435   3.920 -0.0784  0.2006  0.0421
19760TIP3   OH280770   4.081   6.301   4.643  0.1494  0.1553  0.8041
19760TIP3    H180771   4.030   6.372   4.606 -0.6945 -0.9916 -0.2933
19760TIP3    H280772   4.140   6.275   4.573  0.0739 -0.5890  1.0114
19761TIP3   OH280773   4.997   7.013   5.984  0.6120 -0.0857 -0.7665
19761TIP3    H180774   5.029   6.935   5.939  2.1024  0.9986 -1.6134
19761TIP3    H280775   5.060   7.028   6.054 -0.2717 -0.2671  0.0695
19762TIP3   OH280776   3.927   0.748   2.145 -0.3508 -0.9002 -0.1602
19762TIP3    H180777   3.990   0.688   2.184  0.6760 -0.1824 -0.6946
19762TIP3    H280778   3.892   0.701   2.070 -2.6899 -2.4807  1.8285
19763TIP3   OH280779   3.483   0.832   4.133  0.5985 -0.0282 -0.1479
19763TIP3    H180780   3.440   0.804   4.214 -2.1214 -0.4451 -1.6672
19763TIP3    H280781   3.489   0.753   4.080  2.4832  0.2086 -0.3052
19764TIP3   OH280782   3.902   7.011   5.091 -0.4262  0.2595  0.7867
19764TIP3    H180783   3.977   6.983   5.144 -0.2963  0.8656  0.9282
19764TIP3    H280784   3.831   6.953   5.118 -0.5193  0.9485  2.0845
19765TIP3   OH280785   4.849   5.207   3.568  0.3518 -0.0074 -0.0527
19765TIP3    H180786   4.874   5.168   3.484  0.9327  0.6869 -0.2049
19765TIP3    H280787   4.878   5.144   3.633  0.0796 -0.4569 -0.3575
19766TIP3   OH280788   4.526   5.858   3.557  0.4808 -0.4007 -0.7857
19766TIP3    H180789   4.508   5.892   3.645  0.6192 -1.9740 -0.1294
19766TIP3    H280790   4.440   5.846   3.518  0.4261  0.5581 -0.9797
19767TIP3   OH280791   5.132   6.245   5.533 -0.1700  0.0410  0.1109
19767TIP3    H180792   5.091   6.164   5.502  0.1668  0.1514 -0.6309
19767TIP3    H280793   5.158   6.226   5.624 -0.8135 -0.4104  0.2035
19768TIP3   OH280794   4.895   0.337   3.429 -0.7925  0.3864 -0.3952
19768TIP3    H180795   4.807   0.302   3.426 -0.5032 -0.6768  2.2813
19768TIP3    H280796   4.884   0.431   3.418 -2.1236  0.1224 -1.3947
19769TIP3   OH280797   5.142   6.892   4.783 -0.8204  0.8116  0.5940
19769TIP3    H180798   5.072   6.931   4.731  0.7488  0.6998 -1.6871
19769TIP3    H280799   5.114   6.801   4.796 -1.2414  0.8457 -0.0363
19770TIP3   OH280800   6.718   0.080   4.615 -0.1100  0.7372 -0.4307
19770TIP3    H180801   6.658   0.057   4.687 -1.9978  0.7193 -1.9714
19770TIP3    H280802   6.804   0.087   4.657 -0.6850 -2.0362  1.3553
19771TIP3   OH280803   3.919   0.674   4.590  0.6801 -0.3003  0.4859
19771TIP3    H180804   3.825   0.690   4.598  0.6161  0.3790 -1.2346
19771TIP3    H280805   3.957   0.711   4.670 -0.4420  0.1237  0.8301
19772TIP3   OH280806   2.473   6.615   4.543 -0.0675  0.1856 -0.5698
19772TIP3    H180807   2.475   6.519   4.553 -1.5349  0.1562 -0.4726
19772TIP3    H280808   2.382   6.638   4.556  0.4204  1.7015  0.2532
19773TIP3   OH280809   3.779   6.715   4.853  1.0770 -0.2801 -0.2981
19773TIP3    H180810   3.860   6.753   4.820  0.0583  0.8245 -1.5613
19773TIP3    H280811   3.722   6.791   4.870  0.0432 -1.0886 -0.1084
19774TIP3   OH280812   4.783   5.734   4.738  0.9255 -0.3157 -0.2469
19774TIP3    H180813   4.718   5.673   4.773  0.3657  0.0728 -0.5969
19774TIP3    H280814   4.866   5.704   4.774  0.7286 -1.5999 -0.8247
19775TIP3   OH280815   3.237   3.805   5.101 -0.1331 -0.4916  0.3332
19775TIP3    H180816   3.197   3.771   5.021 -2.1857  2.0246  0.2309
19775TIP3    H280817   3.218   3.739   5.167 -1.8704 -0.7656 -0.4064
19776TIP3   OH280818   6.106   6.301   5.193 -0.0952 -0.0056 -0.2018
19776TIP3    H180819   6.082   6.208   5.192  0.0284 -0.0454  0.3747
19776TIP3    H280820   6.201   6.301   5.190 -0.0933  0.1003 -0.1489
19777TIP3   OH280821   5.758   6.943   5.901  0.3590  0.3298  0.4111
19777TIP3    H180822   5.736   7.002   5.972  1.4496  1.3845 -0.1204
19777TIP3    H280823   5.773   6.858   5.944 -0.2509  0.6523  1.2732
19778TIP3   OH280824   5.511   5.810   6.005 -0.2736 -0.1125  0.3085
19778TIP3    H180825   5.541   5.876   6.068  0.6570  0.4668 -0.7256
19778TIP3    H280826   5.416   5.808   6.015 -0.4828  2.6225 -0.8554
19779TIP3   OH280827   6.056   0.804   4.582  0.7141  0.6159 -0.2428
19779TIP3    H180828   6.060   0.865   4.656  2.5355  0.9182 -0.5812
19779TIP3    H280829   6.138   0.756   4.585 -0.4399 -1.4335 -0.3462
19780TIP3   OH280830   3.609   6.829   5.579 -0.5654  0.1367  0.4056
19780TIP3    H180831   3.521   6.798   5.556  0.6766 -2.1087 -1.5617
19780TIP3    H280832   3.627   6.789   5.664  0.2842 -3.1755 -1.2588
19781TIP3   OH280833   4.683   1.966   2.801 -0.1411 -0.4194 -0.8169
19781TIP3    H180834   4.613   1.922   2.752  0.2703  1.3195 -3.0723
19781TIP3    H280835   4.761   1.954   2.747  0.1311  2.3777 -1.1140
19782TIP3   OH280836   4.314   1.249   4.247 -0.2469  0.0793  0.6366
19782TIP3    H180837   4.363   1.166   4.247 -1.2523 -0.5363  0.1466
19782TIP3    H280838   4.250   1.239   4.317 -1.0567  0.0032 -0.0958
19783TIP3   OH280839   4.979   1.550   4.485  0.0479 -0.1048  0.0964
19783TIP3    H180840   4.911   1.589   4.540 -0.6921 -0.0083 -0.8954
19783TIP3    H280841   4.934   1.487   4.430  0.4406  1.3747 -1.9557
19784TIP3   OH280842   6.873   6.064   3.463  0.0936  0.4561  0.4787
19784TIP3    H180843   6.950   6.033   3.510  0.5178  0.2068 -0.3685
19784TIP3    H280844   6.907   6.125   3.398 -0.6282  1.8623  1.3998
19785TIP3   OH280845   6.035   6.181   5.475  0.2352  0.7555 -0.2672
19785TIP3    H180846   6.032   6.276   5.462 -1.7056  0.7808  0.2840
19785TIP3    H280847   6.078   6.170   5.559  1.2190  1.0951 -0.7113
19786TIP3   OH280848   3.239   6.396   1.324  0.6316 -0.6179 -0.1966
19786TIP3    H180849   3.184   6.320   1.304 -0.7848 -0.2734  2.1124
19786TIP3    H280850   3.327   6.361   1.333  0.3404 -1.6300 -1.2153
19787TIP3   OH280851   5.979   5.344   4.027  0.1628  0.0705  0.0996
19787TIP3    H180852   5.923   5.286   4.077 -1.4094  0.2271 -1.4336
19787TIP3    H280853   6.055   5.290   4.004 -0.3555 -0.7818  0.3833
19788TIP3   OH280854   5.735   4.958   4.193  0.8590 -0.2866 -0.4599
19788TIP3    H180855   5.702   4.953   4.283  0.4173  0.0901 -0.6009
19788TIP3    H280856   5.779   4.874   4.179  2.6167  0.4014  0.7622
19789TIP3   OH280857   6.693   5.157   5.737  0.0503 -0.7103  0.5463
19789TIP3    H180858   6.740   5.173   5.819 -0.4677  0.7219  0.5753
19789TIP3    H280859   6.720   5.069   5.711  3.2323  0.3175  0.2417
19790TIP3   OH280860   3.436   1.038   2.826  0.3044 -0.2750  1.0078
19790TIP3    H180861   3.392   1.122   2.817 -0.1804 -0.4913  1.3741
19790TIP3    H280862   3.417   0.992   2.745  2.4818  0.8522 -0.2191
19791TIP3   OH280863   2.736   7.010   5.186  0.1630  0.4720 -0.3983
19791TIP3    H180864   2.750   6.992   5.093  2.0702 -0.3917  0.0226
19791TIP3    H280865   2.759   7.103   5.196  0.8056  0.3426 -0.6458
19792TIP3   OH280866   4.406   6.122   5.811 -0.5212 -0.3147  0.1616
19792TIP3    H180867   4.450   6.048   5.853  0.6223  0.1090 -0.2658
19792TIP3    H280868   4.392   6.185   5.882  1.5411  0.4652 -0.0699
19793TIP3   OH280869   3.498   6.669   4.520  0.2044  0.9249  0.3329
19793TIP3    H180870   3.512   6.759   4.491  0.3560  1.0205  0.6941
19793TIP3    H280871   3.585   6.629   4.516  0.5206  1.3831  2.1355
19794TIP3   OH280872   2.295   1.093   4.673 -0.0145  0.5312 -0.0598
19794TIP3    H180873   2.218   1.107   4.617  1.2652  1.2424 -1.6796
19794TIP3    H280874   2.314   1.180   4.709  0.1650  0.4045  0.1454
19795TIP3   OH280875   2.991   3.150   3.319  0.8617 -0.3408  0.2299
19795TIP3    H180876   3.065   3.099   3.352  0.7176 -1.8496 -1.6839
19795TIP3    H280877   3.018   3.175   3.230 -0.4110  0.1636 -0.0186
19796TIP3   OH280878   4.311   0.585   4.372 -0.2326  0.3993  0.5056
19796TIP3    H180879   4.244   0.517   4.381  1.5195 -1.2529  1.5732
19796TIP3    H280880   4.328   0.614   4.462 -1.7041  3.0454 -0.0237
19797TIP3   OH280881   5.620   0.682   4.188 -0.3389 -0.2424  0.2349
19797TIP3    H180882   5.681   0.609   4.185 -1.7518 -1.4170 -0.7135
19797TIP3    H280883   5.566   0.664   4.265 -0.7233 -0.2288 -0.0317
19798TIP3   OH280884   4.826   6.530   4.439  0.3498  0.2751 -0.8972
19798TIP3    H180885   4.818   6.543   4.345  0.8475  1.3189 -0.8074
19798TIP3    H280886   4.824   6.619   4.476 -2.5617 -0.2240  0.3059
19799TIP3   OH280887   5.100   6.805   5.842 -0.1418  0.1888  0.1577
19799TIP3    H180888   5.127   6.842   5.758  0.4725 -0.1900  0.1814
19799TIP3    H280889   5.175   6.752   5.870 -0.9070 -0.8913  0.2253
19800TIP3   OH280890   4.041   6.359   3.505 -0.6726  0.2014  0.6134
19800TIP3    H180891   3.990   6.396   3.433  0.4245  1.7644  0.5909
19800TIP3    H280892   4.031   6.422   3.576  0.7587  0.2779  0.7749
19801TIP3   OH280893   3.818   7.073   6.149  0.1659  0.1117 -0.6778
19801TIP3    H180894   3.739   7.121   6.172 -0.0684  0.1171 -1.4706
19801TIP3    H280895   3.788   6.984   6.131  0.4560 -0.0859 -0.1863
19802TIP3   OH280896   4.288   1.753   1.552  0.3050 -0.1871 -0.1758
19802TIP3    H180897   4.339   1.726   1.628 -0.4157  0.7754  0.6848
19802TIP3    H280898   4.353   1.777   1.486  0.9308 -1.7867 -0.1393
19803TIP3   OH280899   4.676   0.006   5.237  0.0518  0.2885 -0.6894
19803TIP3    H180900   4.732  -0.044   5.296 -1.5195 -0.9078 -0.1539
19803TIP3    H280901   4.726   0.013   5.156  1.4929  0.3768  0.2006
19804TIP3   OH280902   4.293   7.340   4.119  0.0576 -0.1832 -0.0943
19804TIP3    H180903   4.262   7.314   4.205 -1.8917  1.2804 -0.3202
19804TIP3    H280904   4.301   7.436   4.125  0.9469 -0.1794 -1.2126
19805TIP3   OH280905   6.593   6.516   3.610  0.2596 -0.0018  0.1248
19805TIP3    H180906   6.583   6.607   3.637  0.0417  0.1650 -0.5248
19805TIP3    H280907   6.519   6.471   3.650 -0.3897  0.3510 -0.6506
19806TIP3   OH280908   5.746   0.915   4.240 -0.1001 -0.1241  0.1461
19806TIP3    H180909   5.786   0.878   4.319  0.2821  0.0017  0.0133
19806TIP3    H280910   5.705   0.840   4.196 -0.5619 -0.1425  0.6116
19807TIP3   OH280911   1.813   5.793   3.724  0.5883 -0.2537 -0.1491
19807TIP3    H180912   1.721   5.788   3.748  0.5163 -0.9666 -0.5563
19807TIP3    H280913   1.826   5.884   3.697 -0.4560 -0.5910 -1.8834
19808TIP3   OH280914   4.717   0.254   4.271 -0.5254 -0.3515  0.3413
19808TIP3    H180915   4.627   0.286   4.275  0.4402  2.5513 -0.2700
19808TIP3    H280916   4.761   0.298   4.344  0.9660  0.1671 -0.8579
19809TIP3   OH280917   6.688   6.670   6.067  0.6859 -0.0555 -0.1297
19809TIP3    H180918   6.614   6.663   6.127  1.5732 -0.9101  0.8734
19809TIP3    H280919   6.652   6.646   5.981 -1.1296  3.3733 -0.4171
19810TIP3   OH280920   5.850   5.162   5.279  0.1370 -0.3665 -0.4200
19810TIP3    H180921   5.945   5.151   5.279  0.0888 -0.8178 -0.0880
19810TIP3    H280922   5.815   5.073   5.290 -0.3539 -0.3861 -2.0523
19811TIP3   OH280923   5.412   0.639   5.064 -0.5505  0.0863  0.4650
19811TIP3    H180924   5.351   0.576   5.101  0.3417 -0.0671  1.6796
19811TIP3    H280925   5.412   0.620   4.970  0.6651 -2.5620  0.9618
19812TIP3   OH280926   2.816   6.016   4.794  0.5897 -0.4607  0.0745
19812TIP3    H180927   2.754   6.044   4.862  0.2495 -1.0342  0.0047
19812TIP3    H280928   2.837   5.925   4.817  0.6563 -0.5767 -0.4485
19813TIP3   OH280929   3.795   6.775   3.498  0.1903 -0.0314  0.1604
19813TIP3    H180930   3.732   6.799   3.565 -1.5000 -1.1911 -0.9548
19813TIP3    H280931   3.827   6.689   3.525 -1.4458 -1.0819 -1.1269
19814TIP3   OH280932   5.640   6.978   5.604 -0.1503  0.3148  0.6973
19814TIP3    H180933   5.592   6.897   5.619  1.1697 -0.9139 -1.3928
19814TIP3    H280934   5.713   6.976   5.666  0.1294 -0.3332  0.3527
19815TIP3   OH280935   3.779   6.788   4.274 -0.3595  0.6817  0.0223
19815TIP3    H180936   3.839   6.857   4.245 -0.5320  1.7230  2.0088
19815TIP3    H280937   3.699   6.803   4.224  0.8517 -0.4073 -2.2805
19816TIP3   OH280938   5.515   5.492   4.484  0.2625  0.6825 -0.2809
19816TIP3    H180939   5.474   5.565   4.439  2.2767  1.6024 -0.6909
19816TIP3    H280940   5.520   5.519   4.576  0.3290  0.7351 -0.3003
19817TIP3   OH280941   7.038   6.912   5.558 -0.0855  0.3089  0.2489
19817TIP3    H180942   7.047   6.878   5.648 -1.2167  1.7709  0.9286
19817TIP3    H280943   6.972   6.856   5.517  1.8128 -1.5947 -0.3217
19818TIP3   OH280944   3.990   6.482   5.582  0.0587  0.1453 -0.5835
19818TIP3    H180945   3.998   6.399   5.629  2.0890  0.1346 -0.9026
19818TIP3    H280946   4.009   6.548   5.647  2.2478  0.1611 -1.2118
19819TIP3   OH280947   5.464   6.221   5.065  0.4922 -0.2737 -0.5376
19819TIP3    H180948   5.546   6.172   5.074  0.4158 -0.5261 -1.1933
19819TIP3    H280949   5.489   6.304   5.024  0.6397  0.3023  0.6959
19820TIP3   OH280950   0.360   3.518   5.271 -0.1647  0.0621 -0.2379
19820TIP3    H180951   0.277   3.500   5.227 -0.2121  0.0601 -0.1485
19820TIP3    H280952   0.380   3.437   5.318  0.5502 -0.4042 -1.3097
19821TIP3   OH280953   2.163   5.266   6.318 -0.4063 -0.5703  1.2206
19821TIP3    H180954   2.103   5.337   6.343 -0.4496 -0.3364  0.4718
19821TIP3    H280955   2.250   5.307   6.320 -0.2731 -0.8977  2.2643
19822TIP3   OH280956   5.635   5.755   4.810 -0.0974  0.5014  0.3145
19822TIP3    H180957   5.643   5.662   4.789 -1.8818  0.2254  0.8223
19822TIP3    H280958   5.574   5.790   4.745  0.9278  1.4216 -0.1647
19823TIP3   OH280959   4.937   5.332   4.922  0.1336 -0.4015 -0.4003
19823TIP3    H180960   4.886   5.321   5.003 -2.7229 -0.1294 -2.1240
19823TIP3    H280961   4.974   5.420   4.929 -0.2360 -0.3047  0.5064
19824TIP3   OH280962   5.442   2.876   3.159  0.8217 -0.1291  0.6559
19824TIP3    H180963   5.446   2.954   3.215 -1.2595 -0.0558  0.7461
19824TIP3    H280964   5.494   2.810   3.206 -0.3869  0.1156  2.3939
19825TIP3   OH280965   3.324   0.390   4.577 -0.3466 -0.0595  0.1545
19825TIP3    H180966   3.340   0.304   4.614  0.4401 -0.1156 -0.3009
19825TIP3    H280967   3.406   0.437   4.591 -0.3369  0.1947 -0.7560
19826TIP3   OH280968   4.678   7.180   4.485 -0.3170 -0.1379  0.0487
19826TIP3    H180969   4.712   7.218   4.403 -2.2464  0.5805 -0.4451
19826TIP3    H280970   4.651   7.092   4.462  1.7279 -0.9284  0.5850
19827TIP3   OH280971   6.422   7.220   5.405  0.3545 -0.1810  0.2037
19827TIP3    H180972   6.378   7.282   5.463  0.9503  1.8356 -1.4168
19827TIP3    H280973   6.515   7.238   5.416  0.5162 -0.5665 -0.5049
19828TIP3   OH280974   4.229   1.145   3.290  0.0731  0.4978  0.6189
19828TIP3    H180975   4.284   1.113   3.218 -0.9807 -0.1455  0.0977
19828TIP3    H280976   4.187   1.067   3.325  0.5205  0.8087  1.9146
19829TIP3   OH280977   3.666   1.437   4.607 -0.1442  0.1965 -0.3817
19829TIP3    H180978   3.687   1.503   4.542  2.1226  0.6293  0.7175
19829TIP3    H280979   3.600   1.381   4.565 -2.1796  3.1777 -1.2679
19830TIP3   OH280980   4.342   6.451   5.306 -0.5253 -0.2542 -0.7277
19830TIP3    H180981   4.369   6.490   5.389  0.1608  1.3107 -1.6688
19830TIP3    H280982   4.421   6.407   5.274  0.0908  1.7054 -1.9873
19831TIP3   OH280983   5.714   6.849   4.932  0.5034 -0.0911  0.4662
19831TIP3    H180984   5.793   6.902   4.917  0.5572 -0.3436 -0.1622
19831TIP3    H280985   5.659   6.903   4.988  1.2168  0.0001  1.0886
19832TIP3   OH280986   0.132   7.306   4.553 -0.0299 -0.2422 -0.2979
19832TIP3    H180987   0.117   7.355   4.633 -0.9783 -1.3714  0.2284
19832TIP3    H280988   0.129   7.372   4.484  0.6324  0.7102  0.5672
19833TIP3   OH280989   6.137   0.414   3.161  0.1313 -0.3703 -0.2111
19833TIP3    H180990   6.059   0.468   3.150  1.1396  1.0207 -0.7289
19833TIP3    H280991   6.153   0.412   3.255  0.5032  0.8533 -0.2421
19834TIP3   OH280992   5.969   0.229   5.162  0.0670 -0.4671 -0.6218
19834TIP3    H180993   5.954   0.138   5.186 -1.9835  0.5157  2.1312
19834TIP3    H280994   5.926   0.240   5.078 -0.4671 -1.8363 -0.5292
19835TIP3   OH280995   4.503   6.914   5.457 -0.2953  0.3718  0.3666
19835TIP3    H180996   4.429   6.972   5.476  0.0563  0.5806  1.0931
19835TIP3    H280997   4.544   6.953   5.380  1.6316  2.7389  2.5041
19836TIP3   OH280998   3.709   5.882   6.208  0.2155  0.3206  0.2462
19836TIP3    H180999   3.693   5.819   6.278  0.7356  1.0012  0.9904
19836TIP3    H281000   3.641   5.949   6.220 -0.1726  0.0417 -0.3765
19837TIP3   OH281001   0.470   2.489   2.838 -0.4819  0.0491  0.1235
19837TIP3    H181002   0.491   2.544   2.763  0.7314 -1.6035 -0.7775
19837TIP3    H281003   0.547   2.434   2.850  0.0987  1.4739  3.6906
19838TIP3   OH281004   7.268   6.295   4.955 -0.2768 -0.0421  1.0335
19838TIP3    H181005   7.181   6.294   4.996 -0.0075 -0.3304  1.6136
19838TIP3    H281006   7.329   6.304   5.029  0.1486  1.1637  0.5608
19839TIP3   OH281007   4.738   2.260   4.637  0.3453  0.0406 -0.0836
19839TIP3    H181008   4.728   2.355   4.629 -2.1447 -0.1396  0.4496
19839TIP3    H281009   4.659   2.225   4.595 -0.6977 -1.6720  3.1766
19840TIP3   OH281010   5.233   0.945   5.003 -0.0537  0.0310 -0.3391
19840TIP3    H181011   5.266   0.933   5.093  1.9184  0.5205 -0.9724
19840TIP3    H281012   5.212   0.856   4.974 -0.3458 -0.1768  0.4747
19841TIP3   OH281013   4.187   6.321   5.941  0.3323  1.0696  0.2292
19841TIP3    H181014   4.167   6.356   6.027 -1.3808  2.4443 -0.6947
19841TIP3    H281015   4.262   6.373   5.910  2.1243 -0.6156  1.5643
19842TIP3   OH281016   5.162   5.582   4.197  0.3601 -0.4006  0.0336
19842TIP3    H181017   5.067   5.575   4.205  0.2044  0.4348 -0.9895
19842TIP3    H281018   5.187   5.506   4.143  0.2885 -0.6471  0.3436
19843TIP3   OH281019   6.475   6.363   6.170 -0.1760  0.2820 -0.4159
19843TIP3    H181020   6.476   6.439   6.228 -1.2770 -0.1826  0.2352
19843TIP3    H281021   6.492   6.399   6.083 -0.5584  1.2602 -0.0990
19844TIP3   OH281022   3.292   5.351   5.184 -0.0918 -0.2140 -0.0093
19844TIP3    H181023   3.310   5.278   5.243  2.2501 -0.6923 -1.2607
19844TIP3    H281024   3.334   5.427   5.224  2.1358 -0.6881 -1.3668
19845TIP3   OH281025   5.792   0.186   4.939  0.1258 -0.1328 -0.1266
19845TIP3    H181026   5.810   0.144   4.855 -1.5168  1.6894 -1.4370
19845TIP3    H281027   5.704   0.223   4.928 -0.4075 -0.4985  2.6622
19846TIP3   OH281028   6.204   5.983   5.982  0.0039  0.5489  0.1219
19846TIP3    H181029   6.240   5.911   5.931  0.6154 -0.7524  2.3015
19846TIP3    H281030   6.150   5.940   6.049  0.0566  2.1405  1.2106
19847TIP3   OH281031   6.363   5.951   2.970 -0.2426 -0.1176 -0.3005
19847TIP3    H181032   6.411   6.024   2.931  0.1340 -0.1420  0.1182
19847TIP3    H281033   6.296   5.992   3.024 -0.0201 -0.0770 -0.0517
19848TIP3   OH281034   4.565   1.418   3.138 -0.3891 -0.2646  0.2640
19848TIP3    H181035   4.497   1.468   3.093  1.5931  1.0019 -1.3865
19848TIP3    H281036   4.626   1.392   3.069  0.7753 -1.4388  1.7056
19849TIP3   OH281037   4.327   4.923   6.015 -0.0891  0.5319  0.4563
19849TIP3    H181038   4.288   4.835   6.019  0.6969  0.2334  1.8055
19849TIP3    H281039   4.401   4.914   5.956  0.6170  0.0312  1.4106
19850TIP3   OH281040   3.802   6.757   4.536 -0.4475 -0.2704  0.0058
19850TIP3    H181041   3.794   6.793   4.448  0.3298  1.1470  0.4984
19850TIP3    H281042   3.849   6.824   4.586 -1.6224 -0.6734  1.7217
19851TIP3   OH281043   5.511   5.859   4.585  0.0725 -0.2140 -0.1569
19851TIP3    H181044   5.477   5.930   4.531  0.9285 -0.7442 -1.4482
19851TIP3    H281045   5.597   5.839   4.546  0.0653 -1.5835  0.4995
19852TIP3   OH281046   5.656   4.705   5.607  0.4267 -0.1044 -0.2048
19852TIP3    H181047   5.749   4.723   5.619  0.4111  0.7882 -1.2597
19852TIP3    H281048   5.629   4.659   5.686  1.5643  0.4253  0.4961
19853TIP3   OH281049   5.989   6.889   3.098  0.2706  0.0957 -0.3080
19853TIP3    H181050   6.079   6.920   3.093  0.8701 -1.5135  0.3081
19853TIP3    H281051   5.971   6.882   3.191 -0.1836 -0.4646 -0.4332
19854TIP3   OH281052   5.672   7.262   5.963 -0.2451  0.3621  0.1279
19854TIP3    H181053   5.577   7.264   5.952 -0.4745 -0.0324  1.8486
19854TIP3    H281054   5.686   7.214   6.044  1.4216  0.6123  0.0166
19855TIP3   OH281055   5.868   6.187   3.552  0.0378  0.0905  0.0262
19855TIP3    H181056   5.857   6.150   3.640 -0.5747  0.5786  0.1555
19855TIP3    H281057   5.906   6.274   3.567  2.0690 -0.7151 -0.3065
19856TIP3   OH281058   0.913   0.173   5.251  0.3941 -0.1219 -0.0682
19856TIP3    H181059   0.870   0.180   5.336 -0.2165  0.7779 -0.4427
19856TIP3    H281060   0.842   0.180   5.187  1.0431  1.0525 -0.6862
19857TIP3   OH281061   1.349   6.726   4.786 -0.4489 -0.1720 -0.0073
19857TIP3    H181062   1.363   6.734   4.692 -1.6278  0.6165 -0.1259
19857TIP3    H281063   1.374   6.636   4.806  1.5386  0.1882 -0.7497
19858TIP3   OH281064   4.704   0.517   4.438 -0.0945  0.0716  0.0994
19858TIP3    H181065   4.665   0.532   4.352 -1.1193 -1.9682  0.1793
19858TIP3    H281066   4.799   0.518   4.422 -0.2914 -1.1494 -1.2156
19859TIP3   OH281067   4.715   0.615   2.845 -0.4624  0.2324 -0.2128
19859TIP3    H181068   4.767   0.559   2.787  0.6835  1.5382 -0.4694
19859TIP3    H281069   4.626   0.611   2.808 -0.2713 -0.9117 -0.5796
19860TIP3   OH281070   4.489   3.925   5.502 -0.0604  0.4493 -0.3302
19860TIP3    H181071   4.443   3.900   5.582 -1.0025 -0.1992 -1.0691
19860TIP3    H281072   4.420   3.950   5.441  0.6593  0.9752 -0.9379
19861TIP3   OH281073   7.170   5.769   3.285 -0.2184 -0.4147 -0.1118
19861TIP3    H181074   7.188   5.705   3.216 -0.9244 -0.2962 -0.4138
19861TIP3    H281075   7.078   5.754   3.308 -0.3152  0.3296 -0.0094
19862TIP3   OH281076   1.299   3.731   2.859  0.1430 -0.5499  0.2779
19862TIP3    H181077   1.385   3.704   2.889 -0.2700 -1.3191  0.7773
19862TIP3    H281078   1.315   3.776   2.776  1.0048 -0.8012  0.3089
19863TIP3   OH281079   2.931   6.920   3.605  0.0597  0.3014  0.9370
19863TIP3    H181080   2.953   7.001   3.651  1.2630 -0.2969  1.4035
19863TIP3    H281081   2.859   6.946   3.547 -0.4742  1.3985  2.0509
19864TIP3   OH281082   5.101   0.089   5.436  0.1753 -0.3596 -0.1289
19864TIP3    H181083   5.119   0.009   5.485 -0.4085 -0.2678  0.2331
19864TIP3    H281084   5.091   0.157   5.502 -1.2301 -0.3553 -0.3394
19865TIP3   OH281085   4.564   0.036   4.872 -0.0971  0.4582  0.0647
19865TIP3    H181086   4.601   0.073   4.792  3.3079 -0.8659  0.9459
19865TIP3    H281087   4.556  -0.058   4.854  0.9126  0.1190  1.3488
19866TIP3   OH281088   5.332   4.301   4.161 -0.2847 -0.0635 -0.4387
19866TIP3    H181089   5.387   4.238   4.207 -0.2170  0.4385  0.1912
19866TIP3    H281090   5.389   4.377   4.149 -0.6204  0.1919 -0.4226
19867TIP3   OH281091   5.854   4.666   4.173 -0.1661 -0.4569 -0.1196
19867TIP3    H181092   5.797   4.651   4.097 -0.2877 -1.0144  0.0767
19867TIP3    H281093   5.883   4.578   4.198 -0.0579 -0.2640  0.4285
19868TIP3   OH281094   5.526   1.469   5.056  0.1953 -0.3184 -0.1098
19868TIP3    H181095   5.550   1.558   5.082 -0.0186 -0.9270  2.2715
19868TIP3    H281096   5.592   1.414   5.098 -1.9565 -1.5660  1.7426
19869TIP3   OH281097   0.994   4.197   3.513  0.7478 -0.1276 -0.2305
19869TIP3    H181098   1.052   4.169   3.585 -0.2717 -1.0577  0.2469
19869TIP3    H281099   1.023   4.145   3.438  0.1872 -0.9954  0.1454
19870TIP3   OH281100   4.671   6.346   5.038  0.4126  0.0554  0.1384
19870TIP3    H181101   4.697   6.300   4.957 -0.8359  0.3936 -0.4669
19870TIP3    H281102   4.588   6.389   5.015  0.4734  0.8304  1.3599
19871TIP3   OH281103   7.338   0.039   5.051 -0.0543 -0.2781 -0.2572
19871TIP3    H181104   7.244   0.018   5.047 -0.1554  0.4420 -3.7979
19871TIP3    H281105   7.374  -0.023   5.114 -2.8533 -0.8107  0.8857
19872TIP3   OH281106   7.329   1.243   3.995 -0.2752 -0.3206 -0.5392
19872TIP3    H181107   7.289   1.200   4.071  1.5109 -0.7400  0.1783
19872TIP3    H281108   7.310   1.184   3.922  0.7176 -1.5060  0.1465
19873TIP3   OH281109   5.816   0.329   2.881 -0.5989  0.4580 -0.6835
19873TIP3    H181110   5.726   0.353   2.857 -0.0829  3.2373  0.0668
19873TIP3    H281111   5.870   0.401   2.849  1.2149 -0.4404  0.2603
19874TIP3   OH281112   0.257   6.281   4.938 -0.1065 -0.4384  0.2747
19874TIP3    H181113   0.205   6.226   4.997 -0.1860  0.7285  1.3098
19874TIP3    H281114   0.204   6.289   4.860  0.2650 -2.5102 -0.2206
19875TIP3   OH281115   6.378   5.537   4.285  0.4362  0.7982 -0.1009
19875TIP3    H181116   6.405   5.612   4.233  0.7579 -0.5860 -1.9831
19875TIP3    H281117   6.369   5.571   4.374  1.9345  2.7409 -0.6620
19876TIP3   OH281118   0.460   7.080   4.099 -0.5416 -0.0745 -0.1002
19876TIP3    H181119   0.393   7.133   4.057 -0.6989 -0.8181 -0.7954
19876TIP3    H281120   0.442   6.990   4.070  0.1769 -0.4079  0.4610
19877TIP3   OH281121   0.059   6.411   5.551 -0.0527  0.2466 -0.6308
19877TIP3    H181122   0.112   6.333   5.565 -1.4651 -0.8371 -1.1729
19877TIP3    H281123   0.012   6.394   5.469 -0.9980  1.2973 -0.3279
19878TIP3   OH281124   7.025   7.313   4.934  1.1499  0.1544 -0.8301
19878TIP3    H181125   7.014   7.345   5.024 -1.7545 -0.0940 -1.0654
19878TIP3    H281126   7.044   7.219   4.944 -2.4651 -0.6126 -0.5270
19879TIP3   OH281127   5.377   6.725   3.818 -0.5500  0.2929 -0.1698
19879TIP3    H181128   5.430   6.705   3.740  0.7295 -0.3303  0.8559
19879TIP3    H281129   5.406   6.663   3.884 -3.0517 -0.5049  0.2299
19880TIP3   OH281130   5.200   6.291   3.612 -0.3159  0.3105  0.4599
19880TIP3    H181131   5.207   6.350   3.537  2.4011 -1.8929 -1.0608
19880TIP3    H281132   5.150   6.216   3.579 -0.6814  0.1349  1.3930
19881TIP3   OH281133   6.670   5.034   1.608 -0.1325 -0.3186 -0.2927
19881TIP3    H181134   6.650   4.974   1.536  1.0658 -1.2572  0.1351
19881TIP3    H281135   6.737   4.988   1.658  0.7719  1.3849  0.0578
19882TIP3   OH281136   6.098   4.927   4.567  0.0209  0.1913 -0.0779
19882TIP3    H181137   6.108   5.007   4.515  0.1027  0.7392  0.7818
19882TIP3    H281138   6.003   4.914   4.572  0.0185 -1.6796 -3.1075
19883TIP3   OH281139   7.024   0.852   4.386 -0.0532  0.4851 -0.2115
19883TIP3    H181140   6.966   0.783   4.420  1.1180 -0.6611 -0.4904
19883TIP3    H281141   7.104   0.805   4.362  1.3924  2.2041  1.1531
19884TIP3   OH281142   0.944   6.435   5.095 -0.1054 -0.2805  0.2780
19884TIP3    H181143   0.850   6.413   5.097 -0.8986  2.8794  0.3704
19884TIP3    H281144   0.964   6.460   5.185  0.2222  1.3531 -0.2384
19885TIP3   OH281145   7.073   5.877   5.289  0.3325  0.4793  0.0238
19885TIP3    H181146   6.981   5.848   5.292  0.5102 -0.2509 -1.2428
19885TIP3    H281147   7.123   5.796   5.296  0.9724  1.0948  3.8507
19886TIP3   OH281148   5.777   5.978   4.889 -0.1467 -0.0329  0.3621
19886TIP3    H181149   5.732   5.983   4.974 -1.7758  1.2919 -0.5477
19886TIP3    H281150   5.740   5.900   4.848 -0.2108 -0.0223  0.3986
19887TIP3   OH281151   3.823   1.655   2.372  0.0801 -0.4981  0.2080
19887TIP3    H181152   3.824   1.742   2.411  0.3499  0.2096 -1.3428
19887TIP3    H281153   3.887   1.605   2.423  0.8101  0.5517  0.3424
19888TIP3   OH281154   5.077   0.457   4.927 -0.2253  0.6116  0.0662
19888TIP3    H181155   5.117   0.538   4.897 -0.0567  0.0105 -1.3747
19888TIP3    H281156   4.991   0.455   4.885 -0.6822  0.5758  0.9875
19889TIP3   OH281157   6.882   0.224   4.089  0.2314  0.5103 -0.2894
19889TIP3    H181158   6.836   0.227   4.173  1.0640 -1.0152  0.2342
19889TIP3    H281159   6.932   0.306   4.086 -1.4733  1.5688 -0.2795
19890TIP3   OH281160   6.826   1.104   5.406  0.2170 -0.3138 -0.3855
19890TIP3    H181161   6.816   1.076   5.315  1.6410 -1.0537 -0.3277
19890TIP3    H281162   6.833   1.023   5.455  0.5911  0.0961  0.2439
19891TIP3   OH281163   0.409   6.290   4.498  0.1130  0.1418  0.3391
19891TIP3    H181164   0.332   6.321   4.546 -0.3520  0.3229 -0.5133
19891TIP3    H281165   0.454   6.369   4.470  0.7751  0.0357  1.0824
19892TIP3   OH281166   0.301   0.771   3.949 -0.1244 -0.1309  0.4856
19892TIP3    H181167   0.238   0.701   3.969  0.7634 -0.3302  2.7557
19892TIP3    H281168   0.257   0.851   3.976 -0.2678 -0.0416 -0.0130
19893TIP3   OH281169   7.157   0.343   5.673 -0.0026 -0.0878  0.1023
19893TIP3    H181170   7.198   0.414   5.624 -0.5869  0.9278  1.0747
19893TIP3    H281171   7.069   0.375   5.693  0.2531 -0.4387  1.8967
19894TIP3   OH281172   6.933   6.497   5.700  0.1406  0.7783  0.1644
19894TIP3    H181173   6.876   6.437   5.747  0.3969 -0.0653 -0.5662
19894TIP3    H281174   6.903   6.491   5.609  0.5886  1.2636 -0.0142
19895TIP3   OH281175   1.998   7.124   2.974 -0.2481  0.2338  0.5642
19895TIP3    H181176   1.905   7.111   2.953 -0.7847  1.5934  2.0114
19895TIP3    H281177   1.998   7.192   3.041  1.8653  0.9172 -0.0938
19896TIP3   OH281178   5.850   6.711   2.357 -0.5515 -0.1883  0.0112
19896TIP3    H181179   5.895   6.627   2.364  0.4261  0.1001 -2.3554
19896TIP3    H281180   5.918   6.777   2.373 -0.4508  0.2038 -1.8449
19897TIP3   OH281181   6.118   0.571   4.776  0.0305  0.3696  0.7501
19897TIP3    H181182   6.083   0.557   4.864  0.0343 -0.1603  0.6659
19897TIP3    H281183   6.059   0.636   4.737 -0.9251 -0.5917  0.5697
19898TIP3   OH281184   0.365   5.994   5.375 -0.5781 -0.1293 -0.0005
19898TIP3    H181185   0.368   5.909   5.418  0.6772  0.3281  0.8664
19898TIP3    H281186   0.457   6.017   5.362 -0.8826  1.5723  0.7423
19899TIP3   OH281187   6.208   5.868   5.063  0.1496  0.3018  0.0768
19899TIP3    H181188   6.233   5.956   5.036  1.0830  0.4018  1.2105
19899TIP3    H281189   6.124   5.879   5.108  0.0347  0.5413 -0.1965
19900TIP3   OH281190   5.676   7.323   5.292  0.3122 -0.9171  0.4662
19900TIP3    H181191   5.646   7.255   5.352 -0.3736  0.9260  2.2538
19900TIP3    H281192   5.765   7.343   5.320 -0.0031 -0.0635  0.8775
19901TIP3   OH281193   4.666   5.337   5.487 -0.2077 -0.4381  0.0460
19901TIP3    H181194   4.655   5.265   5.424  0.3354  0.9559 -1.6911
19901TIP3    H281195   4.585   5.388   5.481 -0.8643 -1.2529  1.7585
19902TIP3   OH281196   5.813   6.695   6.004  0.7259  0.4167  0.2812
19902TIP3    H181197   5.900   6.661   5.985  0.2213 -1.5011  1.3578
19902TIP3    H281198   5.795   6.669   6.094  0.1209  3.1590  1.0056
19903TIP3   OH281199   7.023   6.832   5.831  0.2527 -0.6472 -0.1296
19903TIP3    H181200   6.953   6.848   5.894  1.3855 -0.9221  1.2229
19903TIP3    H281201   7.077   6.911   5.835  0.9139 -1.1059  0.0200
19904TIP3   OH281202   0.348   6.679   6.012 -0.3677 -0.1308 -0.2791
19904TIP3    H181203   0.395   6.623   6.074  0.7160  1.4512  0.3720
19904TIP3    H281204   0.283   6.726   6.065  0.6434  1.3160 -0.2702
19905TIP3   OH281205   6.445   5.912   4.498 -0.2868  0.0923  0.5247
19905TIP3    H181206   6.374   5.975   4.488  0.0879  0.4954  0.3702
19905TIP3    H281207   6.483   5.933   4.584 -1.0487 -0.8402  1.0949
19906TIP3   OH281208   6.050   6.944   2.392 -0.1427  0.2794 -0.4389
19906TIP3    H181209   6.087   6.969   2.477 -0.1224 -1.1143 -0.0289
19906TIP3    H281210   6.125   6.910   2.343 -0.7019 -1.7166  0.0691
19907TIP3   OH281211   6.678   6.263   5.561 -0.1383  0.4846 -0.0507
19907TIP3    H181212   6.702   6.303   5.645 -0.6281 -0.8134  0.7183
19907TIP3    H281213   6.626   6.187   5.585  1.2106 -0.9270 -1.4905
19908TIP3   OH281214   6.359   6.473   2.653  0.4972 -0.0304 -0.0285
19908TIP3    H181215   6.269   6.505   2.658  0.8454  0.7482  1.8253
19908TIP3    H281216   6.378   6.470   2.559 -1.9427 -1.6495 -0.5202
19909TIP3   OH281217   6.358   5.262   4.221  0.0849  0.1837  0.4265
19909TIP3    H181218   6.411   5.262   4.141 -2.8367  0.8557 -1.5886
19909TIP3    H281219   6.376   5.348   4.261  0.4680  0.4196 -0.2383
19910TIP3   OH281220   7.092   7.179   5.622 -0.1236  0.0565 -0.3254
19910TIP3    H181221   7.145   7.150   5.696 -0.8551  0.0022  0.1722
19910TIP3    H281222   7.047   7.100   5.592  2.6790 -0.6699 -2.9256
19911TIP3   OH281223   5.414   0.875   4.236  0.0163  0.2157 -0.3038
19911TIP3    H181224   5.495   0.831   4.212  1.0315  0.5997  2.3029
19911TIP3    H281225   5.347   0.833   4.182  1.5857 -1.7247 -0.7868
19912TIP3   OH281226   2.042   0.163   4.455 -0.8208 -0.3627 -0.1348
19912TIP3    H181227   2.119   0.154   4.512 -2.3656  2.3840  2.5054
19912TIP3    H281228   2.031   0.257   4.445 -4.0312 -0.7001 -0.1731
19913TIP3   OH281229   1.205   0.501   5.107 -0.0124  0.3633  0.4551
19913TIP3    H181230   1.161   0.528   5.026 -1.0456 -0.4791  0.7161
19913TIP3    H281231   1.283   0.556   5.112 -0.2335  0.8102 -0.8270
19914TIP3   OH281232   4.477   0.299   4.613 -0.1857  0.5292 -0.2739
19914TIP3    H181233   4.476   0.352   4.534  0.8807  0.9106 -0.0481
19914TIP3    H281234   4.548   0.236   4.600 -1.6185 -1.0409 -0.6539
19915TIP3   OH281235   6.214   6.472   4.517  0.5469  0.3389  0.0759
19915TIP3    H181236   6.133   6.431   4.487  0.4007  0.0354  0.8471
19915TIP3    H281237   6.247   6.521   4.442  0.1233 -0.2830 -0.5127
19916TIP3   OH281238   5.730   4.931   5.337  0.3659 -0.3727  0.1368
19916TIP3    H181239   5.675   4.901   5.264 -0.0306  0.6489  0.0099
19916TIP3    H281240   5.715   4.867   5.406 -0.9063 -0.1758  0.0576
19917TIP3   OH281241   6.562   0.097   5.579 -0.2232 -0.9050  0.4526
19917TIP3    H181242   6.559   0.107   5.674 -1.1879  3.6665  0.0411
19917TIP3    H281243   6.470   0.085   5.554 -0.4590  1.9840 -0.2055
19918TIP3   OH281244   1.371   7.151   3.197 -0.2183 -0.0652  0.4941
19918TIP3    H181245   1.343   7.177   3.285 -0.2569  0.2236  0.3979
19918TIP3    H281246   1.392   7.058   3.205  2.5402  0.6159  1.4843
19919TIP3   OH281247   6.829   6.489   5.433  0.0301  0.0795 -0.4324
19919TIP3    H181248   6.749   6.441   5.416  1.3204 -2.1316 -0.4310
19919TIP3    H281249   6.884   6.474   5.356  0.6282  1.2104 -0.2491
19920TIP3   OH281250   6.503   6.956   4.070 -0.1960  0.5860 -0.7177
19920TIP3    H181251   6.521   6.901   4.146  0.8619  1.4992 -0.2728
19920TIP3    H281252   6.421   7.000   4.091  0.1855  0.9793  0.0020
19921TIP3   OH281253   7.255   6.787   1.757  0.1618 -0.3898  0.2926
19921TIP3    H181254   7.328   6.823   1.707 -0.3176 -0.1960 -0.2757
19921TIP3    H281255   7.245   6.847   1.831 -0.9827  0.9858 -0.9456
19922TIP3   OH281256   5.400   6.788   4.606  0.0758 -0.3650  0.5429
19922TIP3    H181257   5.330   6.825   4.660 -0.0848 -0.7170  0.5784
19922TIP3    H281258   5.478   6.838   4.629 -0.4493  0.9757 -0.5172
19923TIP3   OH281259   7.247   7.100   4.898  0.0993 -0.3474 -0.1985
19923TIP3    H181260   7.327   7.069   4.856 -0.5264 -0.8943 -0.9920
19923TIP3    H281261   7.223   7.032   4.960  1.2744  0.6660  1.3984
19924TIP3   OH281262   6.377   6.582   3.372  0.8397 -0.3743 -0.5446
19924TIP3    H181263   6.412   6.493   3.372  2.4945  0.2472 -0.5979
19924TIP3    H281264   6.416   6.622   3.450 -0.3761  0.1204 -0.1929
19925TIP3   OH281265   4.685   0.194   5.900 -0.3190 -0.1478 -0.3337
19925TIP3    H181266   4.653   0.136   5.831  1.5353 -1.0526 -0.4740
19925TIP3    H281267   4.671   0.146   5.981  0.0087 -0.2485 -0.3344
19926TIP3   OH281268   1.104   6.073   5.545  0.3611  0.2305  0.3328
19926TIP3    H181269   1.157   6.143   5.583 -0.5506  1.4131 -0.5125
19926TIP3    H281270   1.162   6.029   5.484  0.6409  0.9550  0.0677
19927TIP3   OH281271   4.509   7.083   3.586 -0.6617 -0.0299  0.1881
19927TIP3    H181272   4.466   7.075   3.671 -0.0237 -1.6259  0.3776
19927TIP3    H281273   4.597   7.114   3.607 -0.1593 -1.4519  0.2025
19928TIP3   OH281274   6.483   5.963   3.215  0.0298  0.0880  0.0921
19928TIP3    H181275   6.427   5.975   3.138 -0.7453 -1.0756  0.4701
19928TIP3    H281276   6.435   5.903   3.272  1.4621 -0.5982  0.6247
19929TIP3   OH281277   5.079   5.965   5.508 -0.6033  0.4457  0.1146
19929TIP3    H181278   5.121   5.884   5.537 -0.5346  0.4940  0.1498
19929TIP3    H281279   5.000   5.972   5.562 -1.5930 -0.5596 -1.1586
19930TIP3   OH281280   7.254   5.601   3.059 -0.2075  0.4167 -0.0298
19930TIP3    H181281   7.305   5.647   2.992 -0.3904  1.6943  0.7023
19930TIP3    H281282   7.225   5.521   3.015  1.1855  0.3835 -0.9163
19931TIP3   OH281283   6.530   5.412   3.682  0.2884 -0.5585  0.3119
19931TIP3    H181284   6.623   5.391   3.695 -0.2572 -1.8586  2.2620
19931TIP3    H281285   6.498   5.342   3.625  0.1815 -0.9408  0.8329
19932TIP3   OH281286   5.206   7.114   5.830  0.0369  0.2525  0.2897
19932TIP3    H181287   5.119   7.153   5.835 -0.3857 -0.5744 -0.4450
19932TIP3    H281288   5.197   7.043   5.767  0.7424 -1.1678  1.7564
19933TIP3   OH281289   1.446   1.398   4.462 -0.3076  0.4551  0.0201
19933TIP3    H181290   1.363   1.352   4.478  0.5416 -1.0878  0.0363
19933TIP3    H281291   1.439   1.477   4.516 -2.0798  0.7345 -0.5648
19934TIP3   OH281292   0.211   4.505   3.425 -0.6728 -0.4679 -1.2879
19934TIP3    H181293   0.159   4.547   3.356 -0.5631 -2.4539 -2.6172
19934TIP3    H281294   0.298   4.542   3.415 -1.1186  0.7246 -0.9104
19935TIP3   OH281295   5.993   6.367   4.359 -0.0704  0.5182  1.0100
19935TIP3    H181296   5.968   6.451   4.318  0.1629  0.1777  0.1503
19935TIP3    H281297   5.914   6.314   4.354  0.0542  0.3594  0.6839
19936TIP3   OH281298   0.400   7.268   5.621  0.3685 -0.1866 -0.3107
19936TIP3    H181299   0.472   7.316   5.661  2.3954 -1.7198 -1.9470
19936TIP3    H281300   0.330   7.332   5.611  2.6791  2.2309 -1.6612
19937TIP3   OH281301   5.514   0.196   5.272  0.1309 -0.2819 -0.4588
19937TIP3    H181302   5.438   0.186   5.214 -2.3911 -1.5920  2.9166
19937TIP3    H281303   5.577   0.133   5.240 -1.6615 -1.7812 -1.1310
19938TIP3   OH281304   7.312   5.246   5.092  0.1400  0.6612  0.0161
19938TIP3    H181305   7.385   5.258   5.032 -0.2986 -0.2674 -0.7064
19938TIP3    H281306   7.331   5.306   5.165  0.3867  2.2407 -1.3031
19939TIP3   OH281307   7.321   0.456   3.123  0.8426 -0.2772 -0.0612
19939TIP3    H181308   7.332   0.361   3.121  0.5552 -0.2933 -0.8320
19939TIP3    H281309   7.401   0.488   3.165  0.5124 -0.9233  1.0949
19940TIP3   OH281310   5.627   0.774   5.163 -0.2349  0.4655  0.3122
19940TIP3    H181311   5.611   0.787   5.257  0.3563  0.1599  0.4568
19940TIP3    H281312   5.544   0.739   5.129  0.1633 -1.3376  1.1055
19941TIP3   OH281313   7.289   0.830   1.322 -0.4064  0.3705 -0.8832
19941TIP3    H181314   7.272   0.924   1.317  0.8679  0.5819 -1.3169
19941TIP3    H281315   7.266   0.807   1.413 -0.1783  1.2023 -0.6115
19942TIP3   OH281316   5.976   7.009   4.963 -0.0426 -0.1001 -0.7110
19942TIP3    H181317   5.972   7.105   4.967 -0.9626 -0.1400 -0.6262
19942TIP3    H281318   5.998   6.982   5.052 -0.3813  0.0025 -0.5970
19943TIP3   OH281319   0.558   6.443   4.810 -0.0247  0.2352 -0.3051
19943TIP3    H181320   0.494   6.385   4.769 -0.8077 -0.5164  1.9124
19943TIP3    H281321   0.506   6.507   4.858  0.8681  1.5655 -1.0659
19944TIP3   OH281322   0.425   0.490   5.660 -0.2680 -0.3198  0.3575
19944TIP3    H181323   0.409   0.450   5.746  1.7494 -1.2495  0.3224
19944TIP3    H281324   0.434   0.583   5.679  0.8853 -0.6024  1.2649
19945TIP3   OH281325   7.054   5.607   4.422  0.2765  0.0666  0.1036
19945TIP3    H181326   7.121   5.547   4.455  0.3386  0.2292  0.2719
19945TIP3    H281327   6.971   5.566   4.450  0.3458  0.4603  0.9021
19946TIP3   OH281328   5.571   7.033   5.026 -0.3785 -0.0967 -0.6612
19946TIP3    H181329   5.476   7.049   5.030 -0.5288 -1.0712 -0.0356
19946TIP3    H281330   5.610   7.121   5.023 -1.3795  0.2881 -3.6281
19947TIP3   OH281331   6.363   6.854   6.078 -0.4543  0.5358  0.7223
19947TIP3    H181332   6.315   6.921   6.029  0.6579  0.0513 -1.0787
19947TIP3    H281333   6.446   6.895   6.102  0.8239 -0.5913 -1.6023
19948TIP3   OH281334   7.290   6.595   5.705  0.6828  0.1405  0.3910
19948TIP3    H181335   7.317   6.522   5.649 -0.2199  0.5148 -0.5401
19948TIP3    H281336   7.365   6.654   5.704  1.8567 -1.2524  2.0179
19949TIP3   OH281337   5.249   6.956   5.594  0.1546  0.6461 -0.2568
19949TIP3    H181338   5.298   7.039   5.591  0.7807  0.3725  1.9281
19949TIP3    H281339   5.315   6.889   5.581 -0.2058  0.4327 -1.0042
19950TIP3   OH281340   0.967   6.215   5.757  0.1660 -0.2676 -0.2148
19950TIP3    H181341   1.036   6.170   5.709  2.1047  0.4134  1.8446
19950TIP3    H281342   0.942   6.155   5.827  0.2500  0.3903  0.3915
19951TIP3   OH281343   5.566   7.003   4.603  0.1919  0.1134 -0.1227
19951TIP3    H181344   5.662   6.997   4.610  0.3405  1.2147 -1.1142
19951TIP3    H281345   5.548   7.097   4.602 -0.8124 -0.0838 -1.2358
19952TIP3   OH281346   6.924   0.297   5.376  0.0381  0.1648  0.8581
19952TIP3    H181347   6.884   0.275   5.461 -0.8845 -0.7421  0.1983
19952TIP3    H281348   6.874   0.373   5.346 -0.3219 -0.1549  0.6462
19953TIP3   OH281349   0.020   4.739   4.300  0.2167  0.3886 -0.1578
19953TIP3    H181350  -0.006   4.655   4.263  0.3858  0.7823 -1.1856
19953TIP3    H281351   0.107   4.723   4.337  0.3411  0.1710 -0.5516
19954TIP3   OH281352   5.997   1.215   2.256 -0.8743 -0.1831  0.3753
19954TIP3    H181353   6.076   1.172   2.221 -1.7986 -0.4208 -1.5065
19954TIP3    H281354   5.956   1.255   2.179 -0.0483  4.1287  2.0363
19955TIP3   OH281355   4.839   6.403   3.327 -0.6587 -0.5233 -0.3876
19955TIP3    H181356   4.861   6.421   3.236  0.6517 -0.1706 -0.0199
19955TIP3    H281357   4.819   6.488   3.365  3.4046  0.0017  0.8026
19956TIP3   OH281358   6.001   5.726   4.534  0.2604  0.0754 -0.0320
19956TIP3    H181359   6.016   5.735   4.628  0.3867  1.3107 -0.1628
19956TIP3    H281360   6.006   5.816   4.500 -0.4667 -0.2854 -1.1161
19957TIP3   OH281361   1.123   6.309   3.873 -0.3109  1.0653 -0.0700
19957TIP3    H181362   1.078   6.290   3.955 -0.0451  0.7878  0.0127
19957TIP3    H281363   1.149   6.401   3.880  2.2182  0.3071  1.3788
19958TIP3   OH281364   5.808   1.843   5.231 -0.8958  0.6526  0.3220
19958TIP3    H181365   5.731   1.797   5.265 -1.3252  0.1316 -1.3370
19958TIP3    H281366   5.774   1.903   5.166 -0.0822  1.7535  0.9002
19959TIP3   OH281367   4.771   5.326   4.701  0.2516  0.0302  0.3148
19959TIP3    H181368   4.829   5.312   4.776  0.2295 -0.6960  0.1914
19959TIP3    H281369   4.824   5.305   4.625 -0.3045 -1.0439  0.2252
19960TIP3   OH281370   7.150   0.938   2.094  0.0091  0.0656  0.2447
19960TIP3    H181371   7.092   0.922   2.169 -0.1553  1.7494  0.4952
19960TIP3    H281372   7.194   1.021   2.115  0.5973  0.1055 -1.1258
19961TIP3   OH281373   5.478   1.631   4.808 -0.9534 -0.0488 -0.4865
19961TIP3    H181374   5.516   1.584   4.734 -2.3964  0.5431 -1.6329
19961TIP3    H281375   5.478   1.567   4.880  1.1040 -0.4068 -0.7896
19962TIP3   OH281376   0.498   4.848   4.813  0.1562 -0.2437  0.0659
19962TIP3    H181377   0.440   4.772   4.818 -1.0572  0.3418 -3.6240
19962TIP3    H281378   0.586   4.811   4.814 -0.2802 -1.3472  2.6663
19963TIP3   OH281379   6.106   1.083   3.973 -0.5671  0.1871  0.1884
19963TIP3    H181380   6.103   1.165   3.923 -0.4427  1.0723  1.6319
19963TIP3    H281381   6.025   1.083   4.024 -1.1452 -1.1661 -0.6930
19964TIP3   OH281382   4.923   6.879   3.602 -0.3695  0.5925 -0.1307
19964TIP3    H181383   4.944   6.927   3.682  0.6440  1.4813 -0.9045
19964TIP3    H281384   4.914   6.947   3.535  0.7956 -0.2534 -1.1870
19965TIP3   OH281385   6.031   6.557   6.011 -0.1823  0.1555  0.5059
19965TIP3    H181386   6.125   6.549   5.998 -0.4892 -1.1319 -1.1319
19965TIP3    H281387   6.011   6.497   6.083  0.3736  1.2505  1.6027
19966TIP3   OH281388   6.604   6.814   4.957  0.2151  0.6016 -0.1188
19966TIP3    H181389   6.630   6.898   4.996  0.4191  0.1904  0.6443
19966TIP3    H281390   6.593   6.756   5.032  0.5619 -0.1914 -0.6764
19967TIP3   OH281391   5.128   7.097   5.129  0.0482 -0.0567  0.4762
19967TIP3    H181392   5.048   7.062   5.088 -0.2554  0.2718  0.7769
19967TIP3    H281393   5.150   7.035   5.197 -0.7733  0.5869  1.3382
19968TIP3   OH281394   0.160   0.844   4.736  0.3648  0.1156 -0.4906
19968TIP3    H181395   0.093   0.910   4.716  0.4388  0.0624 -0.9268
19968TIP3    H281396   0.135   0.808   4.821  1.0087  1.5753  0.3324
19969TIP3   OH281397   6.969   0.140   5.720  0.9756  0.4614  0.2939
19969TIP3    H181398   6.934   0.213   5.771  0.8982  0.8181 -0.2679
19969TIP3    H281399   7.036   0.179   5.664  0.3892  0.2418 -0.5729
19970TIP3   OH281400   6.989   5.775   2.931 -0.4319  0.0236 -0.1122
19970TIP3    H181401   6.974   5.751   3.022  1.3184  1.7803  0.6589
19970TIP3    H281402   7.045   5.705   2.897 -2.7345 -1.7160 -0.4532
19971TIP3   OH281403   5.158   2.226   5.271  0.2964  0.1329  0.6364
19971TIP3    H181404   5.099   2.189   5.205 -1.3392 -0.1908  2.2349
19971TIP3    H281405   5.186   2.310   5.235  1.1350 -0.9873 -1.4089
19972TIP3   OH281406   6.080   4.422   4.864 -0.1390  0.7796 -0.2091
19972TIP3    H181407   6.140   4.405   4.791 -1.3051  2.1767 -1.5204
19972TIP3    H281408   6.022   4.346   4.867  1.6104 -0.5440  1.0187
19973TIP3   OH281409   1.719   0.280   3.758 -0.5189  0.2853 -0.0903
19973TIP3    H181410   1.718   0.340   3.832 -1.8523 -1.3602  1.2836
19973TIP3    H281411   1.628   0.278   3.728  0.0416  1.0844 -1.9253
19974TIP3   OH281412   6.333   6.374   5.615  0.8020  0.1122  0.3846
19974TIP3    H181413   6.369   6.434   5.549 -0.0158  0.2143  0.0275
19974TIP3    H281414   6.335   6.288   5.572  1.0406  0.0443  0.5315
19975TIP3   OH281415   4.170   6.869   4.353 -0.6357 -0.2677  0.1904
19975TIP3    H181416   4.112   6.935   4.316 -0.8768 -0.1937  0.7033
19975TIP3    H281417   4.245   6.866   4.293 -1.3697 -0.6738 -0.7205
19976TIP3   OH281418   6.021   7.336   5.628  0.2485  0.1905  0.1061
19976TIP3    H181419   5.945   7.392   5.640 -0.7633 -0.5730 -2.4744
19976TIP3    H281420   6.001   7.257   5.678 -1.4072 -0.6577 -1.8128
19977TIP3   OH281421   4.716   6.214   5.810 -0.1620 -0.2228  0.0707
19977TIP3    H181422   4.641   6.207   5.868  0.8779 -0.0604  1.4640
19977TIP3    H281423   4.757   6.127   5.813 -0.0935 -0.2087 -0.3988
19978TIP3   OH281424   4.306   0.425   3.708 -0.1069  0.0644  0.0872
19978TIP3    H181425   4.225   0.432   3.658  0.4214 -0.3134 -0.8313
19978TIP3    H281426   4.278   0.409   3.798 -1.1028  1.8844  0.1245
19979TIP3   OH281427   7.029   7.042   5.211  0.0680  0.0719  0.0296
19979TIP3    H181428   7.064   6.953   5.203  1.3212  0.7006 -1.8836
19979TIP3    H281429   7.106   7.097   5.226 -0.7945  0.7414  2.1540
19980TIP3   OH281430   4.091   0.002   5.595 -0.0112  0.3302 -0.1559
19980TIP3    H181431   4.021  -0.045   5.642  0.5365  1.6838  2.1143
19980TIP3    H281432   4.172  -0.041   5.624  0.2901  0.6502 -0.5200
19981TIP3   OH281433   7.042   0.392   6.580  0.2718 -0.1933 -0.1242
19981TIP3    H181434   7.037   0.334   6.504  0.9487 -1.4639  0.7811
19981TIP3    H281435   7.100   0.346   6.642  0.7303  1.3902  0.6565
19982TIP3   OH281436   6.005   0.283   4.239 -0.5731  0.3245  0.3374
19982TIP3    H181437   5.925   0.335   4.234 -0.4434  0.6591  1.6657
19982TIP3    H281438   5.985   0.212   4.299  0.8025  1.6646  2.4463
19983TIP3   OH281439   7.064   6.110   4.346  0.7331 -0.3432 -0.5893
19983TIP3    H181440   7.060   6.048   4.418  2.4514  0.5286  0.2883
19983TIP3    H281441   7.000   6.178   4.369  0.4067 -0.6726 -0.5100
19984TIP3   OH281442   7.110   3.686   0.246 -0.1733  0.0752  0.1302
19984TIP3    H181443   7.126   3.767   0.295  0.3234 -0.0214  0.1252
19984TIP3    H281444   7.196   3.647   0.234 -0.5096 -0.9093  0.9008
19985TIP3   OH281445   6.710   4.760   5.482 -0.0413 -0.2809  0.3134
19985TIP3    H181446   6.654   4.838   5.479 -0.5570 -0.6861 -0.8407
19985TIP3    H281447   6.798   4.794   5.497  0.1354  0.7399 -2.6746
19986TIP3   OH281448   2.252   0.774   3.797 -0.2704  0.7033  0.0792
19986TIP3    H181449   2.304   0.802   3.873 -1.7248  0.1015  1.3061
19986TIP3    H281450   2.162   0.768   3.830 -1.0668  1.3145 -1.9199
19987TIP3   OH281451   0.701   5.962   4.705 -0.0377  0.0139  0.2380
19987TIP3    H181452   0.623   5.997   4.748 -2.0849 -3.3123 -0.5583
19987TIP3    H281453   0.688   5.979   4.612  1.2560  1.3608  0.2799
19988TIP3   OH281454   4.842   1.495   5.066 -0.1194 -0.3105  0.2622
19988TIP3    H181455   4.893   1.569   5.035  0.3619 -1.2664 -1.2899
19988TIP3    H281456   4.827   1.513   5.159 -0.2304  1.8337 -0.1516
19989TIP3   OH281457   0.141   0.752   5.407 -0.1506 -0.4768  0.2488
19989TIP3    H181458   0.113   0.713   5.324  1.6714 -1.9060  0.2711
19989TIP3    H281459   0.195   0.828   5.382 -1.9812  0.8317  0.1839
19990TIP3   OH281460   6.358   6.115   5.125 -0.0773 -0.6901  0.2010
19990TIP3    H181461   6.444   6.106   5.083  0.3207 -1.1973  1.1245
19990TIP3    H281462   6.365   6.065   5.206 -1.0892 -0.3250  0.5212
19991TIP3   OH281463   0.371   1.865   3.061 -0.4650 -0.0603 -0.0353
19991TIP3    H181464   0.337   1.948   3.029 -2.5285 -0.8839 -0.0865
19991TIP3    H281465   0.343   1.801   2.995  0.4876 -0.8945  0.3557
19992TIP3   OH281466   6.965   6.643   6.066 -0.1825 -0.0731 -0.0820
19992TIP3    H181467   6.870   6.632   6.066 -0.2289  0.2984 -0.9667
19992TIP3    H281468   6.984   6.690   6.147 -0.7658 -0.0089  0.0194
19993TIP3   OH281469   5.968   0.816   5.137  0.5277 -0.8102  0.2590
19993TIP3    H181470   6.010   0.795   5.220  1.0005 -0.5367  0.0936
19993TIP3    H281471   5.909   0.889   5.157  0.0919 -1.2268  0.5013
19994TIP3   OH281472   3.558   5.236   5.251  0.1373  0.5566  0.0924
19994TIP3    H181473   3.570   5.276   5.337 -1.3207  2.7393 -0.6958
19994TIP3    H281474   3.633   5.264   5.200 -0.4427  1.6036 -0.1949
19995TIP3   OH281475   4.744   7.327   4.269 -0.6218 -0.1803  0.1795
19995TIP3    H181476   4.748   7.423   4.278  1.7894 -0.0669 -1.7472
19995TIP3    H281477   4.683   7.312   4.197  1.8710  0.0951 -2.0356
19996TIP3   OH281478   0.569   6.435   5.527  0.2417 -0.5631  0.2538
19996TIP3    H181479   0.552   6.519   5.570 -0.9934 -0.7160  0.0653
19996TIP3    H281480   0.535   6.370   5.587 -0.4489 -0.8357 -0.4233
19997TIP3   OH281481   0.094   0.883   3.235  0.1230 -0.6173 -0.1808
19997TIP3    H181482   0.067   0.855   3.322  0.3670 -1.8843 -0.4945
19997TIP3    H281483   0.174   0.834   3.218 -0.4580 -1.1438 -1.5140
19998TIP3   OH281484   6.190   6.262   4.170  0.0455 -0.2151  0.1053
19998TIP3    H181485   6.104   6.269   4.212  0.1608  1.1358  0.1406
19998TIP3    H281486   6.198   6.341   4.118  1.4045 -0.1804  0.3464
19999TIP3   OH281487   6.443   5.283   5.724 -0.2506 -0.0036 -0.4426
19999TIP3    H181488   6.397   5.349   5.776 -0.5594 -0.1667 -0.5075
19999TIP3    H281489   6.523   5.265   5.773 -0.9153 -0.7440  0.3936
20000TIP3   OH281490   5.448   6.063   5.500 -0.2152 -0.6298  0.4821
20000TIP3    H181491   5.411   5.986   5.544  1.0219 -0.1402  2.4602
20000TIP3    H281492   5.539   6.065   5.530  0.8888 -0.6891 -2.7245
20001TIP3   OH281493   0.331   5.954   5.871  0.2242 -0.3253  0.2639
20001TIP3    H181494   0.274   5.932   5.945 -0.4165  1.7834  0.4562
20001TIP3    H281495   0.396   6.013   5.909  0.4442  0.0379 -0.6615
20002TIP3   OH281496   0.394   5.329   5.414 -0.4838 -0.0904  0.2976
20002TIP3    H181497   0.330   5.378   5.466 -0.2479 -0.3514  0.8379
20002TIP3    H281498   0.454   5.292   5.478  2.3187  3.0735 -0.3817
20003TIP3   OH281499   4.964   6.218   6.094 -0.1615 -0.5906  0.8351
20003TIP3    H181500   4.934   6.304   6.066 -0.6267 -1.1861 -0.5380
20003TIP3    H281501   5.027   6.236   6.164  1.3893  0.9784 -0.9149
20004TIP3   OH281502   7.148   6.759   5.200  0.1426  0.0356 -0.4335
20004TIP3    H181503   7.160   6.666   5.217 -0.0239  0.0784 -0.0904
20004TIP3    H281504   7.206   6.803   5.263  0.2272  0.1636 -0.5989
20005TIP3   OH281505   5.538   0.278   4.905  0.1106 -0.3589  0.3276
20005TIP3    H181506   5.497   0.277   4.819 -0.6158 -0.3614  0.6739
20005TIP3    H281507   5.470   0.310   4.964  0.4104 -0.9437  1.0012
20006TIP3   OH281508   7.234   7.274   4.197  0.0532 -0.7385  0.6031
20006TIP3    H181509   7.235   7.359   4.241 -2.3869 -0.5965  0.4638
20006TIP3    H281510   7.154   7.232   4.229 -0.4783 -1.6413 -1.8069
20007TIP3   OH281511   6.017   0.350   5.544 -0.0633 -0.0950  0.2382
20007TIP3    H181512   6.110   0.361   5.528 -0.0453  0.0515  0.4441
20007TIP3    H281513   5.975   0.377   5.462  0.0846 -0.3605  0.0732
20008TIP3   OH281514   7.071   1.815   5.160 -0.2408 -0.2886  0.0855
20008TIP3    H181515   7.041   1.856   5.241  0.2718 -0.4263  0.3528
20008TIP3    H281516   7.163   1.793   5.178  0.0986  0.3744 -0.7984
20009TIP3   OH281517   1.175   7.260   4.680  0.2763  0.2788  0.5815
20009TIP3    H181518   1.237   7.188   4.689 -0.2869 -0.3004 -0.1052
20009TIP3    H281519   1.111   7.245   4.751  0.1446  0.0886  0.4230
20010TIP3   OH281520   0.623   5.281   5.630  1.0294 -0.6372  0.4325
20010TIP3    H181521   0.639   5.191   5.659  0.7176 -1.0374 -0.6065
20010TIP3    H281522   0.675   5.291   5.551  0.6518 -0.0755  0.2489
20011TIP3   OH281523   5.184   5.696   4.940  0.0897 -0.0482  0.4979
20011TIP3    H181524   5.123   5.623   4.924  0.8437 -0.4455 -0.6441
20011TIP3    H281525   5.260   5.676   4.885  1.2424  0.4651  1.8737
20012TIP3   OH281526   0.112   0.129   4.814  0.8765  0.1002  0.3483
20012TIP3    H181527   0.072   0.091   4.892  1.1895 -0.3732  0.2821
20012TIP3    H281528   0.205   0.106   4.822  0.7631 -0.7088 -0.5987
20013TIP3   OH281529   6.599   6.795   2.532 -0.1212  0.2905  0.4352
20013TIP3    H181530   6.659   6.739   2.482 -0.0314  0.9656 -0.2137
20013TIP3    H281531   6.590   6.751   2.616 -0.4331 -0.9699 -0.2369
20014TIP3   OH281532   5.194   6.532   5.000 -0.2689 -0.3013  0.1241
20014TIP3    H181533   5.203   6.490   5.085 -0.4913 -0.6258 -0.0100
20014TIP3    H281534   5.230   6.620   5.012  1.3395 -0.9314  0.1009
20015TIP3   OH281535   6.992   7.294   6.313  0.5983  0.5878  0.0743
20015TIP3    H181536   7.055   7.222   6.309 -1.7144 -1.4862 -0.5031
20015TIP3    H281537   6.922   7.268   6.252  0.0524  3.6944 -0.7416
20016TIP3   OH281538   1.023   6.359   4.832  0.6104 -0.1886  0.8708
20016TIP3    H181539   1.009   6.264   4.829  1.6788 -0.4399  2.7021
20016TIP3    H281540   0.996   6.384   4.920  0.8992  1.1184  0.5998
20017TIP3   OH281541   5.257   5.487   6.027 -0.2315 -0.0370 -0.3156
20017TIP3    H181542   5.290   5.402   5.999 -0.5511 -0.6962  1.2674
20017TIP3    H281543   5.185   5.467   6.087 -1.4186  1.3619 -1.2261
20018TIP3   OH281544   7.175   6.131   5.358 -0.2378  0.2169 -0.3191
20018TIP3    H181545   7.155   6.038   5.344  0.1949  0.1761 -0.7137
20018TIP3    H281546   7.134   6.153   5.441  1.3906 -0.8675  0.8119
20019TIP3   OH281547   5.829   6.887   2.655 -0.2169 -0.0440  0.4240
20019TIP3    H181548   5.808   6.855   2.743 -0.7184 -1.2055 -0.1067
20019TIP3    H281549   5.763   6.846   2.599 -2.1380  3.4710 -0.0355
20020TIP3   OH281550   5.629   4.498   5.837  0.2245 -0.8243 -0.1614
20020TIP3    H181551   5.675   4.579   5.858 -2.6890  1.2326 -1.4129
20020TIP3    H281552   5.577   4.479   5.915  0.0216 -0.8372 -0.2992
20021TIP3   OH281553   0.211   5.131   3.957 -0.0752 -0.0176  0.1518
20021TIP3    H181554   0.233   5.141   4.049 -0.2784 -2.3151  0.4851
20021TIP3    H281555   0.140   5.193   3.942  0.1981  0.6196  1.4549
20022TIP3   OH281556   5.918   6.439   5.473 -0.4184  0.2250  0.6656
20022TIP3    H181557   5.901   6.505   5.405 -1.2292 -0.4583  0.1952
20022TIP3    H281558   5.986   6.478   5.528  0.3202  0.7520 -0.5963
20023TIP3   OH281559   7.069   2.074   1.058 -0.0132  0.3409 -0.1972
20023TIP3    H181560   7.114   2.156   1.079  1.4160 -0.5733  0.3806
20023TIP3    H281561   7.018   2.054   1.137  0.8692 -0.1254  0.2640
20024TIP3   OH281562   5.126   0.129   4.685 -0.1933  0.1274  0.6710
20024TIP3    H181563   5.157   0.118   4.775 -0.0262 -1.0459  0.4745
20024TIP3    H281564   5.108   0.040   4.655 -1.4752  0.6188 -0.0244
20025TIP3   OH281565   0.110   6.758   5.340 -0.2908 -0.0198 -0.3126
20025TIP3    H181566   0.087   6.827   5.402 -0.3773 -0.4344  0.1250
20025TIP3    H281567   0.206   6.757   5.339 -0.2716  1.3960 -1.7809
20026TIP3   OH281568   7.035   0.175   4.472 -0.1138 -0.2570 -0.0805
20026TIP3    H181569   6.999   0.132   4.550  0.7256  0.6926  0.8343
20026TIP3    H281570   7.048   0.104   4.410 -0.3734 -1.0904  0.8046
20027TIP3   OH281571   6.506   0.721   4.886  0.5483 -0.3411 -0.3123
20027TIP3    H181572   6.501   0.639   4.837  1.7832 -0.3533 -0.4263
20027TIP3    H281573   6.520   0.694   4.977  1.0278 -0.2586 -0.3599
20028TIP3   OH281574   5.454   6.805   5.276 -0.2064 -0.6488  0.4171
20028TIP3    H181575   5.479   6.887   5.319 -0.3073  0.1348 -1.0018
20028TIP3    H281576   5.534   6.752   5.277  0.5080  0.3876 -0.7428
20029TIP3   OH281577   6.612   6.148   5.044  0.1705 -0.5330 -0.0292
20029TIP3    H181578   6.642   6.224   5.092 -2.4023  0.2075  0.4988
20029TIP3    H281579   6.611   6.176   4.952 -1.9764  0.5132  0.2954
20030TIP3   OH281580   6.835   6.302   4.127 -0.6583 -0.6567  0.8125
20030TIP3    H181581   6.830   6.387   4.083 -2.6772 -1.5746 -0.7987
20030TIP3    H281582   6.850   6.239   4.056 -1.5776 -1.9085  1.7134
20031TIP3   OH281583   5.740   5.221   5.941  0.1897  0.5497  0.4717
20031TIP3    H181584   5.659   5.186   5.978  0.0713  0.9380  0.5794
20031TIP3    H281585   5.776   5.149   5.890  0.7186 -0.2374  1.9255
20032TIP3   OH281586   6.089   6.523   5.670  0.2203 -0.2329  0.4013
20032TIP3    H181587   6.103   6.583   5.743  0.2781 -0.2431  0.3984
20032TIP3    H281588   6.172   6.477   5.659  0.1103 -0.4627  0.5391
20033TIP3   OH281589   6.726   7.069   5.649 -0.2943 -0.5436 -0.3370
20033TIP3    H181590   6.771   6.996   5.692 -1.7795 -0.5317  1.2880
20033TIP3    H281591   6.754   7.147   5.697 -1.6235 -0.4763  0.3389
20034TIP3   OH281592   5.877   7.256   4.378 -0.4231 -0.1243 -0.2612
20034TIP3    H181593   5.805   7.314   4.403 -0.3324 -0.5763  1.1175
20034TIP3    H281594   5.955   7.298   4.414 -0.0959 -0.0299 -1.0820
20035TIP3   OH281595   5.488   6.322   3.712  0.5235  0.1175 -0.4007
20035TIP3    H181596   5.535   6.245   3.680  0.7579 -0.7081  1.8486
20035TIP3    H281597   5.396   6.303   3.693  0.6969 -0.1671 -0.9662
20036TIP3   OH281598   4.482   6.846   3.442  0.2865  0.2905 -0.0151
20036TIP3    H181599   4.470   6.934   3.479 -0.9665  0.5767 -1.0396
20036TIP3    H281600   4.404   6.798   3.468  0.1677  0.0002 -0.8954
20037TIP3   OH281601   4.674   4.909   4.099 -0.2607 -0.4581 -0.1890
20037TIP3    H181602   4.668   4.983   4.159  1.2935 -0.8205  0.4268
20037TIP3    H281603   4.623   4.936   4.022 -0.0241  1.0947  0.1865
20038TIP3   OH281604   6.796   5.897   5.492  0.0652  0.1389  0.0363
20038TIP3    H181605   6.800   5.872   5.584 -0.9857  1.3600  0.4295
20038TIP3    H281606   6.839   5.982   5.488  1.1993 -0.4689 -0.8193
20039TIP3   OH281607   7.098   0.146   5.157  0.1462 -0.4451 -0.3985
20039TIP3    H181608   7.129   0.111   5.241  0.5459  0.7236 -0.0524
20039TIP3    H281609   7.043   0.220   5.181  0.4162  0.0114 -1.1741
20040TIP3   OH281610   1.508   0.614   5.074  0.1317 -0.0084 -0.2523
20040TIP3    H181611   1.553   0.585   4.995  0.5685 -0.9767  0.3498
20040TIP3    H281612   1.497   0.709   5.062  0.7107 -0.0594 -1.2055
20041TIP3   OH281613   0.774   0.412   6.157 -0.0559 -0.1259 -0.0065
20041TIP3    H181614   0.774   0.316   6.150  1.5222 -0.0717 -0.8687
20041TIP3    H281615   0.688   0.438   6.124 -0.5600 -1.2582  0.3911
20042TIP3   OH281616   0.217   1.249   6.424  0.1487  0.2612  0.1760
20042TIP3    H181617   0.219   1.294   6.339 -0.9150 -0.8997 -0.4817
20042TIP3    H281618   0.124   1.235   6.441  0.4361 -0.9581  0.7613
20043TIP3   OH281619   7.327   2.061   5.877 -0.3640  0.4159 -0.5595
20043TIP3    H181620   7.269   2.119   5.925 -0.2244  0.9105 -0.9885
20043TIP3    H281621   7.403   2.049   5.935 -0.5180  0.4375 -0.3559
20044TIP3   OH281622   6.849   1.506   5.968 -0.5858 -0.0494 -0.4409
20044TIP3    H181623   6.940   1.519   5.941 -0.5690  1.8738  0.4305
20044TIP3    H281624   6.821   1.592   5.999 -1.8633 -1.2564  1.8461
20045TIP3   OH281625   6.631   0.380   5.106 -0.4059 -0.9226  0.6038
20045TIP3    H181626   6.632   0.475   5.120  0.3185 -1.0726  1.5863
20045TIP3    H281627   6.568   0.367   5.035 -0.3541  0.3120  0.3284
20046TIP3   OH281628   1.510   1.219   6.072  0.3812 -0.5212 -0.8735
20046TIP3    H181629   1.519   1.133   6.113  1.6755  0.1051  0.1807
20046TIP3    H281630   1.415   1.230   6.060  0.0927 -1.3622  0.5605
20047TIP3   OH281631   0.773   7.125   5.621  0.1162 -0.3259 -0.8167
20047TIP3    H181632   0.853   7.177   5.624  0.1086 -0.3109 -0.8706
20047TIP3    H281633   0.729   7.144   5.704  0.0860 -0.2042 -0.8616
20048TIP3   OH281634   0.836   2.146   3.475  0.2508 -0.3824 -0.1123
20048TIP3    H181635   0.832   2.222   3.532  1.5300 -0.3223 -0.0969
20048TIP3    H281636   0.861   2.073   3.532  1.3416 -0.3594 -0.5583
20049TIP3   OH281637   3.216   2.723   5.211 -0.6852 -0.1031  0.0842
20049TIP3    H181638   3.127   2.759   5.211  0.0251  1.7131  1.2012
20049TIP3    H281639   3.273   2.800   5.220  1.0471 -1.1514 -1.7219
20050TIP3   OH281640   5.507   7.214   4.257 -0.2271 -0.7802 -0.1704
20050TIP3    H181641   5.414   7.206   4.237 -0.1321  1.4236 -1.7039
20050TIP3    H281642   5.547   7.136   4.219 -1.2874 -1.0983 -0.6484
20051TIP3   OH281643   3.935   1.437   5.371 -0.3204  0.1112 -0.7428
20051TIP3    H181644   3.930   1.341   5.375  0.4066  0.0380 -1.3559
20051TIP3    H281645   3.930   1.457   5.277  1.7621  0.5245 -0.7927
20052TIP3   OH281646   3.293   0.553   6.275 -0.4068 -0.0349  0.4887
20052TIP3    H181647   3.302   0.647   6.265  0.2149 -0.1432 -0.0383
20052TIP3    H281648   3.300   0.537   6.369  1.5402  0.2524  0.4202
20053TIP3   OH281649   3.057   0.736   4.885  0.0037 -0.5975  0.2341
20053TIP3    H181650   3.092   0.804   4.827 -2.3957  1.0363  0.6387
20053TIP3    H281651   3.064   0.655   4.834 -0.3853  0.5107 -1.6196
20054TIP3   OH281652   2.877   1.339   4.107 -0.1330  0.0565  0.7361
20054TIP3    H181653   2.886   1.358   4.201  1.1832  1.9562  0.2827
20054TIP3    H281654   2.890   1.245   4.100 -1.8068 -0.3516  2.6242
20055TIP3   OH281655   4.694   0.736   4.067 -0.0978 -0.6382 -0.2175
20055TIP3    H181656   4.765   0.677   4.093 -0.5522 -1.0129  0.2076
20055TIP3    H281657   4.617   0.699   4.110 -0.1555  1.0687  1.1754
20056TIP3   OH281658   1.645   0.181   5.173 -0.2679 -0.2954 -0.1773
20056TIP3    H181659   1.678   0.271   5.167 -0.8997  0.0167  0.7944
20056TIP3    H281660   1.655   0.146   5.084 -0.6172  0.9580 -0.7353
20057TIP3   OH281661   4.415   0.351   5.257 -0.3022  0.0434 -0.0377
20057TIP3    H181662   4.452   0.342   5.169 -0.7294 -1.6256 -0.0659
20057TIP3    H281663   4.446   0.274   5.304 -1.8232 -0.1713  0.6386
20058TIP3   OH281664   4.420   6.432   5.869 -0.0949  0.1332 -0.0635
20058TIP3    H181665   4.496   6.472   5.912 -0.5874  1.7933 -0.7200
20058TIP3    H281666   4.411   6.480   5.787 -2.5190  0.6751  0.4923
20059TIP3   OH281667   5.221   1.635   4.319  0.1977 -0.0407  0.4480
20059TIP3    H181668   5.135   1.621   4.361 -0.2997 -0.8737 -0.8124
20059TIP3    H281669   5.273   1.559   4.345 -0.1557 -0.6286 -0.5286
20060TIP3   OH281670   6.382   7.118   4.724  0.1798 -0.7217 -0.6251
20060TIP3    H181671   6.302   7.067   4.728 -0.4603  0.3243  0.3568
20060TIP3    H281672   6.354   7.205   4.696  0.8344 -0.1220  0.5358
20061TIP3   OH281673   4.248   0.676   5.995  0.4028 -0.3594 -0.3562
20061TIP3    H181674   4.319   0.644   6.049 -1.3578  0.5956  2.6286
20061TIP3    H281675   4.186   0.603   5.990 -0.2607  0.1292  0.4591
20062TIP3   OH281676   5.329   1.957   3.378  0.4085  0.0015  0.7108
20062TIP3    H181677   5.287   1.917   3.301 -0.8470  0.8980  0.9123
20062TIP3    H281678   5.275   1.928   3.452  0.1430  1.1416  0.9779
20063TIP3   OH281679   4.302   1.824   5.842 -0.6047  0.0308 -0.3533
20063TIP3    H181680   4.232   1.832   5.907  1.5467  0.7295  2.0018
20063TIP3    H281681   4.381   1.851   5.890  1.2145 -0.4320 -3.0046
20064TIP3   OH281682   4.967   1.641   6.052 -0.4874 -0.2535  0.1711
20064TIP3    H181683   4.955   1.714   6.113  0.9742  0.3397 -0.2405
20064TIP3    H281684   4.924   1.567   6.095 -1.5178  0.7113  0.8444
20065TIP3   OH281685   5.155   0.337   5.632 -0.1374  1.1168 -0.6083
20065TIP3    H181686   5.229   0.371   5.582 -1.2668  1.2146 -2.2520
20065TIP3    H281687   5.130   0.409   5.690  0.4310  1.4193 -0.7305
20066TIP3   OH281688   5.983   1.560   4.864  0.5641  0.3275  0.5995
20066TIP3    H181689   5.982   1.596   4.953  1.0203  0.7010  0.4539
20066TIP3    H281690   5.932   1.480   4.870  0.5646  0.3720  1.1937
20067TIP3   OH281691   4.617   6.936   5.186  1.1583 -0.6379 -0.0438
20067TIP3    H181692   4.691   6.990   5.214  0.5999 -0.2818  0.7500
20067TIP3    H281693   4.614   6.947   5.091  0.5772  1.3419  0.1758
20068TIP3   OH281694   6.089   7.002   5.208 -0.5569 -0.3781 -0.0607
20068TIP3    H181695   6.047   7.021   5.293  1.2810 -3.2354  1.5574
20068TIP3    H281696   6.181   7.026   5.221 -0.3311 -0.5052 -1.3858
20069TIP3   OH281697   5.615   6.571   5.509  0.2526  0.4421  0.3012
20069TIP3    H181698   5.620   6.587   5.415  0.5844 -0.2182  0.2040
20069TIP3    H281699   5.612   6.476   5.518 -0.9021  0.5313  0.9152
20070TIP3   OH281700   0.563   2.747   6.044  0.7843 -0.1810  0.4584
20070TIP3    H181701   0.511   2.676   6.082 -1.5804  0.5408 -1.2934
20070TIP3    H281702   0.558   2.817   6.108  1.0900 -0.7203  1.0864
20071TIP3   OH281703   5.034   1.174   5.689 -0.5887 -0.0982 -0.6300
20071TIP3    H181704   5.063   1.259   5.655 -0.4204  0.1265  0.0658
20071TIP3    H281705   5.109   1.116   5.673  0.6757  0.7178  2.0799
20072TIP3   OH281706   6.742   1.287   5.619 -0.3912  0.3365  0.2510
20072TIP3    H181707   6.653   1.255   5.632 -0.5603  0.4584 -0.5540
20072TIP3    H281708   6.778   1.230   5.551 -0.4276  1.3260 -0.6206
20073TIP3   OH281709   6.474   1.284   5.904  0.1852 -0.2378  0.5805
20073TIP3    H181710   6.391   1.245   5.930  0.6961 -0.5882  1.7280
20073TIP3    H281711   6.475   1.278   5.808 -0.3812 -1.7294  0.6507
20074TIP3   OH281712   5.230   0.106   5.744  0.0580 -0.0965  0.0757
20074TIP3    H181713   5.177   0.032   5.716  0.1984  0.5350 -1.9374
20074TIP3    H281714   5.177   0.183   5.723 -0.0966  0.3954  2.1643
20075TIP3   OH281715   7.065   1.656   6.194 -0.0038  0.1855 -0.0578
20075TIP3    H181716   7.049   1.593   6.264  1.1271  1.4519  1.3817
20075TIP3    H281717   7.098   1.734   6.239  0.5024  1.1135 -1.9790
20076TIP3   OH281718   6.210   2.387   4.279 -0.1091 -0.3268  0.0207
20076TIP3    H181719   6.200   2.475   4.315 -1.1658 -1.3535  2.3384
20076TIP3    H281720   6.298   2.360   4.305  0.2140  0.0384 -0.6886
20077TIP3   OH281721   6.209   1.187   5.965 -0.0980  0.1821  0.6516
20077TIP3    H181722   6.179   1.208   6.053 -1.0836 -0.1416  0.4056
20077TIP3    H281723   6.177   1.098   5.949 -1.8362  1.0347 -0.8491
20078TIP3   OH281724   6.720   0.331   5.571  0.0872 -0.1437  0.5735
20078TIP3    H181725   6.714   0.237   5.553 -0.7260 -0.4413  2.2731
20078TIP3    H281726   6.722   0.337   5.666  0.5746  1.5489  0.4691
20079TIP3   OH281727   0.038   0.522   5.869  0.4760  0.5467  0.1594
20079TIP3    H181728   0.002   0.526   5.780  0.6362 -0.1452  0.0603
20079TIP3    H281729  -0.032   0.557   5.924 -0.8586 -1.9039  0.1037
20080TIP3   OH281730   1.038   0.429   4.681 -0.2604  0.1588 -0.4256
20080TIP3    H181731   1.027   0.334   4.680  1.1766 -0.0046 -1.3510
20080TIP3    H281732   1.123   0.445   4.640  0.6094  1.7197  1.8709
20081TIP3   OH281733   6.056   7.337   4.869 -0.0964  0.4824 -0.3113
20081TIP3    H181734   6.121   7.405   4.848  1.7877 -1.1631  0.0356
20081TIP3    H281735   6.091   7.295   4.948 -1.5935 -0.4402 -0.1319
20082TIP3   OH281736   7.328   1.529   6.084  0.8520  0.1410 -0.0537
20082TIP3    H181737   7.242   1.571   6.094  0.7907  0.5995 -2.1704
20082TIP3    H281738   7.310   1.436   6.091  0.1050  0.2173 -0.8550
20083TIP3   OH281739   0.209   1.577   4.506  0.7412 -0.3495 -0.2870
20083TIP3    H181740   0.118   1.557   4.485  0.3828  1.7648 -0.8730
20083TIP3    H281741   0.228   1.525   4.584 -0.6862 -1.4810 -0.6912
20084TIP3   OH281742   1.319   2.126   5.614  0.1130  0.0205  0.3425
20084TIP3    H181743   1.285   2.185   5.547 -1.3955  0.7775  1.7299
20084TIP3    H281744   1.293   2.039   5.586  0.0257  0.2743 -0.3710
20085TIP3   OH281745   1.323   2.656   6.300  0.2986 -0.2090  0.3973
20085TIP3    H181746   1.410   2.671   6.263 -0.2022 -0.2574 -0.8284
20085TIP3    H281747   1.339   2.635   6.392  1.5988 -0.4221  0.1323
20086TIP3   OH281748   0.636   2.951   6.210 -0.3771 -0.4801  0.2149
20086TIP3    H181749   0.584   2.985   6.283 -0.1005  0.1196  0.1305
20086TIP3    H281750   0.667   3.028   6.164  1.2728 -0.8026  0.7449
20087TIP3   OH281751   1.134   4.450   5.801 -0.4262  0.1157 -0.0947
20087TIP3    H181752   1.143   4.374   5.743  1.1131  0.2518 -0.0656
20087TIP3    H281753   1.188   4.428   5.877  0.0943  1.2771 -0.1207
20088TIP3   OH281754   0.492   3.156   5.958 -0.1347  0.5793 -0.3506
20088TIP3    H181755   0.461   3.244   5.977  1.4225  0.6012  2.3913
20088TIP3    H281756   0.575   3.149   6.006 -0.3205 -2.4123 -0.3792
20089TIP3   OH281757   0.987   3.522   6.079  0.4429  0.1640  0.2009
20089TIP3    H181758   1.080   3.500   6.087  0.2156 -1.1869 -0.7352
20089TIP3    H281759   0.941   3.439   6.092 -0.6352  0.7785  0.4442
20090TIP3   OH281760   0.758   3.506   5.895  0.4023  0.3289 -0.0722
20090TIP3    H181761   0.776   3.414   5.874 -0.4886  0.0165  0.5293
20090TIP3    H281762   0.837   3.536   5.941  0.8044 -0.0461 -0.4988
20091TIP3   OH281763   1.498   3.025   5.549 -0.1640  0.2259 -0.0558
20091TIP3    H181764   1.458   3.104   5.585 -3.1701 -1.2848  0.1058
20091TIP3    H281765   1.556   2.994   5.619 -0.5522  1.1686  0.6937
20092TIP3   OH281766   1.844   3.500   5.615 -0.3408  0.0568  0.0889
20092TIP3    H181767   1.930   3.490   5.576  0.1533 -2.0305  1.6003
20092TIP3    H281768   1.853   3.573   5.676  0.2601  0.1228 -0.0827
20093TIP3   OH281769   2.461   2.249   5.453  0.2428 -0.3794  0.5146
20093TIP3    H181770   2.542   2.212   5.417  0.4322 -0.4104  0.9647
20093TIP3    H281771   2.436   2.188   5.523  0.7279  0.5108  1.4695
20094TIP3   OH281772   3.247   1.405   6.356  0.5918 -0.3667 -0.7474
20094TIP3    H181773   3.314   1.352   6.398 -0.9036 -0.8916  1.0554
20094TIP3    H281774   3.265   1.494   6.384  0.5728 -0.4981 -0.3177
20095TIP3   OH281775   2.219   5.704   5.147 -0.2534  0.1876 -0.2130
20095TIP3    H181776   2.219   5.620   5.102  1.4234  0.8877 -1.5978
20095TIP3    H281777   2.131   5.739   5.133  0.0677  0.1683 -2.6266
20096TIP3   OH281778   3.866   5.220   6.157 -0.2402  0.1969 -0.3554
20096TIP3    H181779   3.817   5.276   6.096 -1.4746 -0.2731  0.1942
20096TIP3    H281780   3.897   5.280   6.225 -1.4797  0.2505  0.1799
20097TIP3   OH281781   7.057   5.494   5.488  0.2051 -0.3685 -0.1872
20097TIP3    H181782   7.103   5.577   5.481  0.7895 -0.7486 -0.9169
20097TIP3    H281783   7.004   5.488   5.408 -2.6395  0.9585  1.5246
20098TIP3   OH281784   2.533   3.349   6.503 -0.5634  0.2983  0.4785
20098TIP3    H181785   2.603   3.292   6.469  0.4654  2.2545 -0.7677
20098TIP3    H281786   2.470   3.288   6.542  1.4474 -1.5601  0.9443
20099TIP3   OH281787   2.115   2.136   5.911  0.3002  0.0296 -0.1998
20099TIP3    H181788   2.196   2.118   5.959  0.3233  2.3847  0.7293
20099TIP3    H281789   2.144   2.174   5.828  0.2114 -2.4219 -1.3873
20100TIP3   OH281790   1.446   2.415   4.367  0.0985 -0.5685 -0.3133
20100TIP3    H181791   1.491   2.493   4.337 -0.1223 -0.1057  0.5395
20100TIP3    H281792   1.464   2.412   4.461 -0.2362 -1.3154 -0.2705
20101TIP3   OH281793   3.696   3.282   5.204  0.3073 -0.5331  0.6026
20101TIP3    H181794   3.692   3.345   5.132  0.8620 -1.9076 -0.6594
20101TIP3    H281795   3.752   3.325   5.269  1.8332 -0.2648 -0.8225
20102TIP3   OH281796   2.405   4.058   5.528 -0.6011 -0.0550 -0.4087
20102TIP3    H181797   2.338   4.071   5.596  1.0958 -1.7174  1.6256
20102TIP3    H281798   2.376   3.980   5.481 -1.3343  0.6075 -1.0662
20103TIP3   OH281799   2.534   3.600   5.986  0.1706  0.1717 -0.1087
20103TIP3    H181800   2.470   3.653   6.033  0.3465 -0.4488  0.8508
20103TIP3    H281801   2.485   3.560   5.915 -0.6231 -0.6712  0.8935
20104TIP3   OH281802   2.176   3.896   4.994  0.0229 -0.0281 -0.7970
20104TIP3    H181803   2.120   3.851   4.931  0.8027 -1.3950 -0.5280
20104TIP3    H281804   2.264   3.863   4.976  0.2500 -0.4897  1.0212
20105TIP3   OH281805   2.633   3.474   5.652  0.2100 -0.2193 -0.0593
20105TIP3    H181806   2.573   3.548   5.646  0.2623  0.0789  2.5537
20105TIP3    H281807   2.703   3.495   5.591 -0.3671  1.3157 -0.2048
20106TIP3   OH281808   3.852   2.400   5.164 -0.5615 -0.2324 -0.1656
20106TIP3    H181809   3.884   2.352   5.241  0.3170  0.0384 -0.3504
20106TIP3    H281810   3.793   2.339   5.120 -0.7990 -0.5147  0.5351
20107TIP3   OH281811   3.680   1.137   5.834 -0.5528 -0.0516 -0.1301
20107TIP3    H181812   3.627   1.057   5.831 -1.1156  0.3240 -0.3528
20107TIP3    H281813   3.672   1.168   5.924 -0.2277 -0.3118 -0.0084
20108TIP3   OH281814   0.868   4.379   6.050  0.3590  0.0096  0.4186
20108TIP3    H181815   0.865   4.348   5.960  1.5602  0.9472  0.0372
20108TIP3    H281816   0.789   4.432   6.060  0.0242 -0.4133  0.0400
20109TIP3   OH281817   5.198   1.822   5.706  0.1958 -0.2999  0.1728
20109TIP3    H181818   5.229   1.912   5.712 -0.9336  0.1562 -0.6700
20109TIP3    H281819   5.127   1.817   5.770 -2.1679  0.4603 -2.2984
20110TIP3   OH281820   4.163   3.659   5.282 -0.6905 -0.2943 -0.3563
20110TIP3    H181821   4.199   3.639   5.196 -0.8357 -0.9494 -0.2660
20110TIP3    H281822   4.240   3.673   5.338 -0.5571 -2.5609  0.0406
20111TIP3   OH281823   4.074   1.718   5.105 -0.2864  0.1421  0.1843
20111TIP3    H181824   4.102   1.744   5.192 -0.8769 -0.7266  0.6367
20111TIP3    H281825   4.152   1.680   5.065 -0.2290 -0.2056  0.6254
20112TIP3   OH281826   4.108   3.420   5.497  0.5172 -0.0409 -0.4430
20112TIP3    H181827   4.179   3.366   5.532  0.4609  0.6468  0.7580
20112TIP3    H281828   4.139   3.510   5.507 -0.1708  0.2266 -0.7116
20113TIP3   OH281829   4.308   1.957   4.467  1.0856 -0.6343  0.2561
20113TIP3    H181830   4.257   1.888   4.509  0.2480  0.1531  0.5511
20113TIP3    H281831   4.253   1.985   4.393  2.7946 -2.4125 -1.7337
20114TIP3   OH281832   4.104   2.624   5.984 -0.3153 -0.0565  0.7561
20114TIP3    H181833   4.103   2.682   5.908 -0.7377 -1.4167 -0.2981
20114TIP3    H281834   4.127   2.681   6.057  1.6967  0.9858 -0.6399
20115TIP3   OH281835   3.468   3.204   5.345 -0.3304 -0.4914  0.1195
20115TIP3    H181836   3.459   3.287   5.392 -0.6522 -0.8953  0.7734
20115TIP3    H281837   3.515   3.227   5.265 -1.3397  0.5078 -0.2071
20116TIP3   OH281838   4.647   4.147   5.582 -0.4324 -0.2243 -0.0648
20116TIP3    H181839   4.577   4.093   5.545 -1.2381  0.3269  0.6323
20116TIP3    H281840   4.632   4.234   5.544 -0.0398 -0.1359 -0.0179
20117TIP3   OH281841   6.491   2.814   4.727  0.7053  0.1074  0.4914
20117TIP3    H181842   6.399   2.793   4.711  0.6024  1.5248 -0.8409
20117TIP3    H281843   6.500   2.808   4.822 -0.4656 -1.1959  0.5521
20118TIP3   OH281844   5.466   2.998   5.854  0.1800  0.2174  0.2632
20118TIP3    H181845   5.397   3.012   5.918 -0.3265  3.3223 -0.8430
20118TIP3    H281846   5.543   2.971   5.905 -1.0981 -0.6019  1.7743
20119TIP3   OH281847   6.215   1.936   5.373  0.1438 -0.1026 -0.3297
20119TIP3    H181848   6.278   1.880   5.417 -0.8478 -0.8574  0.1446
20119TIP3    H281849   6.136   1.931   5.427 -0.1025  1.3911 -0.5270
20120TIP3   OH281850   4.716   2.954   5.059  0.3757 -0.3763 -0.0484
20120TIP3    H181851   4.746   3.041   5.088  0.6612 -1.1471  2.0769
20120TIP3    H281852   4.764   2.939   4.978 -0.0892  1.6854 -0.7488
20121TIP3   OH281853   5.101   3.310   4.979  0.4782  0.0644  0.0791
20121TIP3    H181854   5.051   3.343   5.054 -0.6038 -0.3568 -0.4442
20121TIP3    H281855   5.036   3.302   4.909  1.7019  1.6294 -1.2907
20122TIP3   OH281856   5.252   2.988   6.349 -0.0269 -0.0362 -0.3996
20122TIP3    H181857   5.317   2.954   6.287 -1.3068 -0.2946 -1.6353
20122TIP3    H281858   5.292   2.975   6.435  0.6790 -2.1464 -0.9966
20123TIP3   OH281859   5.155   1.332   5.438 -0.1796  0.5553  0.4810
20123TIP3    H181860   5.074   1.302   5.396 -0.3897  0.1738  1.1532
20123TIP3    H281861   5.148   1.428   5.438 -0.0255  0.5746 -0.6512
20124TIP3   OH281862   3.236   3.778   5.998 -0.2134 -0.5004  0.7135
20124TIP3    H181863   3.282   3.708   5.951  0.8367  0.9452 -0.4747
20124TIP3    H281864   3.144   3.763   5.978 -0.1516 -2.4573  1.7548
20125TIP3   OH281865   0.325   1.837   4.986  0.5131 -0.3391  0.7000
20125TIP3    H181866   0.339   1.923   4.946  1.5183 -0.9389 -0.2566
20125TIP3    H281867   0.411   1.809   5.016  0.3805 -1.4902  0.0386
20126TIP3   OH281868   0.625   1.967   4.621 -0.4296  0.2191  0.5943
20126TIP3    H181869   0.690   2.003   4.560  0.2415  0.5023  1.4593
20126TIP3    H281870   0.677   1.939   4.696 -1.2740  0.0740  1.1244
20127TIP3   OH281871   7.154   3.596   6.502  0.1997 -0.1135 -0.0553
20127TIP3    H181872   7.091   3.631   6.565  0.6795  2.1738 -0.8218
20127TIP3    H281873   7.219   3.551   6.557 -0.9369 -0.6467  0.8806
20128TIP3   OH281874   6.959   4.035   5.869  0.1149 -0.1875 -0.6878
20128TIP3    H181875   6.997   3.980   5.801  1.1012 -0.3023 -0.0586
20128TIP3    H281876   6.895   3.979   5.912 -0.3847 -0.1708 -1.4042
20129TIP3   OH281877   6.654   4.166   4.786  0.1034  0.4647 -0.1301
20129TIP3    H181878   6.658   4.238   4.848  1.1767  2.0514 -1.9921
20129TIP3    H281879   6.698   4.199   4.707  1.9512 -2.7242 -0.5329
20130TIP3   OH281880   6.360   7.194   5.000  0.1201 -0.7710  0.1778
20130TIP3    H181881   6.356   7.150   4.915  0.7967 -1.6836  0.6066
20130TIP3    H281882   6.424   7.264   4.988 -0.1114 -0.6179 -0.1839
20131TIP3   OH281883   4.826   2.674   5.118 -0.1139 -0.1302  0.0988
20131TIP3    H181884   4.843   2.726   5.197 -2.2868 -0.9247  1.1382
20131TIP3    H281885   4.831   2.737   5.046  0.1730  0.9473  1.0448
20132TIP3   OH281886   7.037   2.282   4.435  0.1244 -0.3595  0.5899
20132TIP3    H181887   7.023   2.232   4.354  0.6881  0.0547  0.2373
20132TIP3    H281888   6.994   2.366   4.419 -0.6114 -0.6344  1.0927
20133TIP3   OH281889   5.945   2.613   6.251  0.0736 -0.5877 -0.0425
20133TIP3    H181890   5.860   2.610   6.207 -0.5240  1.1729  0.9285
20133TIP3    H281891   5.983   2.527   6.236 -1.6632 -1.2260 -0.9353
20134TIP3   OH281892   6.357   3.816   5.356  0.5141  0.4208  0.0146
20134TIP3    H181893   6.350   3.906   5.322 -0.9384  0.0886 -0.5818
20134TIP3    H281894   6.327   3.761   5.284  0.8800 -0.5240  0.5783
20135TIP3   OH281895   5.341   3.470   3.893 -0.2669 -0.3109  0.1566
20135TIP3    H181896   5.345   3.478   3.798  1.4587 -1.5576  0.1142
20135TIP3    H281897   5.342   3.375   3.909 -2.1476 -0.1567  1.3594
20136TIP3   OH281898   5.765   0.481   4.795  0.1183 -0.5591 -0.3716
20136TIP3    H181899   5.801   0.542   4.859  0.6149  0.9427 -2.0504
20136TIP3    H281900   5.752   0.400   4.844  0.2035  0.6453  1.6970
20137TIP3   OH281901   0.540   2.261   5.113  0.3873  0.3169 -0.0906
20137TIP3    H181902   0.449   2.244   5.086 -0.5634  3.4218  0.8980
20137TIP3    H281903   0.593   2.210   5.051 -1.9842 -0.8530 -1.2587
20138TIP3   OH281904   0.147   2.885   5.317  0.6265 -0.0120 -0.0703
20138TIP3    H181905   0.081   2.953   5.300 -1.9222 -2.5991 -0.9579
20138TIP3    H281906   0.150   2.878   5.412 -0.7668 -0.2040 -0.0286
20139TIP3   OH281907   7.088   3.737   6.285  0.1044 -0.2778 -0.1728
20139TIP3    H181908   7.107   3.673   6.353  0.1609 -0.4555 -0.3573
20139TIP3    H281909   7.114   3.821   6.323 -0.6756 -0.2641  0.3595
20140TIP3   OH281910   6.430   2.916   6.517 -0.5357  0.6020  0.0323
20140TIP3    H181911   6.399   2.981   6.454 -1.1767 -0.5527 -0.8707
20140TIP3    H281912   6.513   2.951   6.549 -0.8960  1.8761 -0.4093
20141TIP3   OH281913   5.501   4.535   6.100  0.0208  0.3412  0.1059
20141TIP3    H181914   5.493   4.511   6.192  1.0709  2.5640  0.8256
20141TIP3    H281915   5.469   4.459   6.052 -0.7970 -0.7466  2.3085
20142TIP3   OH281916   3.977   3.413   3.920  0.0603  0.5190 -0.7166
20142TIP3    H181917   4.051   3.451   3.967 -0.4571  0.2381  0.3339
20142TIP3    H281918   3.901   3.463   3.950 -0.5937 -1.1527  0.4829
20143TIP3   OH281919   7.058   3.647   5.446  0.0143 -0.0383 -0.1583
20143TIP3    H181920   7.053   3.713   5.376 -0.3232  0.5512  0.4098
20143TIP3    H281921   7.151   3.626   5.453 -0.0619 -0.9386 -1.5452
20144TIP3   OH281922   6.920   2.614   6.463  0.1603 -0.1266  0.1020
20144TIP3    H181923   6.952   2.598   6.374  3.2429  0.2671  1.1140
20144TIP3    H281924   6.962   2.547   6.516  0.1877  1.1013  1.6494
20145TIP3   OH281925   0.383   2.763   5.408 -0.3253  0.7421 -0.7279
20145TIP3    H181926   0.317   2.719   5.462  0.4191  1.5907  0.9060
20145TIP3    H281927   0.332   2.806   5.339 -1.5275  1.4503  0.5619
20146TIP3   OH281928   5.485   4.435   5.026 -0.5373 -0.3880 -0.4965
20146TIP3    H181929   5.400   4.393   5.036  0.1338 -1.7043 -0.2545
20146TIP3    H281930   5.471   4.503   4.961 -1.9229 -0.1782  0.0128
20147TIP3   OH281931   2.070   5.048   4.134  0.2936  0.6059 -0.4732
20147TIP3    H181932   2.163   5.030   4.145  0.3878  1.5470  0.3224
20147TIP3    H281933   2.035   5.052   4.223 -0.6669 -0.5235 -0.7911
20148TIP3   OH281934   1.023   4.670   5.104 -0.3706  0.5643 -0.7449
20148TIP3    H181935   1.050   4.761   5.091  2.0426 -0.2186 -1.4707
20148TIP3    H281936   1.067   4.643   5.184  0.8932 -0.7005 -1.8527
20149TIP3   OH281937   1.814   5.024   5.521 -0.2820  0.1127 -1.0715
20149TIP3    H181938   1.737   5.081   5.517 -0.4695 -0.1107 -0.6020
20149TIP3    H281939   1.798   4.957   5.454 -0.9569 -0.5038 -0.3034
20150TIP3   OH281940   3.303   0.552   6.564 -0.1201 -0.0274  0.3450
20150TIP3    H181941   3.395   0.526   6.573  0.2596  0.7019 -1.3521
20150TIP3    H281942   3.279   0.584   6.651  1.2255 -0.2407  0.8032
20151TIP3   OH281943   1.668   5.231   5.919  0.1550  0.3804 -0.1387
20151TIP3    H181944   1.592   5.173   5.914  1.2571 -1.1241  0.2871
20151TIP3    H281945   1.743   5.174   5.902  1.0547  2.2034 -2.5904
20152TIP3   OH281946   5.590   4.856   4.988  0.4290 -0.3048  0.2032
20152TIP3    H181947   5.526   4.796   4.949  0.9569 -1.2010  0.7190
20152TIP3    H281948   5.552   4.879   5.073  0.0020  0.4782 -0.1863
20153TIP3   OH281949   6.328   3.469   6.716 -0.9171 -0.6952  0.2957
20153TIP3    H181950   6.379   3.546   6.693 -0.6711 -0.6369  1.0249
20153TIP3    H281951   6.347   3.406   6.647 -0.9800 -0.1709 -0.2068
20154TIP3   OH281952   1.331   3.889   5.222  0.6376  0.2762  0.3525
20154TIP3    H181953   1.411   3.850   5.255  1.0897  0.6342 -0.3014
20154TIP3    H281954   1.296   3.825   5.161  0.4026  0.1052  0.6631
20155TIP3   OH281955   1.598   3.907   5.990 -0.1166 -0.6038  0.2934
20155TIP3    H181956   1.603   3.835   6.052  1.4680 -1.2577 -0.5735
20155TIP3    H281957   1.627   3.984   6.039 -0.3004 -0.8415  0.7746
20156TIP3   OH281958   6.953   4.229   4.797  0.3202 -0.2565  0.2658
20156TIP3    H181959   7.002   4.184   4.866  0.8147  0.3979  0.3442
20156TIP3    H281960   6.880   4.271   4.844 -0.7239 -1.8126  0.0516
20157TIP3   OH281961   7.251   4.527   5.502  0.0622 -0.7440 -0.1209
20157TIP3    H181962   7.289   4.486   5.580 -0.0182 -0.9583 -0.1961
20157TIP3    H281963   7.213   4.609   5.535  0.1322 -0.7775  0.0443
20158TIP3   OH281964   2.130   2.685   4.134  0.7739  0.4021 -0.2614
20158TIP3    H181965   2.165   2.698   4.222  0.4382 -0.4510  0.0053
20158TIP3    H281966   2.160   2.762   4.085  1.5735  0.5299  0.4030
20159TIP3   OH281967   1.573   5.604   5.105 -0.2721  0.5066 -0.0584
20159TIP3    H181968   1.513   5.675   5.129  0.9099  0.8740  1.8649
20159TIP3    H281969   1.628   5.641   5.036 -0.2407  1.1507  0.3180
20160TIP3   OH281970   0.883   4.306   5.548  0.1251 -0.0609  0.4790
20160TIP3    H181971   0.840   4.260   5.475  0.5083 -0.2147  0.3480
20160TIP3    H281972   0.873   4.399   5.527 -2.0585 -0.0387  1.5566
20161TIP3   OH281973   0.282   3.717   4.890  0.0235  0.2317  0.6095
20161TIP3    H181974   0.296   3.725   4.795  0.3309  0.1819  0.6480
20161TIP3    H281975   0.370   3.725   4.927 -0.1346  0.5693  0.9123
20162TIP3   OH281976   7.277   5.230   6.240 -0.6066 -0.8706 -0.2354
20162TIP3    H181977   7.254   5.144   6.205 -1.8726 -0.8969  0.6240
20162TIP3    H281978   7.219   5.241   6.316 -0.5233  0.7855 -0.4007
20163TIP3   OH281979   5.924   4.644   4.776 -0.0675 -0.3876 -0.3291
20163TIP3    H181980   5.956   4.558   4.803 -0.9153 -0.4860  0.3710
20163TIP3    H281981   5.993   4.704   4.804  0.6836 -0.8663 -1.1198
20164TIP3   OH281982   0.769   5.717   5.811  0.1093 -0.3897 -0.3636
20164TIP3    H181983   0.836   5.786   5.809 -0.5221  0.2230 -0.8647
20164TIP3    H281984   0.776   5.675   5.726  1.6573 -2.1024  0.5763
20165TIP3   OH281985   0.882   3.896   4.737 -0.2825 -0.3817 -0.3849
20165TIP3    H181986   0.897   3.865   4.827  0.4525  1.8676  0.2985
20165TIP3    H281987   0.919   3.827   4.682 -2.0666 -2.4969  0.9642
20166TIP3   OH281988   2.337   5.696   5.873 -0.0603 -0.1670 -0.1925
20166TIP3    H181989   2.412   5.727   5.924 -0.9401 -2.1595  2.4200
20166TIP3    H281990   2.282   5.774   5.862  0.1242  0.3044  1.9929
20167TIP3   OH281991   0.769   4.615   2.971  0.0024  0.7032  0.2005
20167TIP3    H181992   0.780   4.574   3.056  0.7068  0.7980  0.1606
20167TIP3    H281993   0.676   4.637   2.966 -0.3397 -0.6761  0.3100
20168TIP3   OH281994   6.469   4.390   5.326 -0.0993  0.6454  0.3787
20168TIP3    H181995   6.530   4.327   5.288  0.3570  1.3161 -0.0242
20168TIP3    H281996   6.525   4.453   5.372 -0.2925  2.4531 -1.7527
20169TIP3   OH281997   0.032   4.404   5.090  0.0558  0.2689  0.5153
20169TIP3    H181998   0.018   4.484   5.141  1.9573  1.1756 -0.3001
20169TIP3    H281999  -0.021   4.416   5.012 -0.5634  0.2153  0.9276
20170TIP3   OH282000   0.892   4.336   5.215  0.1535  0.0625 -0.5939
20170TIP3    H182001   0.806   4.319   5.253  0.1717  0.4251 -0.3778
20170TIP3    H282002   0.917   4.255   5.172  0.3700 -0.5403  0.6361
20171TIP3   OH282003   7.045   4.061   5.246  0.7251 -0.5354  0.0045
20171TIP3    H182004   7.040   4.131   5.311 -2.2429 -0.8311  0.1783
20171TIP3    H282005   7.052   3.981   5.297  2.3773 -0.5156 -0.1605
20172TIP3   OH282006   2.308   5.282   5.380 -0.4433 -0.1848  0.6063
20172TIP3    H182007   2.246   5.354   5.372 -1.8813 -1.4417  0.1365
20172TIP3    H282008   2.255   5.208   5.408  1.0491 -1.0139  1.2913
20173TIP3   OH282009   6.282   3.402   5.183  0.1414 -0.0975 -0.1886
20173TIP3    H182010   6.369   3.440   5.173  1.2796 -2.3270  1.0797
20173TIP3    H282011   6.273   3.341   5.110 -0.3465  0.0869 -0.2891
20174TIP3   OH282012   2.684   4.968   4.177  0.1229  0.1846  0.1048
20174TIP3    H182013   2.655   4.923   4.097 -0.2983  1.4396 -0.4531
20174TIP3    H282014   2.609   5.021   4.203  1.0923  1.6372 -0.0292
20175TIP3   OH282015   3.456   5.391   6.398 -0.7765  0.1370 -0.0147
20175TIP3    H182016   3.388   5.325   6.395 -1.0039  0.4543 -2.0585
20175TIP3    H282017   3.409   5.475   6.397 -0.4754  0.3711  2.0875
20176TIP3   OH282018   3.278   5.626   6.385 -0.2084  0.1144  0.4852
20176TIP3    H182019   3.203   5.567   6.384 -0.3973  0.3576 -0.7582
20176TIP3    H282020   3.284   5.659   6.295  3.4882 -2.5855 -0.3677
20177TIP3   OH282021   2.789   4.573   5.049 -0.0936  0.0153 -0.0914
20177TIP3    H182022   2.854   4.504   5.060 -1.1128 -0.8505  0.6911
20177TIP3    H282023   2.714   4.543   5.100 -0.6478  1.5930  0.0547
20178TIP3   OH282024   3.799   4.819   5.779  0.0933 -0.3355  0.4328
20178TIP3    H182025   3.884   4.822   5.821 -0.9966 -0.7749  2.7477
20178TIP3    H282026   3.785   4.727   5.758  0.6118 -0.1261 -0.9052
20179TIP3   OH282027   2.888   5.272   5.552 -0.2975  0.0571  0.1494
20179TIP3    H182028   2.816   5.210   5.541  0.2219 -0.6267  0.6071
20179TIP3    H282029   2.940   5.263   5.472  1.0840 -1.8073  1.2277
20180TIP3   OH282030   3.719   5.208   6.476  0.1160  0.3083  0.1392
20180TIP3    H182031   3.633   5.250   6.470 -0.1481 -0.2431 -0.0460
20180TIP3    H282032   3.778   5.266   6.429 -0.1907  0.6146  0.1339
20181TIP3   OH282033   2.244   6.413   5.666 -0.3073  0.1941  0.0914
20181TIP3    H182034   2.250   6.485   5.728 -0.5097 -0.1803  0.5540
20181TIP3    H282035   2.297   6.343   5.706 -1.7583 -0.6097  0.6326
20182TIP3   OH282036   4.090   5.874   5.268  0.0897  0.4332  0.0988
20182TIP3    H182037   4.046   5.952   5.301 -0.3584  0.2137  0.0348
20182TIP3    H282038   4.156   5.853   5.334 -0.1562  0.5540  0.3825
20183TIP3   OH282039   0.586   2.929   5.802 -0.1455  0.0748  0.1507
20183TIP3    H182040   0.536   2.997   5.847 -0.7983  1.0565 -1.9720
20183TIP3    H282041   0.574   2.851   5.856  0.1033  1.4733  2.2944
20184TIP3   OH282042   2.753   6.196   5.055 -0.7411  1.3683  0.7257
20184TIP3    H182043   2.789   6.113   5.085 -0.2429  0.7074 -1.5595
20184TIP3    H282044   2.664   6.199   5.091 -0.4129  0.2960  1.6306
20185TIP3   OH282045   3.602   5.506   5.561  0.3386  0.1936 -0.1761
20185TIP3    H182046   3.547   5.568   5.610 -1.0841 -0.6347 -0.7141
20185TIP3    H282047   3.598   5.537   5.471 -1.8734 -1.6831 -0.7854
20186TIP3   OH282048   2.673   4.468   5.641 -0.2683  0.2094 -0.4076
20186TIP3    H182049   2.597   4.525   5.648  1.4458  2.4438  0.6571
20186TIP3    H282050   2.661   4.403   5.710 -0.3794  1.6213  0.9445
20187TIP3   OH282051   2.659   5.297   3.195 -0.8975 -0.0903 -0.4426
20187TIP3    H182052   2.679   5.386   3.167 -0.1449 -0.6290 -1.6884
20187TIP3    H282053   2.600   5.263   3.127 -1.7189 -0.3095  0.3815
20188TIP3   OH282054   1.854   4.607   5.251  0.4442 -0.4574 -0.5829
20188TIP3    H182055   1.935   4.557   5.242 -0.3944 -1.7786 -0.9034
20188TIP3    H282056   1.792   4.547   5.293 -1.6884 -0.9495 -4.2239
20189TIP3   OH282057   2.722   5.257   4.506  0.0181  0.8446  0.3575
20189TIP3    H182058   2.673   5.339   4.515  0.5136  1.2273 -0.3722
20189TIP3    H282059   2.807   5.276   4.545  0.2282  0.7587 -0.0606
20190TIP3   OH282060   2.125   3.716   4.278 -0.1469  0.5124  0.3668
20190TIP3    H182061   2.155   3.752   4.195  0.7241 -0.7011  0.1532
20190TIP3    H282062   2.107   3.624   4.259  0.6937  0.0709  1.6832
20191TIP3   OH282063   1.582   3.653   6.126 -0.1606 -0.1629 -0.0747
20191TIP3    H182064   1.517   3.596   6.165 -1.7698  0.1723 -2.2155
20191TIP3    H282065   1.640   3.595   6.077  0.6441 -0.3592  1.0800
20192TIP3   OH282066   6.515   4.329   5.826 -0.0110  0.3966 -0.1497
20192TIP3    H182067   6.465   4.255   5.863  0.3245  0.6418  0.8075
20192TIP3    H282068   6.451   4.399   5.817 -0.2056  0.1715 -0.5167
20193TIP3   OH282069   4.341   4.245   3.922  0.5403  0.9019 -0.1347
20193TIP3    H182070   4.294   4.242   3.838 -0.8314 -0.8246  0.6440
20193TIP3    H282071   4.433   4.248   3.898  0.1252  1.8860 -1.7056
20194TIP3   OH282072   3.727   5.611   4.129  0.0110  0.1918 -0.1304
20194TIP3    H182073   3.708   5.693   4.084 -0.5775 -0.4449 -1.0447
20194TIP3    H282074   3.645   5.561   4.126  0.3576 -0.4338  0.4288
20195TIP3   OH282075   4.580   5.509   4.520  0.1008  0.0686 -0.3837
20195TIP3    H182076   4.663   5.489   4.565 -1.4363 -1.8466  1.6881
20195TIP3    H282077   4.585   5.458   4.439  0.6089 -0.7325  0.1346
20196TIP3   OH282078   5.525   5.565   5.597  0.5409 -0.1138  0.4574
20196TIP3    H182079   5.578   5.529   5.525 -1.0334 -1.2542 -0.1743
20196TIP3    H282080   5.522   5.494   5.661 -1.6313 -0.7282 -0.2892
20197TIP3   OH282081   3.816   4.349   5.995  0.4733 -0.4148 -0.4614
20197TIP3    H182082   3.730   4.375   6.031  0.7747 -1.0656  0.7567
20197TIP3    H282083   3.879   4.398   6.047  0.8661 -0.1466 -1.1818
20198TIP3   OH282084   5.008   3.413   3.306  0.9926 -0.7495  0.4479
20198TIP3    H182085   5.089   3.454   3.275  0.6495 -0.9012 -0.6813
20198TIP3    H282086   4.964   3.482   3.356  0.2709  0.4031 -1.7052
20199TIP3   OH282087   5.178   4.383   6.221 -0.6926 -0.6421  0.3757
20199TIP3    H182088   5.194   4.298   6.178 -2.2168 -0.5488 -0.4279
20199TIP3    H282089   5.121   4.362   6.295 -1.7131 -0.2290 -0.2849
20200TIP3   OH282090   4.931   4.720   5.552  0.5608  0.8180 -1.0372
20200TIP3    H182091   4.852   4.745   5.503 -1.4611 -1.4408  0.9660
20200TIP3    H282092   4.954   4.634   5.518  1.2587  0.8183 -0.5668
20201TIP3   OH282093   5.271   3.908   4.154 -0.0977  0.2875 -0.8342
20201TIP3    H182094   5.344   3.962   4.185 -0.3502  0.8466 -1.2006
20201TIP3    H282095   5.310   3.853   4.086  0.2226 -0.1896 -0.2663
20202TIP3   OH282096   5.620   2.666   5.697 -0.8090 -0.1495  0.0774
20202TIP3    H182097   5.604   2.663   5.791  0.1628  0.0203  0.2449
20202TIP3    H282098   5.648   2.577   5.675 -1.2148 -0.2390 -0.0871
20203TIP3   OH282099   3.524   3.923   5.447 -0.3820  0.0384 -0.1662
20203TIP3    H182100   3.448   3.960   5.490 -1.0093 -0.5578 -0.7567
20203TIP3    H282101   3.554   3.853   5.505 -1.2865 -0.8317 -0.7262
20204TIP3   OH282102   6.925   4.655   5.268  0.5046  0.0696 -0.5528
20204TIP3    H182103   6.903   4.671   5.360  0.0041  1.9940 -0.9725
20204TIP3    H282104   7.017   4.681   5.261  0.6958 -0.5766 -0.4952
20205TIP3   OH282105   5.462   5.764   5.056  0.3857 -0.6147  0.0680
20205TIP3    H182106   5.501   5.738   4.973 -0.2103 -1.1451 -0.0480
20205TIP3    H282107   5.481   5.692   5.116 -0.1729 -0.7504  0.0854
20206TIP3   OH282108   2.949   3.221   5.076 -0.3918 -0.1506 -0.3504
20206TIP3    H182109   2.881   3.269   5.027  0.5946  0.4225 -1.1703
20206TIP3    H282110   3.028   3.230   5.023  0.0599 -1.8285  0.0050
20207TIP3   OH282111   6.638   3.991   5.906 -0.2046  0.5474  0.2810
20207TIP3    H182112   6.685   4.047   5.844 -0.6822 -2.4369 -2.9373
20207TIP3    H282113   6.707   3.944   5.953  0.1361  1.9098  1.1727
20208TIP3   OH282114   6.734   5.530   5.986  0.2409 -1.0941  0.0830
20208TIP3    H182115   6.767   5.440   5.992  1.0531 -0.7094  1.7403
20208TIP3    H282116   6.640   5.521   6.003 -0.2272 -1.9542 -2.7090
20209TIP3   OH282117   0.720   3.177   4.923  0.1516 -0.0329 -0.6224
20209TIP3    H182118   0.650   3.195   4.861 -1.4670  1.4861  1.5937
20209TIP3    H282119   0.694   3.096   4.966  1.0467 -0.8327 -1.5359
20210TIP3   OH282120   5.448   3.648   4.968 -0.2104 -0.1583  0.0742
20210TIP3    H182121   5.367   3.645   5.019 -0.5670 -1.6678 -0.5688
20210TIP3    H282122   5.426   3.701   4.891 -0.3401  0.1176  0.2985
20211TIP3   OH282123   6.779   4.659   3.390 -0.3258  0.5126 -0.2454
20211TIP3    H182124   6.821   4.592   3.445  0.5696  0.9436 -0.3828
20211TIP3    H282125   6.693   4.672   3.429 -0.3901 -0.5050 -0.0412
20212TIP3   OH282126   5.979   5.219   5.680 -0.2597 -0.1349  0.0259
20212TIP3    H182127   5.975   5.158   5.754 -1.7725  1.2582  1.1425
20212TIP3    H282128   5.889   5.228   5.651  0.0609  0.8556 -0.7023
20213TIP3   OH282129   5.686   4.336   5.610  0.1554  0.2994 -0.5078
20213TIP3    H182130   5.763   4.292   5.647  1.2027  0.9525 -1.8612
20213TIP3    H282131   5.640   4.371   5.686  1.5285  0.4184  0.2900
20214TIP3   OH282132   6.113   4.979   5.097 -0.5977  0.0695 -0.2342
20214TIP3    H182133   6.089   5.035   5.024 -2.6992  0.2445  0.5581
20214TIP3    H282134   6.066   5.016   5.172  3.1178  1.1233  1.6676
20215TIP3   OH282135   5.899   5.525   5.115  0.2897 -0.0396 -0.2419
20215TIP3    H182136   5.994   5.515   5.112  0.7009  3.3436 -0.8393
20215TIP3    H282137   5.867   5.479   5.038  1.8981  2.4485 -2.4676
20216TIP3   OH282138   5.902   4.167   4.930  0.4505  0.5442  0.0873
20216TIP3    H182139   5.899   4.111   5.007  0.4344  1.0272  0.4370
20216TIP3    H282140   5.937   4.110   4.861  2.8598  0.7672  1.0434
20217TIP3   OH282141   6.584   4.670   5.712 -0.0490  0.0991 -0.1498
20217TIP3    H182142   6.654   4.690   5.650  0.3352 -0.6056  0.0587
20217TIP3    H282143   6.585   4.575   5.719 -1.4296  0.0413 -0.6172
20218TIP3   OH282144   1.107   6.491   6.142 -0.6595 -0.3314  0.5267
20218TIP3    H182145   1.161   6.569   6.155  0.0946 -0.9160  0.9565
20218TIP3    H282146   1.169   6.424   6.114 -1.4400 -0.5385 -0.7563
20219TIP3   OH282147   2.856   5.426   6.095 -0.2727 -0.3283 -0.2766
20219TIP3    H182148   2.787   5.421   6.161 -0.1044  1.7872  0.0901
20219TIP3    H282149   2.897   5.340   6.097 -0.8475 -0.5799  1.7457
20220TIP3   OH282150   3.109   6.252   5.971  0.6627 -0.3987  0.4367
20220TIP3    H182151   3.200   6.263   5.998  0.3209  3.5706  0.2883
20220TIP3    H282152   3.064   6.222   6.050  2.2722 -3.8513  0.1368
20221TIP3   OH282153   0.931   5.938   5.914 -0.3654 -0.5223  0.4636
20221TIP3    H182154   0.967   5.872   5.973 -1.9318 -1.5042  0.3576
20221TIP3    H282155   0.855   5.973   5.961  0.9843  1.9177  0.9340
20222TIP3   OH282156   0.580   5.518   3.973 -0.5605 -0.3386 -0.7910
20222TIP3    H182157   0.486   5.527   3.954 -0.5339 -0.4845 -0.9901
20222TIP3    H282158   0.588   5.547   4.064 -0.9427 -1.2052 -0.4764
20223TIP3   OH282159   7.116   6.382   5.934 -0.3579 -0.0499 -0.5521
20223TIP3    H182160   7.039   6.343   5.975  0.1957 -0.7819 -0.2000
20223TIP3    H282161   7.154   6.438   6.001  1.1676 -2.0879  0.3453
20224TIP3   OH282162   7.138   5.917   4.990 -0.2643  0.1386  0.4511
20224TIP3    H182163   7.129   6.011   4.977  1.0542  0.0365 -1.3277
20224TIP3    H282164   7.160   5.908   5.083 -0.1291  1.5984  0.5715
20225TIP3   OH282165   6.881   7.234   5.846 -0.3238 -0.4020 -0.7357
20225TIP3    H182166   6.883   7.314   5.794  0.7823  0.5784  0.7963
20225TIP3    H282167   6.971   7.202   5.845 -1.1025 -2.6720 -2.8976
20226TIP3   OH282168   7.253   6.202   6.477 -0.0571  0.2327  0.4413
20226TIP3    H182169   7.201   6.281   6.464  0.2202  0.6453  1.7895
20226TIP3    H282170   7.338   6.233   6.508  0.1778 -0.5697  0.6197
20227TIP3   OH282171   0.543   5.778   3.777 -0.3826  0.0512 -0.3488
20227TIP3    H182172   0.533   5.873   3.776 -1.3358 -0.0210  0.7591
20227TIP3    H282173   0.491   5.750   3.853  1.2248 -1.1991  0.3029
20228TIP3   OH282174   0.673   1.005   4.801 -0.1960  0.3680  0.2131
20228TIP3    H182175   0.744   1.062   4.772 -0.8796  0.2800 -1.6851
20228TIP3    H282176   0.712   0.918   4.805 -0.0605  0.4001 -0.3477
20229TIP3   OH282177   7.230   7.171   3.700 -0.4241  0.6018 -0.2535
20229TIP3    H182178   7.312   7.218   3.716 -0.0554  0.0898 -0.6001
20229TIP3    H282179   7.219   7.174   3.605  0.3525 -1.2089 -0.4403
20230TIP3   OH282180   0.970   5.838   4.513 -0.0575 -0.4885 -0.2502
20230TIP3    H182181   1.060   5.805   4.509  0.0099 -0.1021 -2.1330
20230TIP3    H282182   0.917   5.761   4.535  0.3625 -1.4371 -2.4310
20231TIP3   OH282183   1.070   5.059   4.132  0.0041 -0.2198 -0.1193
20231TIP3    H182184   0.995   5.003   4.112 -0.2985  0.0912  0.1280
20231TIP3    H282185   1.100   5.030   4.218 -0.8305  0.7015  0.5040
20232TIP3   OH282186   0.911   1.225   5.511 -0.6665 -0.0528  0.1473
20232TIP3    H182187   0.977   1.283   5.474  0.4971 -0.1035  2.0928
20232TIP3    H282188   0.946   1.137   5.499 -1.0136 -0.1714 -0.0190
20233TIP3   OH282189   0.431   0.145   5.246 -0.2210 -0.3064 -0.3668
20233TIP3    H182190   0.437   0.186   5.159 -2.0481  1.8272  0.4642
20233TIP3    H282191   0.363   0.079   5.237 -0.1013 -0.3945 -0.6474
20234TIP3   OH282192   0.882   6.513   6.501  0.4123 -0.3120 -0.0841
20234TIP3    H182193   0.904   6.584   6.441  0.3708  0.5612  0.9223
20234TIP3    H282194   0.789   6.526   6.521 -0.0325 -1.6475 -1.2113
20235TIP3   OH282195   2.729   0.653   4.838 -0.6106  0.3093  0.3662
20235TIP3    H182196   2.751   0.597   4.913  0.7548 -0.9453 -0.9638
20235TIP3    H282197   2.650   0.699   4.866 -1.5966 -2.0526  1.6123
20236TIP3   OH282198   1.658   6.668   5.697 -0.7445  0.7716 -0.1066
20236TIP3    H182199   1.602   6.610   5.646  0.0304 -0.2427  0.1758
20236TIP3    H282200   1.621   6.755   5.684 -2.6527  0.0651  0.4193
20237TIP3   OH282201   1.627   5.762   5.817 -0.8041  1.0158  0.0591
20237TIP3    H182202   1.663   5.821   5.751 -1.3899  2.6336  1.1454
20237TIP3    H282203   1.675   5.681   5.806  0.4257  1.8855 -1.0951
20238TIP3   OH282204   0.541   5.602   6.407 -0.6841  0.2719  0.2539
20238TIP3    H182205   0.466   5.595   6.467 -1.6397  0.7311 -0.8791
20238TIP3    H282206   0.503   5.600   6.320  0.6496  0.3330 -0.3452
20239TIP3   OH282207   3.992   4.764   5.960 -0.2065  0.3646  0.4580
20239TIP3    H182208   4.087   4.752   5.961 -0.3726 -1.0505  2.3926
20239TIP3    H282209   3.958   4.693   6.015 -2.3244  1.3123  0.4274
20240TIP3   OH282210   3.780   0.474   4.236 -0.4794  0.3952 -0.1190
20240TIP3    H182211   3.765   0.386   4.270 -0.8008  0.0775 -1.0660
20240TIP3    H282212   3.856   0.506   4.284  0.2143 -0.7590 -0.4271
20241TIP3   OH282213   4.768   6.911   5.852 -0.6556  0.2147  0.3667
20241TIP3    H182214   4.859   6.924   5.878  0.3500 -1.8772 -1.7940
20241TIP3    H282215   4.749   6.820   5.876 -1.0806 -0.3906 -2.1165
20242TIP3   OH282216   3.107   7.279   6.015 -0.7375 -0.5923 -0.2269
20242TIP3    H182217   3.177   7.255   6.075 -1.2066 -0.0058  0.5690
20242TIP3    H282218   3.130   7.366   5.983 -1.2011 -0.2936  0.2216
20243TIP3   OH282219   4.302   6.949   5.710  0.5373  0.2523  0.2136
20243TIP3    H182220   4.230   6.985   5.761 -1.2560 -2.0508 -0.5753
20243TIP3    H282221   4.356   7.024   5.685 -1.7201  2.0275  0.6332
20244TIP3   OH282222   2.735   7.170   6.212 -0.2415  0.5575  0.8305
20244TIP3    H182223   2.684   7.248   6.190 -0.2765  0.7467  1.5588
20244TIP3    H282224   2.765   7.186   6.302  3.0257  1.4963 -0.3812
20245TIP3   OH282225   3.284   7.334   5.652  0.0562  0.1591  0.3628
20245TIP3    H182226   3.247   7.317   5.565  0.2163  0.8564  0.1531
20245TIP3    H282227   3.279   7.429   5.662  1.1459  0.2006  0.6217
20246TIP3   OH282228   4.005   0.644   5.763 -0.8070  0.2228  0.5875
20246TIP3    H182229   4.020   0.572   5.825 -1.6696 -0.3421  0.1595
20246TIP3    H282230   3.927   0.688   5.796 -0.8097  0.4028  0.3403
20247TIP3   OH282231   3.151   6.238   6.440 -0.6384  0.3666  0.4329
20247TIP3    H182232   3.210   6.185   6.387  0.4336 -0.8419  2.7599
20247TIP3    H282233   3.195   6.324   6.445  0.5430 -0.2805  1.4712
20248TIP3   OH282234   2.817   7.291   5.204 -0.0518 -0.6466  0.0881
20248TIP3    H182235   2.732   7.334   5.212  0.3682 -0.1427  2.2592
20248TIP3    H282236   2.880   7.363   5.204  0.4138 -1.0374 -1.0898
20249TIP3   OH282237   4.852   6.067   4.612  0.0751  0.5305 -0.8382
20249TIP3    H182238   4.768   6.027   4.590  0.6119 -0.4140 -1.1992
20249TIP3    H282239   4.903   5.995   4.648  0.3260  1.3527  0.4889
20250TIP3   OH282240   4.321   1.539   4.182 -0.0341  0.2940  0.2766
20250TIP3    H182241   4.292   1.448   4.168  0.1108 -0.0083  1.8050
20250TIP3    H282242   4.245   1.582   4.220 -0.0349  0.7734 -0.2623
20251TIP3   OH282243   2.507   6.817   5.183 -0.5271 -0.0529  0.1745
20251TIP3    H182244   2.580   6.850   5.235 -0.9080  0.5178  0.3575
20251TIP3    H282245   2.461   6.896   5.154 -0.3026 -0.3655 -1.0513
20252TIP3   OH282246   3.958   5.468   4.579  0.1449  0.0030  0.1533
20252TIP3    H182247   4.044   5.509   4.586 -0.2925  1.1309 -1.0204
20252TIP3    H282248   3.977   5.376   4.558  1.0494  0.4502 -1.0379
20253TIP3   OH282249   3.936   7.142   6.420  0.1634 -0.4431 -0.3320
20253TIP3    H182250   3.872   7.142   6.491  1.1148 -1.1460  0.5377
20253TIP3    H282251   3.885   7.122   6.342 -1.2328  2.3504 -0.1808
20254TIP3   OH282252   4.495   7.161   4.708  0.0742 -0.2497 -0.2404
20254TIP3    H182253   4.413   7.128   4.672 -0.5553 -0.7171  1.5535
20254TIP3    H282254   4.532   7.214   4.639 -2.5608  1.3232 -0.5071
20255TIP3   OH282255   4.455   6.668   6.103  0.4611 -0.6545  0.6482
20255TIP3    H182256   4.518   6.719   6.153  0.5789 -1.2267  1.0862
20255TIP3    H282257   4.505   6.594   6.069  1.0213  1.1134 -2.5724
20256TIP3   OH282258   4.437   6.012   4.137  0.2490  0.8700  0.3546
20256TIP3    H182259   4.526   5.986   4.111  0.0713  0.1023  0.5131
20256TIP3    H282260   4.450   6.091   4.190  0.7233  1.5938 -0.8114
20257TIP3   OH282261   5.210   5.020   5.162  0.1987  0.4446  0.9591
20257TIP3    H182262   5.196   5.069   5.081 -0.7827 -1.6412 -0.1864
20257TIP3    H282263   5.223   5.087   5.229 -0.5063  2.2380 -0.6508
20258TIP3   OH282264   4.554   5.480   6.242  0.4427 -0.0807 -0.1108
20258TIP3    H182265   4.484   5.498   6.180 -0.9384 -1.7789  0.9151
20258TIP3    H282266   4.556   5.384   6.250  1.8465  0.0152  1.0279
20259TIP3   OH282267   5.167   6.340   6.232  0.1458 -0.7278  0.6812
20259TIP3    H182268   5.168   6.387   6.316 -2.3478 -0.0482  0.3868
20259TIP3    H282269   5.180   6.409   6.167  0.4361 -1.0229  0.4264
20260TIP3   OH282270   6.947   0.217   3.706 -0.6591 -0.5850  0.4233
20260TIP3    H182271   6.949   0.132   3.751 -1.2983 -0.9408 -0.1969
20260TIP3    H282272   6.857   0.248   3.718 -0.4548 -0.0445  0.5530
20261TIP3   OH282273   3.075   7.288   5.430 -0.1396 -0.1060  0.0904
20261TIP3    H182274   3.004   7.250   5.481 -0.5649 -3.3998 -2.7075
20261TIP3    H282275   3.032   7.345   5.367 -0.2082 -1.0276 -0.7079
20262TIP3   OH282276   6.612   4.265   2.144 -0.0025 -0.1228  0.1352
20262TIP3    H182277   6.690   4.294   2.190 -1.9161  1.3938  2.5481
20262TIP3    H282278   6.547   4.251   2.213 -2.1031 -0.5855 -1.8651
20263TIP3   OH282279   4.192   5.751   5.020 -0.3311  0.2425  0.1719
20263TIP3    H182280   4.162   5.788   5.103  0.9126  0.0026  0.7492
20263TIP3    H282281   4.278   5.791   5.006  0.3907 -1.3054  0.0770
20264TIP3   OH282282   3.169   6.489   5.330  0.2410 -1.2492  0.7451
20264TIP3    H182283   3.109   6.539   5.385  0.4030 -0.8050  0.5195
20264TIP3    H282284   3.180   6.406   5.376  1.0655 -0.5537  1.8430
20265TIP3   OH282285   5.548   5.452   4.762  0.3729  0.2312  0.0730
20265TIP3    H182286   5.592   5.408   4.835  3.2034  2.1822 -0.3684
20265TIP3    H282287   5.482   5.507   4.803  1.0258  0.2914  1.0477
20266TIP3   OH282288   3.882   1.184   4.895 -0.2101  0.3540 -0.2934
20266TIP3    H182289   3.977   1.181   4.881  0.0136  1.3775  0.9622
20266TIP3    H282290   3.864   1.112   4.956 -0.2311  0.2254 -0.4504
20267TIP3   OH282291   4.939   6.304   5.234  0.1605  0.1057  0.0506
20267TIP3    H182292   5.034   6.299   5.225  0.0663 -0.0296 -0.8235
20267TIP3    H282293   4.925   6.314   5.329  0.9688 -1.3656  0.3438
20268TIP3   OH282294   3.904   5.431   2.062 -0.0910 -0.2105 -0.1247
20268TIP3    H182295   3.988   5.459   2.098 -0.3527  1.7957 -0.9752
20268TIP3    H282296   3.925   5.358   2.004  1.1609  0.6972 -0.8299
20269TIP3   OH282297   5.968   5.901   5.717  0.1735 -0.1019 -0.3538
20269TIP3    H182298   6.021   5.823   5.701  0.4623 -0.3437  1.6721
20269TIP3    H282299   6.029   5.974   5.702  0.1231 -0.2870 -1.4605
20270TIP3   OH282300   0.373   0.116   6.074 -1.0609 -0.0211 -0.4355
20270TIP3    H182301   0.429   0.110   6.152 -0.1547 -1.9115 -1.1881
20270TIP3    H282302   0.295   0.161   6.104  0.6241  2.2023  0.7916
20271TIP3   OH282303   6.132   5.798   6.186 -0.2970 -0.2178  0.0892
20271TIP3    H182304   6.167   5.799   6.275 -0.4095  0.2381  0.1255
20271TIP3    H282305   6.161   5.713   6.151 -0.3020 -0.4242  0.5754
20272TIP3   OH282306   2.066   6.561   6.000 -0.8203 -0.3359  0.3522
20272TIP3    H182307   2.072   6.646   6.044 -1.0450  0.0947 -0.4389
20272TIP3    H282308   2.141   6.511   6.033 -0.3468  0.3840  0.3702
20273TIP3   OH282309   5.984   4.395   3.508 -0.3781 -0.0987  0.1395
20273TIP3    H182310   6.027   4.463   3.458 -0.4088  0.5292  0.9572
20273TIP3    H282311   5.953   4.332   3.443  0.3383  0.2707 -0.5536
20274TIP3   OH282312   6.771   7.171   5.389  0.0802  0.3078 -0.2740
20274TIP3    H182313   6.751   7.129   5.472  1.1874 -1.7092 -1.0042
20274TIP3    H282314   6.865   7.192   5.395  0.0255  0.7121 -0.7811
20275TIP3   OH282315   0.264   6.200   5.531 -0.1878 -0.7995 -0.0265
20275TIP3    H182316   0.295   6.158   5.451  0.3430  1.6979 -1.1803
20275TIP3    H282317   0.342   6.210   5.585 -0.4343 -1.8656  0.5595
20276TIP3   OH282318   6.522   1.093   5.263  0.7988  0.2515  0.2707
20276TIP3    H182319   6.574   1.100   5.183 -0.5022 -1.7104 -0.7915
20276TIP3    H282320   6.586   1.094   5.334  2.0812  0.4075 -0.8656
20277TIP3   OH282321   5.224   5.754   6.021  0.1219 -0.2383  0.1491
20277TIP3    H182322   5.277   5.674   6.011  0.7716  0.1820  0.2039
20277TIP3    H282323   5.133   5.723   6.016  0.3631 -1.0274  0.4828
20278TIP3   OH282324   7.047   0.121   6.035 -0.4151 -0.1171  0.2794
20278TIP3    H182325   6.982   0.186   6.059 -0.5659  0.2919 -1.1625
20278TIP3    H282326   7.035   0.049   6.098 -2.1784 -0.0022  0.0906
20279TIP3   OH282327   0.018   0.606   6.476  0.1300  0.0466  0.4388
20279TIP3    H182328   0.067   0.554   6.413  0.9112  1.4056 -0.0927
20279TIP3    H282329  -0.055   0.549   6.502  0.7104 -1.1354 -0.4536
20280TIP3   OH282330   6.702   7.257   5.126 -0.2681  0.1551 -0.0512
20280TIP3    H182331   6.735   7.233   5.212  2.5931  1.1959 -0.7964
20280TIP3    H282332   6.711   7.352   5.122 -1.3894  0.2271 -1.0971
20281TIP3   OH282333   0.024   5.885   5.484 -0.3747 -0.1027  0.0549
20281TIP3    H182334  -0.008   5.972   5.461 -2.8136 -1.0050 -0.1150
20281TIP3    H282335   0.019   5.882   5.580 -0.5637 -0.1435  0.0445
20282TIP3   OH282336   1.268   5.516   4.218 -0.2939  0.2479  0.6348
20282TIP3    H182337   1.230   5.556   4.140  0.7124  0.8512  0.4510
20282TIP3    H282338   1.259   5.422   4.204 -2.7192  0.3750  1.0950
20283TIP3   OH282339   7.245   0.191   3.749 -1.0699 -0.3741 -0.5724
20283TIP3    H182340   7.213   0.280   3.741  0.5159  0.1759 -0.9704
20283TIP3    H282341   7.198   0.155   3.824 -1.5958  0.8380 -0.3177
20284TIP3   OH282342   5.775   7.038   3.007 -0.1990  0.0422  0.2250
20284TIP3    H182343   5.838   6.979   3.046  1.4868  1.6819  0.0503
20284TIP3    H282344   5.769   7.111   3.068 -2.5409 -0.4353  0.6318
20285TIP3   OH282345   1.919   1.986   5.351 -0.6618  0.1694  0.0016
20285TIP3    H182346   1.964   1.902   5.358 -2.2924 -0.7933 -0.7275
20285TIP3    H282347   1.954   2.026   5.271  1.1347  0.8234  1.1032
20286TIP3   OH282348   0.016   5.967   6.299 -0.3289 -0.1216 -0.5644
20286TIP3    H182349  -0.055   6.028   6.320  0.1446  0.7535 -1.4524
20286TIP3    H282350   0.037   5.925   6.383 -1.7452 -0.2491 -0.2514
   7.34166   7.34166  16.00000
