;;
;; Generated by CHARMM-GUI (http://www.charmm-gui.org) v1.7
;;
;; psf2itp_mol.py
;;
;; Correspondance:
;; jul316@lehigh.edu or wonpil@lehigh.edu
;;
;; CHARMM36 FF in GROMACS format
;;


[ defaults ]
; nbfunc	comb-rule	gen-pairs	fudgeLJ	fudgeQQ
1	2	yes	1.0	1.0

;[ atomtypes ]
; name	at.num	mass	charge	ptype	sigma	epsilon	;	sigma_14	epsilon_14
;  CG2R61     6    12.0110      0.093     A    3.55005321205e-01    2.928800e-01 
;   CG301     6    12.0110      0.105     A    3.56359487256e-01    1.338880e-01 ;   3.38541512893e-01    4.184000e-02 
;   CG311     6    12.0110     -0.099     A    3.56359487256e-01    1.338880e-01 ;   3.38541512893e-01    4.184000e-02 
;   CG321     6    12.0110     -0.191     A    3.58141284692e-01    2.343040e-01 ;   3.38541512893e-01    4.184000e-02 
;    HGA1     1     1.0080      0.090     A    2.38760856462e-01    1.882800e-01 
;    HGA2     1     1.0080      0.090     A    2.38760856462e-01    1.464400e-01 
;    HGP1     1     1.0080      0.330     A    4.00013524445e-02    1.924640e-01 
;   HGR61     1     1.0080      0.115     A    2.42003727796e-01    1.255200e-01 
;   NG301     7    14.0070     -0.744     A    3.56359487256e-01    1.464400e-01 
;   OG311     8    15.9994     -0.497     A    3.14487247504e-01    8.037464e-01 

[ bondtypes ]
; i	j	func	b0	Kb
 CG2R61  CG2R61     1  1.375000e-01  2.552240e+05
; CG2R61   CG301     1  1.490000e-01  1.924640e+05
 CG2R61   CG311     1  1.490000e-01  1.924640e+05
 CG2R61   CG321     1  1.490000e-01  1.924640e+05
 CG2R61   HGR61     1  1.080000e-01  2.845120e+05
 CG2R61   NG301     1  1.410000e-01  2.719600e+05
; CG2R61   OG311     1  1.411000e-01  2.797422e+05
  CG301   CG301     1  1.500000e-01  1.861880e+05
  CG301   CG311     1  1.500000e-01  1.861880e+05
  CG301   CG321     1  1.538000e-01  1.861880e+05
  CG301   OG311     1  1.420000e-01  3.581504e+05
  CG311   CG311     1  1.500000e-01  1.861880e+05
  CG311   CG321     1  1.538000e-01  1.861880e+05
  CG311    HGA1     1  1.111000e-01  2.585712e+05
  CG311   OG311     1  1.420000e-01  3.581504e+05
  CG321   CG321     1  1.530000e-01  1.861880e+05
  CG321    HGA2     1  1.111000e-01  2.585712e+05
  CG321   NG301     1  1.450000e-01  1.673600e+05
  CG321   OG311     1  1.420000e-01  3.581504e+05
  OG311    HGP1     1  9.600000e-02  4.560560e+05

[ pairtypes ]
; i	j	func	sigma1-4	epsilon1-4
 CG2R61   CG301     1  3.46773417049e-01  1.10698234855e-01 
 CG2R61   CG311     1  3.46773417049e-01  1.10698234855e-01 
 CG2R61   CG321     1  3.46773417049e-01  1.10698234855e-01 
  CG301   CG301     1  3.38541512893e-01  4.18400000000e-02 
  CG301   CG311     1  3.38541512893e-01  4.18400000000e-02 
  CG301   CG321     1  3.38541512893e-01  4.18400000000e-02 
  CG301    HGA1     1  2.88651184677e-01  8.87560431745e-02 
  CG301    HGA2     1  2.88651184677e-01  7.82754725313e-02 
  CG301    HGP1     1  1.89271432669e-01  8.97368027066e-02 
  CG301   HGR61     1  2.90272620344e-01  7.24690057887e-02 
  CG301   NG301     1  3.47450500075e-01  7.82754725313e-02 
  CG301   OG311     1  3.26514380198e-01  1.83381431383e-01 
  CG311   CG311     1  3.38541512893e-01  4.18400000000e-02 
  CG311   CG321     1  3.38541512893e-01  4.18400000000e-02 
  CG311    HGA1     1  2.88651184677e-01  8.87560431745e-02 
  CG311    HGA2     1  2.88651184677e-01  7.82754725313e-02 
  CG311    HGP1     1  1.89271432669e-01  8.97368027066e-02 
  CG311   HGR61     1  2.90272620344e-01  7.24690057887e-02 
  CG311   NG301     1  3.47450500075e-01  7.82754725313e-02 
  CG311   OG311     1  3.26514380198e-01  1.83381431383e-01 
  CG321   CG321     1  3.38541512893e-01  4.18400000000e-02 
  CG321    HGA1     1  2.88651184677e-01  8.87560431745e-02 
  CG321    HGA2     1  2.88651184677e-01  7.82754725313e-02 
  CG321    HGP1     1  1.89271432669e-01  8.97368027066e-02 
  CG321   HGR61     1  2.90272620344e-01  7.24690057887e-02 
  CG321   NG301     1  3.47450500075e-01  7.82754725313e-02 
  CG321   OG311     1  3.26514380198e-01  1.83381431383e-01 

[ angletypes ]
; i	j	k	func	th0	cth	S0	Kub
 CG2R61  CG2R61  CG2R61     5  1.2000000e+02  3.3472000e+02  2.4162000e-01  2.9288000e+04
 CG2R61  CG2R61   CG301     5  1.2000000e+02  3.8325440e+02  0.0000000e+00  0.0000000e+00
 CG2R61  CG2R61   CG311     5  1.2000000e+02  3.8325440e+02  0.0000000e+00  0.0000000e+00
 CG2R61  CG2R61   CG321     5  1.2000000e+02  3.8325440e+02  0.0000000e+00  0.0000000e+00
 CG2R61  CG2R61   HGR61     5  1.2000000e+02  2.5104000e+02  2.1525000e-01  1.8409600e+04
 CG2R61  CG2R61   NG301     5  1.2000000e+02  3.5145600e+02  0.0000000e+00  0.0000000e+00
 CG2R61  CG2R61   OG311     5  1.2000000e+02  3.7823360e+02  0.0000000e+00  0.0000000e+00
 CG2R61   CG301   CG311     5  1.0750000e+02  4.3346240e+02  0.0000000e+00  0.0000000e+00
 CG2R61   CG301   CG321     5  1.0750000e+02  4.3346240e+02  0.0000000e+00  0.0000000e+00
 CG2R61   CG301   OG311     5  1.1280000e+02  6.8617600e+02  0.0000000e+00  0.0000000e+00
 CG2R61   CG311  CG2R61     5  1.0750000e+02  4.3346240e+02  0.0000000e+00  0.0000000e+00
 CG2R61   CG311   CG311     5  1.0750000e+02  4.3346240e+02  0.0000000e+00  0.0000000e+00
 CG2R61   CG311   CG321     5  1.0750000e+02  4.3346240e+02  0.0000000e+00  0.0000000e+00
 CG2R61   CG311    HGA1     5  1.1100000e+02  3.5982400e+02  0.0000000e+00  0.0000000e+00
 CG2R61   CG311   OG311     5  1.1280000e+02  6.8617600e+02  0.0000000e+00  0.0000000e+00
 CG2R61   CG321  CG2R61     5  1.0750000e+02  4.3346240e+02  0.0000000e+00  0.0000000e+00
 CG2R61   CG321   CG311     5  1.0750000e+02  4.3346240e+02  0.0000000e+00  0.0000000e+00
 CG2R61   CG321   CG321     5  1.0750000e+02  4.3346240e+02  0.0000000e+00  0.0000000e+00
 CG2R61   CG321    HGA2     5  1.0750000e+02  4.1254240e+02  0.0000000e+00  0.0000000e+00
 CG2R61   CG321   OG311     5  1.1010000e+02  6.3345760e+02  0.0000000e+00  0.0000000e+00
 CG2R61   NG301   CG321     5  1.1400000e+02  4.7371248e+02  0.0000000e+00  0.0000000e+00
 CG2R61   OG311    HGP1     5  1.0800000e+02  5.4392000e+02  0.0000000e+00  0.0000000e+00
  CG301   CG301   CG311     5  1.1350000e+02  4.8827280e+02  2.5610000e-01  9.3386880e+03
  CG301   CG301   CG321     5  1.1350000e+02  4.8827280e+02  2.5610000e-01  9.3386880e+03
  CG301   CG311   CG301     5  1.0800000e+02  4.3513600e+02  0.0000000e+00  0.0000000e+00
  CG301   CG311   CG311     5  1.0800000e+02  4.3513600e+02  0.0000000e+00  0.0000000e+00
;  CG301   CG311   CG321     5  1.1350000e+02  4.8827280e+02  2.5610000e-01  9.3386880e+03
;  CG301   CG311    HGA1     5  1.1010000e+02  2.8953280e+02  2.1790000e-01  1.8853104e+04
  CG301   CG311   OG311     5  1.1010000e+02  6.3345760e+02  0.0000000e+00  0.0000000e+00
;  CG301   CG321   CG301     5  1.1350000e+02  4.8827280e+02  2.5610000e-01  9.3386880e+03
;  CG301   CG321   CG311     5  1.1350000e+02  4.8827280e+02  2.5610000e-01  9.3386880e+03
;  CG301   CG321   CG321     5  1.1350000e+02  4.8827280e+02  2.5610000e-01  9.3386880e+03
;  CG301   CG321    HGA2     5  1.1010000e+02  2.2175200e+02  2.1790000e-01  1.8853104e+04
  CG301   CG321   OG311     5  1.1010000e+02  6.3345760e+02  0.0000000e+00  0.0000000e+00
  CG301   OG311    HGP1     5  1.0600000e+02  4.1840000e+02  0.0000000e+00  0.0000000e+00
;  CG311   CG301   CG311     5  1.1350000e+02  4.8827280e+02  2.5610000e-01  9.3386880e+03
;  CG311   CG301   CG321     5  1.1350000e+02  4.8827280e+02  2.5610000e-01  9.3386880e+03
  CG311   CG301   OG311     5  1.1010000e+02  6.3345760e+02  0.0000000e+00  0.0000000e+00
  CG311   CG311   CG311     5  1.1100000e+02  4.4643280e+02  2.5610000e-01  6.6944000e+03
  CG311   CG311   CG321     5  1.1100000e+02  4.4643280e+02  2.5610000e-01  6.6944000e+03
;  CG311   CG311    HGA1     5  1.1010000e+02  2.8869600e+02  2.1790000e-01  1.8853104e+04
  CG311   CG311   OG311     5  1.1010000e+02  6.3345760e+02  0.0000000e+00  0.0000000e+00
;  CG311   CG321   CG311     5  1.1350000e+02  4.8827280e+02  2.5610000e-01  9.3386880e+03
;  CG311   CG321   CG321     5  1.1350000e+02  4.8827280e+02  2.5610000e-01  9.3386880e+03
;  CG311   CG321    HGA2     5  1.1010000e+02  2.7974224e+02  2.1790000e-01  1.8853104e+04
  CG311   CG321   NG301     5  1.1577000e+02  5.0735184e+02  0.0000000e+00  0.0000000e+00
  CG311   CG321   OG311     5  1.1010000e+02  6.3345760e+02  0.0000000e+00  0.0000000e+00
  CG311   OG311    HGP1     5  1.0600000e+02  4.1840000e+02  0.0000000e+00  0.0000000e+00
;  CG321   CG301   CG321     5  1.1350000e+02  4.8827280e+02  2.5610000e-01  9.3386880e+03
  CG321   CG301   OG311     5  1.1010000e+02  6.3345760e+02  0.0000000e+00  0.0000000e+00
;  CG321   CG311   CG321     5  1.1350000e+02  4.8827280e+02  2.5610000e-01  9.3386880e+03
;  CG321   CG311    HGA1     5  1.1010000e+02  2.8869600e+02  2.1790000e-01  1.8853104e+04
  CG321   CG311   OG311     5  1.1000000e+02  6.3345760e+02  0.0000000e+00  0.0000000e+00
;  CG321   CG321   CG321     5  1.1360000e+02  4.8827280e+02  2.5610000e-01  9.3386880e+03
;  CG321   CG321    HGA2     5  1.1010000e+02  2.2175200e+02  2.1790000e-01  1.8853104e+04
  CG321   CG321   NG301     5  1.0700000e+02  4.7697600e+02  0.0000000e+00  0.0000000e+00
  CG321   CG321   OG311     5  1.1010000e+02  6.3345760e+02  0.0000000e+00  0.0000000e+00
  CG321   NG301   CG321     5  1.1200000e+02  5.8576000e+02  0.0000000e+00  0.0000000e+00
  CG321   OG311    HGP1     5  1.0600000e+02  4.1840000e+02  0.0000000e+00  0.0000000e+00
   HGA2   CG321    HGA2     5  1.0900000e+02  2.9706400e+02  1.8020000e-01  4.5187200e+03
  NG301   CG321    HGA2     5  1.0900000e+02  2.7112320e+02  0.0000000e+00  0.0000000e+00
  OG311   CG311    HGA1     5  1.0889000e+02  3.8409120e+02  0.0000000e+00  0.0000000e+00
  OG311   CG311   OG311     5  1.1715000e+02  8.4098400e+02  0.0000000e+00  0.0000000e+00
  OG311   CG321    HGA2     5  1.0889000e+02  3.8409120e+02  0.0000000e+00  0.0000000e+00

[ dihedraltypes ]
; i	j	k	l	func	phi0	cp	mult
 CG2R61  CG2R61  CG2R61  CG2R61     9  1.800000e+02  1.297040e+01      2
 CG2R61  CG2R61  CG2R61   CG301     9  1.800000e+02  1.297040e+01      2
 CG2R61  CG2R61  CG2R61   CG311     9  1.800000e+02  1.297040e+01      2
 CG2R61  CG2R61  CG2R61   CG321     9  1.800000e+02  1.297040e+01      2
 CG2R61  CG2R61  CG2R61   HGR61     9  1.800000e+02  1.757280e+01      2
 CG2R61  CG2R61  CG2R61   NG301     9  1.800000e+02  5.857600e+00      2
 CG2R61  CG2R61  CG2R61   OG311     9  1.800000e+02  1.297040e+01      2
 CG2R61  CG2R61   CG301   CG311     9  1.800000e+02  9.623200e-01      2
 CG2R61  CG2R61   CG301   CG321     9  1.800000e+02  9.623200e-01      2
 CG2R61  CG2R61   CG301   CG321     9  1.800000e+02  9.623200e-01      2
 CG2R61  CG2R61   CG301   OG311     9  1.800000e+02  2.928800e+00      2
 CG2R61  CG2R61   CG311  CG2R61     9  1.800000e+02  9.623200e-01      2
 CG2R61  CG2R61   CG311   CG311     9  1.800000e+02  9.623200e-01      2
 CG2R61  CG2R61   CG311   CG321     9  1.800000e+02  9.623200e-01      2
 CG2R61  CG2R61   CG311    HGA1     9  1.800000e+02  4.184000e-01      6
 CG2R61  CG2R61   CG311   OG311     9  1.800000e+02  2.928800e+00      2
 CG2R61  CG2R61   CG321  CG2R61     9  1.800000e+02  9.623200e-01      2
 CG2R61  CG2R61   CG321   CG311     9  1.800000e+02  9.623200e-01      2
 CG2R61  CG2R61   CG321   CG321     9  1.800000e+02  9.623200e-01      2
 CG2R61  CG2R61   CG321    HGA2     9  0.000000e+00  8.368000e-03      6
 CG2R61  CG2R61   CG321   OG311     9  0.000000e+00  0.000000e+00      2
; CG2R61  CG2R61   NG301   CG321     9  0.000000e+00  6.276000e-01      4
; CG2R61  CG2R61   NG301   CG321     9  1.800000e+02  6.276000e+00      2
 CG2R61  CG2R61   OG311    HGP1     9  1.800000e+02  4.142160e+00      2
 CG2R61   CG301   CG311   CG321     9  0.000000e+00  1.673600e-01      3
 CG2R61   CG301   CG311    HGA1     9  0.000000e+00  1.673600e-01      3
 CG2R61   CG301   CG321   CG301     9  0.000000e+00  1.673600e-01      3
 CG2R61   CG301   CG321   CG321     9  0.000000e+00  1.673600e-01      3
 CG2R61   CG301   CG321    HGA2     9  0.000000e+00  1.673600e-01      3
 CG2R61   CG301   CG321    HGA2     9  0.000000e+00  1.673600e-01      3
 CG2R61   CG301   OG311    HGP1     9  0.000000e+00  2.259360e+00      2
 CG2R61   CG301   OG311    HGP1     9  0.000000e+00  3.221680e+00      3
 CG2R61   CG301   OG311    HGP1     9  0.000000e+00  4.518720e+00      1
 CG2R61   CG311   CG311   CG321     9  0.000000e+00  1.673600e-01      3
 CG2R61   CG311   CG311    HGA1     9  0.000000e+00  0.000000e+00      3
 CG2R61   CG311   CG321   CG301     9  0.000000e+00  1.673600e-01      3
 CG2R61   CG311   CG321   CG311     9  0.000000e+00  1.673600e-01      3
 CG2R61   CG311   CG321   CG321     9  0.000000e+00  1.673600e-01      3
 CG2R61   CG311   CG321    HGA2     9  0.000000e+00  0.000000e+00      3
 CG2R61   CG311   CG321   OG311     9  0.000000e+00  8.368000e-01      3
; CG2R61   CG311   OG311    HGP1     9  0.000000e+00  2.259360e+00      2
; CG2R61   CG311   OG311    HGP1     9  0.000000e+00  3.221680e+00      3
; CG2R61   CG311   OG311    HGP1     9  0.000000e+00  4.518720e+00      1
 CG2R61   CG321   CG321   CG301     9  0.000000e+00  1.673600e-01      3
 CG2R61   CG321   CG321   CG311     9  0.000000e+00  1.673600e-01      3
 CG2R61   CG321   CG321   CG321     9  0.000000e+00  1.673600e-01      3
 CG2R61   CG321   CG321    HGA2     9  0.000000e+00  1.673600e-01      3
 CG2R61   CG321   CG321   OG311     9  0.000000e+00  8.368000e-01      3
; CG2R61   CG321   OG311    HGP1     9  0.000000e+00  3.096160e+00      3
; CG2R61   CG321   OG311    HGP1     9  0.000000e+00  5.857600e+00      2
; CG2R61   CG321   OG311    HGP1     9  0.000000e+00  8.786400e+00      1
  CG301  CG2R61  CG2R61   CG301     9  1.800000e+02  1.255200e+01      2
  CG301  CG2R61  CG2R61   HGR61     9  1.800000e+02  1.004160e+01      2
  CG301   CG301   CG311   CG301     9  0.000000e+00  8.368000e-01      3
  CG301   CG301   CG311   CG321     9  0.000000e+00  8.368000e-01      3
  CG301   CG301   CG311    HGA1     9  0.000000e+00  8.158800e-01      3
  CG301   CG301   CG321   CG321     9  0.000000e+00  8.368000e-01      3
  CG301   CG301   CG321    HGA2     9  0.000000e+00  8.158800e-01      3
  CG301   CG311   CG311   CG311     9  0.000000e+00  8.368000e-01      3
  CG301   CG311   CG311   CG321     9  0.000000e+00  8.368000e-01      3
  CG301   CG311   CG311    HGA1     9  0.000000e+00  8.158800e-01      3
  CG301   CG311   CG321   CG311     9  0.000000e+00  8.368000e-01      3
  CG301   CG311   CG321   CG321     9  0.000000e+00  8.368000e-01      3
  CG301   CG311   CG321    HGA2     9  0.000000e+00  8.158800e-01      3
  CG301   CG311   CG321   OG311     9  1.800000e+02  8.368000e-01      3
;  CG301   CG311   OG311    HGP1     9  0.000000e+00  7.531200e-01      2
;  CG301   CG311   OG311    HGP1     9  0.000000e+00  1.924640e+00      3
;  CG301   CG311   OG311    HGP1     9  0.000000e+00  5.564720e+00      1
  CG301   CG321   CG321   CG311     9  0.000000e+00  8.368000e-01      3
  CG301   CG321   CG321   CG321     9  0.000000e+00  8.158800e-01      3
  CG301   CG321   CG321    HGA2     9  0.000000e+00  8.158800e-01      3
  CG301   CG321   CG321   NG301     9  0.000000e+00  1.631760e+00      2
  CG301   CG321   CG321   NG301     9  1.800000e+02  6.694400e-01      1
  CG301   CG321   CG321   OG311     9  0.000000e+00  8.158800e-01      3
  CG301   CG321   OG311    HGP1     9  0.000000e+00  5.857600e-01      2
  CG301   CG321   OG311    HGP1     9  0.000000e+00  1.004160e+00      3
  CG301   CG321   OG311    HGP1     9  0.000000e+00  4.727920e+00      1
  CG311  CG2R61  CG2R61   HGR61     9  1.800000e+02  1.004160e+01      2
  CG311  CG2R61  CG2R61   OG311     9  1.800000e+02  1.004160e+01      2
  CG311   CG301   CG301   CG311     9  0.000000e+00  8.368000e-01      3
  CG311   CG301   CG301   CG321     9  0.000000e+00  8.368000e-01      3
  CG311   CG301   CG311   CG301     9  0.000000e+00  8.368000e-01      3
  CG311   CG301   CG311   CG311     9  0.000000e+00  8.368000e-01      3
  CG311   CG301   CG311   CG321     9  0.000000e+00  8.368000e-01      3
  CG311   CG301   CG311    HGA1     9  0.000000e+00  8.158800e-01      3
  CG311   CG301   CG321   CG311     9  0.000000e+00  8.368000e-01      3
  CG311   CG301   CG321   CG321     9  0.000000e+00  8.368000e-01      3
  CG311   CG301   CG321    HGA2     9  0.000000e+00  8.158800e-01      3
;  CG311   CG301   OG311    HGP1     9  0.000000e+00  5.857600e-01      2
;  CG311   CG301   OG311    HGP1     9  0.000000e+00  1.004160e+00      3
;  CG311   CG301   OG311    HGP1     9  0.000000e+00  4.727920e+00      1
  CG311   CG311   CG311   CG321     9  1.800000e+02  2.092000e+00      4
  CG311   CG311   CG311    HGA1     9  0.000000e+00  8.158800e-01      3
  CG311   CG311   CG311   OG311     9  0.000000e+00  5.857600e-01      3
  CG311   CG311   CG321   CG301     9  0.000000e+00  8.368000e-01      3
  CG311   CG311   CG321   CG311     9  0.000000e+00  8.368000e-01      3
  CG311   CG311   CG321   CG321     9  0.000000e+00  8.368000e-01      3
  CG311   CG311   CG321    HGA2     9  0.000000e+00  8.158800e-01      3
  CG311   CG311   CG321   NG301     9  0.000000e+00  8.368000e-01      3
  CG311   CG311   CG321   OG311     9  1.800000e+02  8.368000e-01      3
  CG311   CG311   OG311    HGP1     9  0.000000e+00  7.531200e-01      2
;  CG311   CG311   OG311    HGP1     9  0.000000e+00  1.924640e+00      3
;  CG311   CG311   OG311    HGP1     9  0.000000e+00  5.564720e+00      1
  CG311   CG321   CG321   CG311     9  0.000000e+00  8.158800e-01      3
;  CG311   CG321   CG321   CG321     9  0.000000e+00  2.092000e+00      3
;  CG311   CG321   CG321   CG321     9  1.800000e+02  2.092000e+00      6
  CG311   CG321   CG321    HGA2     9  0.000000e+00  8.158800e-01      3
  CG311   CG321   CG321   OG311     9  0.000000e+00  8.158800e-01      3
;  CG311   CG321   NG301  CG2R61     9  0.000000e+00  4.184000e-02      3
;  CG311   CG321   NG301  CG2R61     9  0.000000e+00  1.255200e-01      2
;  CG311   CG321   NG301  CG2R61     9  1.800000e+02  1.840960e+00      1
;  CG311   CG321   OG311    HGP1     9  0.000000e+00  5.857600e-01      2
;  CG311   CG321   OG311    HGP1     9  0.000000e+00  1.004160e+00      3
;  CG311   CG321   OG311    HGP1     9  0.000000e+00  4.727920e+00      1
  CG321  CG2R61  CG2R61   HGR61     9  1.800000e+02  1.004160e+01      2
  CG321  CG2R61  CG2R61   OG311     9  1.800000e+02  1.004160e+01      2
  CG321   CG301   CG301   CG321     9  0.000000e+00  8.368000e-01      3
  CG321   CG301   CG311   CG301     9  0.000000e+00  8.368000e-01      3
  CG321   CG301   CG311   CG311     9  0.000000e+00  8.368000e-01      3
  CG321   CG301   CG311   CG321     9  0.000000e+00  8.368000e-01      3
  CG321   CG301   CG311    HGA1     9  0.000000e+00  8.158800e-01      3
  CG321   CG301   CG311   OG311     9  0.000000e+00  5.857600e-01      3
  CG321   CG301   CG321   CG301     9  0.000000e+00  8.368000e-01      3
  CG321   CG301   CG321   CG311     9  0.000000e+00  8.368000e-01      3
  CG321   CG301   CG321   CG321     9  0.000000e+00  8.368000e-01      3
  CG321   CG301   CG321    HGA2     9  0.000000e+00  8.158800e-01      3
  CG321   CG301   CG321   OG311     9  1.800000e+02  8.368000e-01      3
  CG321   CG301   OG311    HGP1     9  0.000000e+00  5.857600e-01      2
  CG321   CG301   OG311    HGP1     9  0.000000e+00  5.857600e-01      2
  CG321   CG301   OG311    HGP1     9  0.000000e+00  1.004160e+00      3
  CG321   CG301   OG311    HGP1     9  0.000000e+00  1.004160e+00      3
  CG321   CG301   OG311    HGP1     9  0.000000e+00  4.727920e+00      1
  CG321   CG301   OG311    HGP1     9  0.000000e+00  4.727920e+00      1
  CG321   CG311   CG311   CG321     9  1.800000e+02  2.092000e+00      4
  CG321   CG311   CG311    HGA1     9  0.000000e+00  8.158800e-01      3
  CG321   CG311   CG311   OG311     9  0.000000e+00  5.857600e-01      3
  CG321   CG311   CG321  CG2R61     9  0.000000e+00  1.673600e-01      3
  CG321   CG311   CG321   CG301     9  0.000000e+00  8.368000e-01      3
  CG321   CG311   CG321   CG311     9  0.000000e+00  8.368000e-01      3
  CG321   CG311   CG321   CG321     9  0.000000e+00  8.368000e-01      3
  CG321   CG311   CG321    HGA2     9  0.000000e+00  8.158800e-01      1
  CG321   CG311   CG321   NG301     9  0.000000e+00  8.368000e-01      3
  CG321   CG311   CG321   OG311     9  1.800000e+02  8.368000e-01      3
;  CG321   CG311   OG311    HGP1     9  0.000000e+00  1.255200e+00      1
;  CG321   CG311   OG311    HGP1     9  0.000000e+00  1.255200e+00      3
;  CG321   CG321   CG321   CG321     9  0.000000e+00  2.698680e-01      2
;  CG321   CG321   CG321   CG321     9  0.000000e+00  3.957227e-01      4
  CG321   CG321   CG321   CG321     9  0.000000e+00  4.707418e-01      5
  CG321   CG321   CG321   CG321     9  1.800000e+02  6.265540e-01      3
  CG321   CG321   CG321    HGA2     9  0.000000e+00  8.158800e-01      3
;  CG321   CG321   CG321   NG301     9  0.000000e+00  1.631760e+00      2
;  CG321   CG321   CG321   NG301     9  1.800000e+02  6.694400e-01      1
  CG321   CG321   CG321   OG311     9  0.000000e+00  8.158800e-01      3
;  CG321   CG321   NG301   CG321     9  0.000000e+00  3.430880e+00      2
;  CG321   CG321   NG301   CG321     9  0.000000e+00  4.267680e+00      3
;  CG321   CG321   NG301   CG321     9  1.800000e+02  5.941280e+00      1
;  CG321   CG321   OG311    HGP1     9  0.000000e+00  5.857600e-01      2
;  CG321   CG321   OG311    HGP1     9  0.000000e+00  1.004160e+00      3
;  CG321   CG321   OG311    HGP1     9  0.000000e+00  4.727920e+00      1
   HGA1   CG311   CG311    HGA1     9  0.000000e+00  8.158800e-01      3
   HGA1   CG311   CG321  CG2R61     9  0.000000e+00  1.673600e-01      3
   HGA1   CG311   CG321   CG301     9  0.000000e+00  8.158800e-01      3
   HGA1   CG311   CG321   CG311     9  0.000000e+00  8.158800e-01      3
   HGA1   CG311   CG321   CG321     9  0.000000e+00  8.158800e-01      3
   HGA1   CG311   CG321    HGA2     9  0.000000e+00  8.158800e-01      3
   HGA1   CG311   CG321   NG301     9  0.000000e+00  7.531200e-01      3
   HGA1   CG311   CG321   OG311     9  0.000000e+00  8.158800e-01      3
   HGA1   CG311   OG311    HGP1     9  0.000000e+00  0.000000e+00      3
   HGA2   CG321   CG321    HGA2     9  0.000000e+00  9.204800e-01      3
   HGA2   CG321   NG301  CG2R61     9  1.800000e+02  0.000000e+00      3
   HGA2   CG321   NG301   CG321     9  0.000000e+00  4.184000e-01      3
   HGA2   CG321   OG311    HGP1     9  0.000000e+00  7.531200e-01      3
  HGR61  CG2R61  CG2R61   HGR61     9  1.800000e+02  1.004160e+01      2
  NG301  CG2R61  CG2R61   HGR61     9  1.800000e+02  1.004160e+01      2
  NG301   CG321   CG321    HGA2     9  0.000000e+00  6.694400e-01      3
  OG311  CG2R61  CG2R61   HGR61     9  1.800000e+02  1.004160e+01      2
;  OG311  CG2R61  CG2R61   OG311     9  1.800000e+02  1.414527e+01      2
  OG311   CG301   CG311   CG321     9  0.000000e+00  3.347200e+00      3
  OG311   CG301   CG311    HGA1     9  0.000000e+00  8.158800e-01      3
;  OG311   CG301   CG311   OG311     9  0.000000e+00  1.993676e+00      3
;  OG311   CG301   CG311   OG311     9  1.800000e+02  3.379417e+00      1
  OG311   CG301   CG321   CG301     9  0.000000e+00  3.347200e+00      3
  OG311   CG301   CG321   CG321     9  0.000000e+00  3.347200e+00      3
  OG311   CG301   CG321   CG321     9  0.000000e+00  3.347200e+00      3
  OG311   CG301   CG321    HGA2     9  0.000000e+00  6.694400e-01      3
  OG311   CG301   CG321    HGA2     9  0.000000e+00  8.158800e-01      3
  OG311   CG311   CG311    HGA1     9  0.000000e+00  8.158800e-01      3
  OG311   CG311   CG311   OG311     9  0.000000e+00  8.368000e-01      3
  OG311   CG311   CG321   CG301     9  0.000000e+00  1.673600e+00      5
  OG311   CG311   CG321   CG301     9  0.000000e+00  3.347200e+00      6
  OG311   CG311   CG321   CG301     9  1.800000e+02  8.368000e+00      3
;  OG311   CG311   CG321   CG311     9  0.000000e+00  1.673600e+00      5
;  OG311   CG311   CG321   CG311     9  0.000000e+00  3.347200e+00      6
;  OG311   CG311   CG321   CG311     9  1.800000e+02  8.368000e+00      3
;  OG311   CG311   CG321   CG321     9  0.000000e+00  1.673600e+00      3
;  OG311   CG311   CG321   CG321     9  0.000000e+00  1.673600e+00      5
;  OG311   CG311   CG321   CG321     9  0.000000e+00  2.928800e+00      2
;  OG311   CG311   CG321   CG321     9  1.800000e+02  2.092000e+00      1
  OG311   CG311   CG321    HGA2     9  1.800000e+02  8.158800e-01      3
  OG311   CG311   CG321   NG301     9  0.000000e+00  8.368000e-01      3
  OG311   CG311   CG321   OG311     9  0.000000e+00  8.368000e-01      3
;  OG311   CG311   OG311    HGP1     9  0.000000e+00  1.163570e+00      3
;  OG311   CG311   OG311    HGP1     9  0.000000e+00  4.413702e+00      2
;  OG311   CG311   OG311    HGP1     9  0.000000e+00  7.673038e+00      1
  OG311   CG321   CG321    HGA2     9  0.000000e+00  8.158800e-01      3
  OG311   CG321   CG321   OG311     9  0.000000e+00  8.368000e-01      3

[ dihedraltypes ]
; i	j	k	l	func	q0	cq
 CG2R61  CG2R61  CG2R61   OG311     2  0.000000e+00  1.255200e+02
